mFile = /cm/shared/apps/q-chem/intel/QCHEM_5.0.1_Trunk/bin/mpi/machines
Process 0 of 1 is on ctcp015 - thread support 0
initial socket setup ...start
initial socket setup ...done 
now start server 0 ... 
ctcp015.cm.cluster 10.141.0
Q-Chem Developer Version! Running on 10.141.0.*
                  Welcome to Q-Chem
     A Quantum Leap Into The Future Of Chemistry


 Q-Chem 5.0, Q-Chem, Inc., Pleasanton, CA (2017)

 Yihan Shao,  Zhengting Gan,  E. Epifanovsky,  A. T. B. Gilbert,  M. Wormit,  
 J. Kussmann,  A. W. Lange,  A. Behn,  Jia Deng,  Xintian Feng,  D. Ghosh,  
 M. Goldey,  P. R. Horn,  L. D. Jacobson,  I. Kaliman,  T. Kus,  A. Landau,  
 Jie Liu,  E. I. Proynov,  R. M. Richard,  R. P. Steele,  E. J. Sundstrom,  
 H. L. Woodcock III,  P. M. Zimmerman,  D. Zuev,  B. Albrecht,  E. Alguire,  
 S. A. Baeppler,  Z. Benda,  Y. A. Bernard,  E. J. Berquist,  K. B. Bravaya,  
 D. Casanova,  Chun-Min Chang,  Yunqing Chen,  A. Chien,  K. D. Closser,  
 M. P. Coons,  S. Dasgupta,  M. Diedenhofen,  Hainam Do,  R. G. Edgar,  
 Po-Tung Fang,  S. Fatehi,  Qingguo Feng,  Qinghui Ge,  A. Ghysels,  
 J. Gomes,  J. Gonthier,  A. Gunina,  M. W. D. Hanson-Heine,  
 P. H. P. Harbach,  A. W. Hauser,  J. E. Herr,  E. G. Hohenstein,  
 Z. C. Holden,  Kerwin Hui,  T.-C. Jagau,  Hyunjun Ji,  B. Kaduk,  
 K. Khistyaev,  Jaehoon Kim,  P. Klunzinger,  K. Koh,  D. Kosenkov,  
 T. Kowalczyk,  C. M. Krauter,  A. Kunitsa,  Ka Un Lao,  A. Laurent,  
 K. V. Lawler,  Joonho Lee,  D. Lefrancois,  S. Lehtola,  D. S. Levine,  
 Yi-Pei Li,  You-Sheng Lin,  Fenglai Liu,  E. Livshits,  A. Luenser,  
 P. Manohar,  E. Mansoor,  S. F. Manzer,  Shan-Ping Mao,  Yuezhi Mao,  
 N. Mardirossian,  A. V. Marenich,  L. A. Martinez-Martinez,  S. A. Maurer,  
 N. J. Mayhall,  S. C. McKenzie,  J.-M. Mewes,  A. F. Morrison,  K. Nanda,  
 T. S. Nguyen-Beck,  R. Olivares-Amaya,  J. A. Parkhill,  T. M. Perrine,  
 F. Plasser,  S. Prager,  A. Prociuk,  D. R. Rehn,  F. Rob,  M. Schneider,  
 N. Sergueev,  S. M. Sharada,  S. Sharma,  D. W. Small,  T. Stauch,  
 T. Stein,  Yu-Chuan Su,  A. J. W. Thom,  T. Tsuchimochi,  L. Vogt,  
 O. Vydrov,  M. A. Watson,  J. Wenzel,  M. de Wergifosse,  T. A. Wesolowski,  
 A. White,  J. Witte,  A. Yamada,  Jun Yang,  K. Yao,  S. Yeganeh,  
 S. R. Yost,  Zhi-Qiang You,  A. Zech,  Igor Ying Zhang,  Xing Zhang,  
 Yan Zhao,  Ying Zhu,  B. R. Brooks,  G. K. L. Chan,  C. J. Cramer,  
 M. S. Gordon,  W. J. Hehre,  A. Klamt,  M. W. Schmidt,  C. D. Sherrill,  
 D. G. Truhlar,  A. Aspuru-Guzik,  R. Baer,  A. T. Bell,  N. A. Besley,  
 Jeng-Da Chai,  A. Dreuw,  B. D. Dunietz,  T. R. Furlani,  Chao-Ping Hsu,  
 Yousung Jung,  Jing Kong,  D. S. Lambrecht,  WanZhen Liang,  C. Ochsenfeld,  
 V. A. Rassolov,  L. V. Slipchenko,  J. E. Subotnik,  T. Van Voorhis,  
 J. M. Herbert,  A. I. Krylov,  P. M. W. Gill,  M. Head-Gordon

 Contributors to earlier versions of Q-Chem not listed above: 
 R. D. Adamson,  B. Austin,  J. Baker,  G. J. O. Beran,  K. Brandhorst,  
 S. T. Brown,  E. F. C. Byrd,  A. K. Chakraborty,  C.-L. Cheng,  
 Siu Hung Chien,  D. M. Chipman,  D. L. Crittenden,  H. Dachsel,  
 R. A. DiStasio Jr.,  R. J. Doerksen,  A. D. Dutoi,  L. Fusti-Molnar,  
 W. A. Goddard III,  A. Golubeva-Zadorozhnaya,  S. R. Gwaltney,  G. Hawkins,  
 A. Heyden,  S. Hirata,  G. Kedziora,  F. J. Keil,  C. Kelley,  Jihan Kim,  
 R. A. King,  R. Z. Khaliullin,  P. P. Korambath,  W. Kurlancheek,  
 A. M. Lee,  M. S. Lee,  S. V. Levchenko,  Ching Yeh Lin,  D. Liotard,  
 R. C. Lochan,  I. Lotan,  P. E. Maslen,  N. Nair,  D. P. O'Neill,  
 D. Neuhauser,  E. Neuscamman,  C. M. Oana,  R. Olson,  B. Peters,  
 R. Peverati,  P. A. Pieniazek,  Y. M. Rhee,  J. Ritchie,  M. A. Rohrdanz,  
 E. Rosta,  N. J. Russ,  H. F. Schaefer III,  N. E. Schultz,  N. Shenvi,  
 A. C. Simmonett,  A. Sodt,  D. Stuck,  K. S. Thanthiriwatte,  V. Vanovschi,  
 Tao Wang,  A. Warshel,  C. F. Williams,  Q. Wu,  X. Xu,  W. Zhang

 Please cite Q-Chem as follows:
 Y. Shao et al., Mol. Phys. 113, 184-215 (2015)
 DOI: 10.1080/00268976.2014.952696

 Q-Chem 5.0.1 for Intel X86 EM64T Linux

 Parts of Q-Chem use Armadillo 5.200.1 (Boston Tea Smuggler).
 http://arma.sourceforge.net/

 Q-Chem begins on Tue Oct 16 21:31:18 2018  

Host: ctcp015
0

     Scratch files written to /scratch/mewes1/137390/qchem226293//
 Parallel job on  1  processors
The previous job contains 0 fragments, simply inherited here
Symmetry turned off for PCM/SM12/SMD calculation

Checking the input file for inconsistencies... 	...done.

--------------------------------------------------------------
User input:
--------------------------------------------------------------
$rem
threads 8
jobtype opt
method PBEh-3c
basis def2-mSVP
mem_static      1024
mem_total       8000
sym_ignore      true
unrestricted true
scf_algorithm	diis
scf_max_cycles	250
solvent_method  pcm
geom_opt_tol_energy 25
geom_opt_tol_gradient 75
$end

$pcm
theory  iefpcm
$end
$solvent
dielectric      4.33
$end

$molecule
read uincoords.mol
$end
--------------------------------------------------------------
 Adding empirical dispersion correction 
 ----------------------------------------------------------------
 Doing -D3(BJ) with
 s6 =   1.00000
 s8 =   0.00000
 a1 =   0.48600
 a2 =   4.50000
 -D3 energy including 3body term =     -0.1219382226 hartrees
 ----------------------------------------------------------------
 Adding gCP correction 
 ----------------------------------------------------------------
 gCP energy =      0.1715584307 hartrees
 ----------------------------------------------------------------
             Standard Nuclear Orientation (Angstroms)
    I     Atom           X                Y                Z
 ----------------------------------------------------------------
    1      C      -4.8334350000    -0.3850560000     4.4882810000
    2      C      -5.4224650000    -0.9579350000     3.3716420000
    3      C      -4.7082080000    -1.0710600000     2.1683440000
    4      C      -3.4034140000    -0.5729260000     2.1168040000
    5      C      -2.8336510000     0.0266340000     3.2367520000
    6      C      -3.5366140000     0.1126220000     4.4272230000
    7      N      -2.9406000000     0.6892230000     5.5720580000
    8      C      -6.8271190000    -1.4881940000     3.4581710000
    9      C      -2.5883150000    -0.6551080000     0.8539380000
   10      C      -1.6817730000     0.2419880000     5.9900400000
   11      C      -0.7702950000     1.1186340000     6.5807160000
   12      C      -4.4768130000     2.5560330000     5.6827980000
   13      C      -3.6800780000     1.6090000000     6.3275850000
   14      C      -5.2500080000     3.4374150000     6.4177590000
   15      C      -5.2318400000     3.4077300000     7.8048440000
   16      C      -4.4336870000     2.4737840000     8.4484710000
   17      C      -3.6709020000     1.5743730000     7.7219720000
   18      C      -1.3089700000    -1.0902280000     5.8032960000
   19      C      -0.0548140000    -1.5271550000     6.1924740000
   20      C       0.8446160000    -0.6573720000     6.7914060000
   21      C       0.4736400000     0.6652630000     6.9853810000
   22      C      -6.7217540000    -1.6689280000    -1.2616040000
   23      C      -6.1422530000    -0.9936720000    -0.1418250000
   24      B      -5.3685620000    -1.7891990000     0.9237230000
   25      C      -5.2431460000    -3.3170720000     0.7783890000
   26      C      -5.8248650000    -3.9903740000    -0.3402190000
   27      B      -6.5742830000    -3.1815690000    -1.3900160000
   28      C      -4.5621480000    -4.0724590000     1.7497150000
   29      C      -4.4539240000    -5.4392980000     1.6350430000
   30      C      -5.0346720000    -6.1060040000     0.5171430000
   31      C      -5.7008830000    -5.3906290000    -0.4442510000
   32      C      -7.4297640000    -0.9218170000    -2.2227580000
   33      C      -7.5689390000     0.4356940000    -2.0918250000
   34      C      -6.9916950000     1.1156750000    -0.9807540000
   35      C      -6.2946350000     0.4007400000    -0.0317030000
   36      C      -3.1185230000    -6.4441440000     3.6563900000
   37      C      -2.6508450000    -7.6732350000     4.1748210000
   38      C      -2.8716460000    -8.8772860000     3.5473160000
   39      C      -3.5940770000    -8.9166720000     2.3309810000
   40      C      -4.0423140000    -7.6914570000     1.8440650000
   41      C      -3.8224790000    -6.4509890000     2.4779420000
   42      C      -3.9114520000   -10.0553970000     1.5513600000
   43      C      -4.6243020000    -9.9139140000     0.3832930000
   44      C      -5.0657980000    -8.6573730000    -0.0880040000
   45      C      -4.7728930000    -7.5366610000     0.6494110000
   46      C      -7.5417900000     4.9073270000    -0.8758700000
   47      C      -7.0439760000     3.6731190000    -0.3987680000
   48      C      -7.3068690000     2.5353420000    -1.1195570000
   49      C      -8.0643620000     2.6625890000    -2.3032830000
   50      C      -8.5699430000     3.8613250000    -2.7961600000
   51      C      -8.2811500000     5.0168770000    -2.0311990000
   52      C      -8.2511720000     1.4138950000    -2.9281400000
   53      C      -8.9754700000     1.3606870000    -4.0928400000
   54      C      -9.5005980000     2.5628280000    -4.6151740000
   55      C      -9.3121270000     3.7791940000    -3.9997160000
   56      C      -9.1838500000    -4.9380970000    -3.6426250000
   57      C      -8.5786250000    -4.3655550000    -2.5542530000
   58      C      -7.2297660000    -3.9130430000    -2.6303480000
   59      C      -6.5139680000    -4.1032650000    -3.8401980000
   60      C      -7.1323660000    -4.6690950000    -4.9293410000
   61      C      -8.4770550000    -5.0839110000    -4.8559310000
   62      N      -9.0953110000    -5.6133940000    -5.9564670000
   63      C      -9.3441270000    -4.1724610000    -1.2838240000
   64      C      -5.0738230000    -3.6998770000    -3.9559100000
   65      C      -8.6898810000    -5.2586560000    -7.2604600000
   66      C      -8.4814960000    -3.9198960000    -7.5864440000
   67      C     -11.3017260000    -6.3549880000    -6.6293330000
   68      C     -10.1702430000    -6.5173730000    -5.8321090000
   69      C     -12.3442260000    -7.2570630000    -6.5258600000
   70      C     -12.2652780000    -8.3203730000    -5.6362970000
   71      C     -11.1348270000    -8.4813760000    -4.8477760000
   72      C     -10.0830990000    -7.5876210000    -4.9438570000
   73      C      -8.5370990000    -6.2509340000    -8.2266060000
   74      C      -8.1603740000    -5.9007240000    -9.5098100000
   75      C      -7.9398410000    -4.5691300000    -9.8366800000
   76      C      -8.1025580000    -3.5829860000    -8.8739290000
   77      H      -5.3879430000    -0.3224970000     5.4175780000
   78      H      -1.8237180000     0.4180340000     3.1835910000
   79      H      -6.8588500000    -2.5644030000     3.2753410000
   80      H      -7.4717770000    -1.0240180000     2.7092210000
   81      H      -7.2671010000    -1.3027760000     4.4378830000
   82      H      -3.1004950000    -1.2097090000     0.0687510000
   83      H      -1.6314720000    -1.1488950000     1.0322140000
   84      H      -2.3705280000     0.3387710000     0.4579900000
   85      H      -1.0385900000     2.1580380000     6.7179730000
   86      H      -4.4973100000     2.5873870000     4.6011120000
   87      H      -5.8668920000     4.1597180000     5.8986060000
   88      H      -5.8351970000     4.1005440000     8.3759070000
   89      H      -4.4167610000     2.4283220000     9.5298390000
   90      H      -3.0716890000     0.8343910000     8.2363220000
   91      H      -2.0042260000    -1.7822050000     5.3465030000
   92      H       0.2153730000    -2.5636000000     6.0350240000
   93      H       1.8215790000    -1.0048000000     7.0994610000
   94      H       1.1662850000     1.3607270000     7.4417260000
   95      H      -4.1218610000    -3.5616410000     2.5988820000
   96      H      -6.1376940000    -5.9149500000    -1.2894730000
   97      H      -7.8753650000    -1.4219440000    -3.0776660000
   98      H      -5.8547460000     0.9087560000     0.8200660000
   99      H      -2.9161910000    -5.5259850000     4.1929460000
  100      H      -2.0964150000    -7.6629360000     5.1044810000
  101      H      -2.4928150000    -9.7939190000     3.9827850000
  102      H      -3.5929900000   -11.0395090000     1.8734350000
  103      H      -4.8561880000   -10.7966930000    -0.1996440000
  104      H      -5.6212940000    -8.6020440000    -1.0164400000
  105      H      -7.3307180000     5.8018890000    -0.3040740000
  106      H      -6.4695960000     3.6448420000     0.5184460000
  107      H      -8.6410890000     5.9859570000    -2.3540450000
  108      H      -9.1525000000     0.4267690000    -4.6128220000
  109      H     -10.0734210000     2.5238110000    -5.5333530000
  110      H      -9.7348060000     4.6753310000    -4.4373380000
  111      H     -10.2263790000    -5.2252760000    -3.5935700000
  112      H      -6.5726670000    -4.8342330000    -5.8416020000
  113      H     -10.3568230000    -4.5670560000    -1.3577160000
  114      H      -9.4030310000    -3.1147250000    -1.0258060000
  115      H      -8.8394810000    -4.6676290000    -0.4536120000
  116      H      -4.9428980000    -2.9508120000    -4.7379610000
  117      H      -4.4508370000    -4.5571560000    -4.2147430000
  118      H      -4.6933120000    -3.2814850000    -3.0289060000
  119      H      -8.6349570000    -3.1502070000    -6.8415100000
  120      H     -11.3685070000    -5.5201860000    -7.3145320000
  121      H     -13.2265290000    -7.1245940000    -7.1367940000
  122      H     -13.0827800000    -9.0240890000    -5.5602200000
  123      H     -11.0640500000    -9.3156650000    -4.1637250000
  124      H      -9.1907660000    -7.7272960000    -4.3479210000
  125      H      -8.7006570000    -7.2889950000    -7.9687860000
  126      H      -8.0303680000    -6.6717980000   -10.2567520000
  127      H      -7.6460460000    -4.3007220000   -10.8421060000
  128      H      -7.9467520000    -2.5438490000    -9.1282950000
 ----------------------------------------------------------------
 Nuclear Repulsion Energy = 10762.5120705857 hartrees
 There are      255 alpha and      253 beta electrons
 Requested basis set is def2-mSVP
 There are 636 shells and 1244 basis functions

 Total QAlloc Memory Limit   8000 MB
 Mega-Array Size      1001 MB
 MEM_STATIC part      1024 MB
 Discretize the solute cavity surface with Lebedev spheres
	Using 302 Lebedev grid points for each H atom
	Using 302 Lebedev grid points for other atoms
	Atomic van der Waals radii will be scaled by 1.20
 Remove points where switching function is < 1.0e-08
 Keep 13448 surface tesserae and discard 25208 interior tesserae
 Molecular Surface Area = 1017.873 Angst**2
 A cutoff of  1.0D-11 yielded  54226 shell pairs
 There are    214710 function pairs (    236627 Cartesian)
 
 -------------------------------------------------------
 OpenMP Integral Computing Module                       
 Release: version 1.0, May 2013, Q-Chem Inc. Pittsburgh 
 -------------------------------------------------------
 Integral Job Info:
 Integral job number is                      11
 Integral operator is                         1
 short-range coefficients                     0
 long-range coefficients              100000000
 Omega coefficients                           0
 if combine SR and LR in K                    0
 Integral screening is                        0
 Integral computing path is                   2
 max size of driver memory is            800000
 size of driver memory is                593474
 size of scratch memory is              1809772
 max col of scratch BK array               1296
 max len of scratch array in speh3          155
 max len of scratch index in speh4           18
 max int batch size is                      520
 min int batch size is                       52
 fixed nKL is                                52
 max L of basis functions is                  2
 order of int derivative is                   0
 number of shells is                        636
 number of basis is                        1320
 number of cartesian basis is              1320
 number of contracted shell pairs         54226
 number of primitive shell pairs         113402
 maxK2 (contraction) of shell pair           25
 max number of K2 of shell pair               1
 max number of CS2 of shell pair          13091
 max number of PS2 of shell pair          20025
 mem total for path MDJ                  557848
 -------------------------------------------------------
 Smallest overlap matrix eigenvalue = 1.98E-04

 Scale SEOQF with 1.000000e-02/1.000000e-02/1.000000e-02

 Standard Electronic Orientation quadrupole field applied
 Nucleus-field energy     =     0.0000000441 hartrees
 Guess from superposition of atomic densities
 Warning:  Energy on first SCF cycle will be non-variational
 An unrestricted hybrid HF-DFT SCF calculation will be
 performed using Pulay DIIS extrapolation
 Polarizable Continuum solvation model will be applied
 Exchange:     0.4200 Hartree-Fock + 0.5800 PBEh-3c
 Correlation:  1.0000 PBEh-3c
 Using SG-1 standard quadrature grid
 Dispersion:   Grimme D3
 SCF converges when DIIS error is below 1.0E-08
 using 8 threads for integral computing
 -------------------------------------------------------
 OpenMP Integral computing Module                
 Release: version 1.0, May 2013, Q-Chem Inc. Pittsburgh 
 -------------------------------------------------------
 ---------------------------------------
  Cycle       Energy         DIIS Error
 ---------------------------------------
    1   -2953.9484577816      2.40E-02
 Using non-symmetric K matrix
    2   -2927.1476528198      1.71E-03
    3   -2927.0184336423      1.90E-03
    4   -2927.6774010767      7.73E-04
    5   -2927.8168526261      1.32E-04
    6   -2927.8199144664      9.66E-05
    7   -2927.8222991522      2.51E-05
    8   -2927.8226262466      9.32E-06
    9   -2927.8228035326      4.15E-06
   10   -2927.8228984767      2.81E-06
   11   -2927.8229529022      1.21E-06
   12   -2927.8229758878      7.42E-07
   13   -2927.8229847118      4.62E-07
   14   -2927.8229903707      3.11E-07
   15   -2927.8229923251      1.35E-07
   16   -2927.8229936551      1.07E-07
   17   -2927.8229942006      7.07E-08
   18   -2927.8229947152      4.99E-08
   19   -2927.8229949049      2.22E-08
   20   -2927.8229949546      1.07E-08
   21   -2927.8229949667      8.78E-09 Convergence criterion met
 ---------------------------------------

************** Final PCM Free Energy Summary **************
 G_electrostatic  =      -0.04820968 hartree =     -30.25203006 kcal/mol
 G_cavitation     =       0.00000000 hartree =       0.00000000 kcal/mol
 G_dispersion     =       0.00000000 hartree =       0.00000000 kcal/mol
 G_repulsion      =       0.00000000 hartree =       0.00000000 kcal/mol
 --------------------------------------------------
 Non-electrostatic Free Energy =       0.00000000 hartree =       0.00000000 kcal/mol
 Total                         =      -0.04820968 hartree =     -30.25203006 kcal/mol
 --------------------------------------------------
 SCF Energy (H0 + V/2)                       =   -2927.82299497 
 Solute Internal Energy (H0)                 =   -2927.77478529 
 Total Free Energy (H0 + V/2 + non-elec)     =   -2927.82299497 hartree
                                             = -1837236.65875321 kcal/mol
***********************************************************

 <S^2> = 2.0739
 SCF time:  CPU 17511.62 s  wall 4291.14 s
 SCF   energy in the final basis set = -2927.82299497
 Total energy in the final basis set = -2927.82299497
 
 --------------------------------------------------------------
 
                    Orbital Energies (a.u.)
 --------------------------------------------------------------
 
 Alpha MOs
 -- Occupied --
-14.769 -14.663 -10.541 -10.530 -10.529 -10.486 -10.486 -10.485
-10.485 -10.484 -10.484 -10.480 -10.480 -10.479 -10.478 -10.478
-10.477 -10.475 -10.475 -10.475 -10.475 -10.472 -10.465 -10.453
-10.453 -10.450 -10.450 -10.449 -10.449 -10.448 -10.448 -10.448
-10.448 -10.448 -10.448 -10.447 -10.447 -10.447 -10.447 -10.446
-10.446 -10.443 -10.443 -10.442 -10.442 -10.439 -10.439 -10.439
-10.439 -10.439 -10.439 -10.438 -10.438 -10.438 -10.438 -10.437
-10.436 -10.435 -10.435 -10.435 -10.435 -10.433 -10.433 -10.432
-10.431 -10.425 -10.424 -10.413 -10.413 -10.410 -10.409 -10.406
-10.406 -10.405  -6.902  -6.899  -1.158  -1.074  -1.001  -1.001
 -0.999  -0.998  -0.976  -0.956  -0.951  -0.943  -0.941  -0.931
 -0.921  -0.920  -0.903  -0.899  -0.888  -0.887  -0.881  -0.873
 -0.872  -0.860  -0.850  -0.846  -0.840  -0.837  -0.836  -0.834
 -0.834  -0.832  -0.831  -0.804  -0.799  -0.796  -0.793  -0.792
 -0.786  -0.785  -0.755  -0.752  -0.751  -0.742  -0.719  -0.718
 -0.716  -0.713  -0.711  -0.704  -0.700  -0.698  -0.675  -0.675
 -0.674  -0.671  -0.669  -0.664  -0.658  -0.648  -0.640  -0.633
 -0.632  -0.629  -0.628  -0.626  -0.600  -0.598  -0.586  -0.586
 -0.583  -0.581  -0.579  -0.578  -0.574  -0.568  -0.560  -0.560
 -0.556  -0.554  -0.553  -0.545  -0.542  -0.534  -0.529  -0.528
 -0.527  -0.526  -0.518  -0.514  -0.514  -0.513  -0.512  -0.506
 -0.502  -0.501  -0.495  -0.491  -0.491  -0.490  -0.488  -0.486
 -0.482  -0.479  -0.477  -0.476  -0.475  -0.475  -0.473  -0.472
 -0.472  -0.471  -0.468  -0.465  -0.464  -0.460  -0.458  -0.453
 -0.452  -0.451  -0.451  -0.450  -0.448  -0.445  -0.444  -0.440
 -0.436  -0.435  -0.431  -0.429  -0.428  -0.427  -0.425  -0.421
 -0.419  -0.416  -0.412  -0.411  -0.409  -0.407  -0.406  -0.399
 -0.397  -0.395  -0.392  -0.389  -0.386  -0.385  -0.384  -0.381
 -0.378  -0.374  -0.372  -0.358  -0.357  -0.352  -0.350  -0.341
 -0.336  -0.335  -0.333  -0.325  -0.321  -0.314  -0.311  -0.309
 -0.302  -0.298  -0.295  -0.290  -0.288  -0.286  -0.274  -0.271
 -0.271  -0.263  -0.254  -0.243  -0.240  -0.214  -0.149
 -- Virtual --
 -0.056  -0.031  -0.030  -0.028  -0.024  -0.022  -0.004   0.002
  0.008   0.010   0.012   0.016   0.018   0.020   0.031   0.032
  0.042   0.053   0.065   0.081   0.097   0.101   0.102   0.119
  0.126   0.133   0.133   0.145   0.149   0.150   0.156   0.156
  0.157   0.159   0.164   0.172   0.173   0.175   0.177   0.179
  0.180   0.181   0.183   0.184   0.185   0.188   0.190   0.191
  0.193   0.195   0.198   0.199   0.200   0.205   0.209   0.209
  0.211   0.212   0.212   0.214   0.217   0.218   0.218   0.219
  0.220   0.223   0.224   0.225   0.229   0.230   0.230   0.232
  0.234   0.235   0.237   0.242   0.242   0.244   0.245   0.245
  0.247   0.247   0.248   0.253   0.255   0.260   0.261   0.262
  0.262   0.264   0.265   0.266   0.271   0.272   0.280   0.281
  0.282   0.286   0.290   0.294   0.295   0.298   0.299   0.300
  0.301   0.304   0.305   0.307   0.309   0.310   0.312   0.314
  0.318   0.321   0.321   0.325   0.326   0.326   0.333   0.334
  0.335   0.339   0.340   0.341   0.342   0.346   0.350   0.356
  0.362   0.364   0.365   0.372   0.378   0.379   0.381   0.386
  0.388   0.392   0.401   0.408   0.414   0.415   0.418   0.421
  0.428   0.429   0.430   0.433   0.438   0.442   0.452   0.453
  0.458   0.460   0.466   0.470   0.471   0.476   0.478   0.482
  0.484   0.486   0.493   0.496   0.499   0.502   0.505   0.507
  0.508   0.511   0.514   0.517   0.524   0.526   0.529   0.532
  0.533   0.534   0.536   0.536   0.538   0.541   0.542   0.543
  0.544   0.546   0.549   0.550   0.551   0.553   0.556   0.558
  0.561   0.563   0.566   0.567   0.569   0.569   0.570   0.573
  0.575   0.575   0.576   0.578   0.581   0.582   0.584   0.585
  0.586   0.588   0.591   0.592   0.593   0.594   0.596   0.597
  0.598   0.599   0.600   0.602   0.603   0.603   0.604   0.605
  0.608   0.610   0.611   0.613   0.613   0.614   0.616   0.616
  0.618   0.619   0.622   0.623   0.625   0.626   0.628   0.628
  0.630   0.630   0.632   0.632   0.633   0.634   0.635   0.637
  0.639   0.641   0.642   0.644   0.649   0.650   0.653   0.656
  0.657   0.659   0.662   0.663   0.664   0.664   0.665   0.667
  0.668   0.671   0.672   0.672   0.675   0.678   0.680   0.684
  0.685   0.690   0.693   0.696   0.697   0.699   0.700   0.703
  0.706   0.711   0.713   0.714   0.717   0.718   0.720   0.722
  0.727   0.732   0.735   0.739   0.743   0.744   0.747   0.748
  0.751   0.752   0.755   0.759   0.762   0.766   0.769   0.770
  0.771   0.774   0.777   0.781   0.784   0.786   0.790   0.792
  0.793   0.794   0.799   0.802   0.804   0.807   0.813   0.815
  0.820   0.828   0.837   0.841   0.842   0.845   0.846   0.854
  0.863   0.866   0.869   0.870   0.877   0.884   0.889   0.896
  0.904   0.910   0.914   0.917   0.918   0.921   0.922   0.922
  0.926   0.927   0.931   0.933   0.934   0.938   0.942   0.944
  0.945   0.948   0.951   0.953   0.957   0.958   0.961   0.963
  0.965   0.966   0.968   0.969   0.970   0.974   0.977   0.981
  0.981   0.985   0.985   0.987   0.992   0.996   0.998   0.999
  0.999   1.000   1.003   1.008   1.009   1.011   1.013   1.017
  1.018   1.019   1.021   1.022   1.027   1.029   1.031   1.033
  1.034   1.038   1.041   1.046   1.049   1.050   1.051   1.052
  1.054   1.055   1.057   1.058   1.061   1.062   1.063   1.064
  1.074   1.074   1.076   1.079   1.082   1.082   1.085   1.087
  1.090   1.094   1.097   1.099   1.104   1.107   1.109   1.110
  1.117   1.119   1.121   1.124   1.128   1.134   1.135   1.138
  1.140   1.143   1.144   1.148   1.154   1.154   1.155   1.157
  1.162   1.168   1.169   1.169   1.171   1.177   1.179   1.181
  1.188   1.190   1.195   1.199   1.199   1.206   1.212   1.214
  1.218   1.222   1.223   1.224   1.232   1.236   1.240   1.246
  1.252   1.258   1.262   1.266   1.267   1.272   1.277   1.278
  1.280   1.282   1.283   1.290   1.292   1.295   1.299   1.300
  1.307   1.309   1.311   1.312   1.313   1.316   1.319   1.323
  1.324   1.328   1.335   1.337   1.340   1.344   1.355   1.359
  1.360   1.362   1.367   1.370   1.375   1.380   1.386   1.388
  1.390   1.392   1.392   1.399   1.407   1.409   1.415   1.418
  1.420   1.422   1.433   1.437   1.440   1.447   1.450   1.453
  1.453   1.456   1.457   1.458   1.472   1.478   1.482   1.486
  1.486   1.487   1.493   1.496   1.503   1.507   1.511   1.512
  1.515   1.519   1.523   1.524   1.524   1.526   1.529   1.530
  1.530   1.535   1.538   1.541   1.542   1.543   1.544   1.544
  1.546   1.552   1.553   1.556   1.559   1.562   1.565   1.568
  1.570   1.571   1.573   1.575   1.576   1.577   1.580   1.583
  1.589   1.593   1.599   1.603   1.611   1.615   1.620   1.623
  1.627   1.647   1.657   1.666   1.672   1.686   1.697   1.702
  1.706   1.712   1.715   1.716   1.732   1.740   1.747   1.760
  1.761   1.766   1.781   1.786   1.796   1.804   1.806   1.811
  1.820   1.822   1.822   1.824   1.825   1.826   1.827   1.829
  1.830   1.831   1.843   1.846   1.857   1.859   1.861   1.863
  1.868   1.873   1.875   1.878   1.889   1.896   1.898   1.899
  1.908   1.915   1.917   1.922   1.922   1.926   1.930   1.930
  1.933   1.934   1.941   1.943   1.944   1.951   1.952   1.959
  1.959   1.967   1.974   1.978   1.979   1.988   1.989   1.994
  1.996   1.997   2.000   2.003   2.012   2.015   2.019   2.029
  2.029   2.039   2.040   2.044   2.047   2.050   2.053   2.061
  2.063   2.066   2.074   2.076   2.081   2.084   2.086   2.089
  2.100   2.102   2.107   2.115   2.123   2.124   2.127   2.132
  2.140   2.151   2.154   2.155   2.157   2.159   2.161   2.164
  2.166   2.172   2.173   2.175   2.182   2.184   2.188   2.191
  2.195   2.196   2.198   2.201   2.206   2.208   2.211   2.212
  2.213   2.216   2.216   2.219   2.219   2.229   2.232   2.239
  2.242   2.244   2.245   2.246   2.250   2.255   2.258   2.263
  2.265   2.272   2.272   2.275   2.277   2.285   2.290   2.293
  2.294   2.297   2.301   2.302   2.304   2.319   2.320   2.326
  2.328   2.334   2.335   2.340   2.343   2.345   2.354   2.354
  2.357   2.360   2.364   2.365   2.366   2.372   2.372   2.373
  2.375   2.376   2.380   2.386   2.387   2.392   2.395   2.400
  2.401   2.406   2.409   2.414   2.419   2.420   2.421   2.426
  2.430   2.434   2.437   2.441   2.444   2.445   2.453   2.458
  2.461   2.468   2.472   2.478   2.480   2.483   2.488   2.490
  2.505   2.514   2.515   2.519   2.527   2.530   2.544   2.558
  2.575   2.586   2.587   2.591   2.597   2.611   2.615   2.623
  2.626   2.639   2.642   2.644   2.653   2.653   2.656   2.657
  2.658   2.662   2.681   2.689   2.696   2.696   2.697   2.699
  2.704   2.708   2.721   2.723   2.723   2.739   2.740   2.742
  2.744   2.744   2.748   2.753   2.758   2.760   2.763   2.765
  2.766   2.770   2.772   2.788   2.790   2.792   2.795   2.797
  2.801   2.802   2.803   2.804   2.804   2.817   2.819   2.822
  2.823   2.824   2.825   2.827   2.832   2.838   2.844   2.858
  2.865   2.869   2.872   2.873   2.876   2.878   2.885   2.889
  2.901   2.909   2.915   2.917   2.920   2.938   2.941   2.946
  2.960   2.962   2.969   2.970   2.994   3.011   3.014   3.017
  3.019   3.034   3.035   3.039   3.057   3.081   3.087   3.095
  3.101   3.110   3.154   3.161   3.252   3.266   3.273   3.275
  3.311   3.333   3.338   3.421   3.445   3.463   3.470   3.480
  3.490   3.505   3.506   3.511   3.513   3.520   3.565   3.683
  3.694   9.636   9.777  13.158  13.190  13.216  13.252  13.254
 13.280  13.420  13.519  13.524  13.537  13.538  13.565  13.636
 13.653  13.680  13.682  13.685  13.686  13.693  13.710  13.717
 13.746  13.758  13.807  13.808  13.818  13.853  13.876  13.899
 13.909  13.915  13.927  13.938  14.002  14.027  14.040  14.047
 14.053  14.120  14.127  14.144  14.145  14.148  14.153  14.160
 14.172  14.175  14.182  14.186  14.191  14.198  14.219  14.223
 14.251  14.282  14.287  14.327  14.329  14.353  14.365  14.523
 14.529  14.533  14.549  14.554  14.582  14.588  14.589  14.590
 14.594  14.595  14.614  19.592  19.693
 
 Beta MOs
 -- Occupied --
-14.759 -14.663 -10.541 -10.531 -10.531 -10.486 -10.486 -10.484
-10.483 -10.483 -10.483 -10.482 -10.481 -10.477 -10.476 -10.476
-10.476 -10.476 -10.476 -10.476 -10.475 -10.472 -10.460 -10.454
-10.453 -10.450 -10.449 -10.449 -10.449 -10.449 -10.449 -10.449
-10.448 -10.447 -10.447 -10.447 -10.447 -10.446 -10.446 -10.445
-10.445 -10.443 -10.443 -10.442 -10.442 -10.439 -10.439 -10.439
-10.439 -10.439 -10.438 -10.438 -10.438 -10.437 -10.437 -10.437
-10.436 -10.435 -10.435 -10.435 -10.435 -10.433 -10.433 -10.433
-10.432 -10.425 -10.424 -10.413 -10.413 -10.409 -10.409 -10.405
-10.405 -10.405  -6.899  -6.897  -1.142  -1.074  -1.001  -1.000
 -0.996  -0.994  -0.971  -0.956  -0.951  -0.942  -0.940  -0.931
 -0.920  -0.920  -0.902  -0.895  -0.887  -0.885  -0.881  -0.871
 -0.870  -0.860  -0.850  -0.846  -0.837  -0.836  -0.833  -0.833
 -0.832  -0.831  -0.829  -0.801  -0.798  -0.795  -0.791  -0.788
 -0.783  -0.781  -0.754  -0.751  -0.746  -0.739  -0.717  -0.716
 -0.714  -0.712  -0.709  -0.703  -0.700  -0.698  -0.675  -0.674
 -0.672  -0.669  -0.668  -0.663  -0.654  -0.646  -0.638  -0.633
 -0.632  -0.628  -0.628  -0.624  -0.600  -0.595  -0.583  -0.583
 -0.579  -0.578  -0.578  -0.572  -0.571  -0.568  -0.559  -0.559
 -0.554  -0.554  -0.551  -0.544  -0.542  -0.534  -0.528  -0.526
 -0.526  -0.524  -0.516  -0.514  -0.513  -0.512  -0.512  -0.505
 -0.501  -0.496  -0.492  -0.490  -0.490  -0.489  -0.487  -0.485
 -0.479  -0.477  -0.476  -0.476  -0.474  -0.473  -0.471  -0.471
 -0.470  -0.467  -0.467  -0.465  -0.460  -0.459  -0.458  -0.452
 -0.452  -0.450  -0.450  -0.448  -0.446  -0.442  -0.442  -0.438
 -0.435  -0.433  -0.429  -0.428  -0.427  -0.427  -0.424  -0.421
 -0.417  -0.415  -0.410  -0.409  -0.406  -0.406  -0.404  -0.398
 -0.395  -0.392  -0.389  -0.384  -0.383  -0.383  -0.381  -0.377
 -0.376  -0.372  -0.370  -0.355  -0.350  -0.348  -0.347  -0.335
 -0.334  -0.328  -0.326  -0.322  -0.319  -0.304  -0.302  -0.298
 -0.298  -0.297  -0.295  -0.290  -0.284  -0.283  -0.273  -0.263
 -0.260  -0.246  -0.241  -0.233  -0.214
 -- Virtual --
 -0.157  -0.066  -0.043  -0.026  -0.022  -0.017  -0.015  -0.009
  0.000   0.009   0.010   0.012   0.013   0.018   0.020   0.032
  0.032   0.038   0.042   0.064   0.066   0.088   0.098   0.109
  0.112   0.121   0.128   0.137   0.138   0.149   0.151   0.153
  0.156   0.157   0.158   0.159   0.165   0.172   0.174   0.175
  0.179   0.180   0.182   0.184   0.184   0.186   0.189   0.190
  0.191   0.192   0.193   0.196   0.198   0.199   0.202   0.206
  0.210   0.210   0.211   0.212   0.213   0.214   0.218   0.219
  0.219   0.220   0.222   0.223   0.225   0.226   0.230   0.231
  0.231   0.233   0.235   0.236   0.238   0.243   0.244   0.245
  0.246   0.247   0.248   0.248   0.253   0.255   0.257   0.260
  0.262   0.263   0.263   0.265   0.266   0.268   0.273   0.274
  0.281   0.282   0.282   0.288   0.292   0.294   0.297   0.299
  0.300   0.302   0.302   0.305   0.306   0.308   0.310   0.312
  0.313   0.317   0.319   0.322   0.322   0.325   0.327   0.327
  0.334   0.335   0.336   0.339   0.341   0.341   0.345   0.347
  0.353   0.359   0.363   0.364   0.367   0.374   0.378   0.381
  0.384   0.388   0.394   0.395   0.402   0.410   0.416   0.417
  0.420   0.422   0.428   0.432   0.432   0.436   0.440   0.444
  0.453   0.456   0.458   0.463   0.467   0.471   0.473   0.478
  0.479   0.486   0.486   0.490   0.497   0.498   0.502   0.504
  0.507   0.509   0.511   0.513   0.517   0.519   0.528   0.529
  0.530   0.534   0.535   0.535   0.538   0.539   0.541   0.542
  0.543   0.544   0.546   0.548   0.550   0.552   0.553   0.555
  0.557   0.560   0.563   0.564   0.567   0.569   0.570   0.570
  0.571   0.573   0.575   0.577   0.577   0.579   0.582   0.583
  0.585   0.586   0.587   0.588   0.592   0.593   0.595   0.596
  0.597   0.599   0.600   0.601   0.601   0.603   0.603   0.605
  0.605   0.606   0.609   0.610   0.613   0.614   0.614   0.615
  0.616   0.618   0.620   0.620   0.623   0.624   0.626   0.627
  0.629   0.630   0.631   0.632   0.632   0.633   0.634   0.634
  0.637   0.638   0.639   0.642   0.644   0.646   0.650   0.651
  0.655   0.656   0.659   0.661   0.664   0.664   0.665   0.666
  0.667   0.669   0.670   0.672   0.673   0.674   0.676   0.679
  0.682   0.684   0.687   0.691   0.694   0.697   0.697   0.700
  0.700   0.704   0.706   0.711   0.713   0.715   0.718   0.718
  0.720   0.722   0.727   0.734   0.737   0.740   0.744   0.745
  0.748   0.749   0.753   0.754   0.756   0.760   0.764   0.767
  0.770   0.771   0.772   0.775   0.778   0.782   0.785   0.786
  0.791   0.794   0.795   0.796   0.802   0.805   0.806   0.809
  0.814   0.816   0.822   0.831   0.839   0.842   0.843   0.847
  0.848   0.855   0.863   0.868   0.872   0.874   0.880   0.888
  0.893   0.897   0.906   0.911   0.915   0.919   0.919   0.923
  0.923   0.924   0.927   0.928   0.932   0.934   0.936   0.938
  0.943   0.945   0.946   0.950   0.951   0.953   0.957   0.958
  0.961   0.964   0.965   0.966   0.968   0.969   0.970   0.975
  0.978   0.981   0.982   0.985   0.986   0.987   0.992   0.996
  0.998   0.999   1.000   1.001   1.004   1.009   1.010   1.012
  1.014   1.017   1.018   1.019   1.021   1.023   1.027   1.030
  1.031   1.033   1.035   1.039   1.042   1.047   1.049   1.050
  1.052   1.053   1.055   1.056   1.058   1.059   1.062   1.063
  1.064   1.065   1.075   1.075   1.076   1.079   1.082   1.082
  1.086   1.087   1.090   1.095   1.097   1.099   1.104   1.109
  1.109   1.111   1.118   1.120   1.121   1.124   1.128   1.134
  1.136   1.138   1.141   1.143   1.145   1.148   1.154   1.155
  1.156   1.159   1.162   1.170   1.170   1.171   1.173   1.178
  1.181   1.182   1.190   1.192   1.196   1.199   1.200   1.208
  1.213   1.215   1.219   1.223   1.224   1.226   1.234   1.238
  1.241   1.249   1.253   1.260   1.263   1.266   1.268   1.275
  1.278   1.280   1.281   1.283   1.284   1.291   1.293   1.297
  1.301   1.303   1.308   1.311   1.312   1.313   1.314   1.319
  1.320   1.324   1.325   1.329   1.338   1.340   1.341   1.345
  1.356   1.359   1.362   1.364   1.371   1.373   1.377   1.382
  1.388   1.391   1.393   1.394   1.394   1.401   1.409   1.410
  1.417   1.420   1.422   1.424   1.434   1.438   1.441   1.449
  1.451   1.454   1.454   1.457   1.458   1.458   1.473   1.481
  1.485   1.486   1.489   1.490   1.494   1.497   1.507   1.511
  1.512   1.515   1.517   1.522   1.524   1.524   1.525   1.529
  1.531   1.531   1.531   1.536   1.539   1.543   1.543   1.545
  1.545   1.545   1.548   1.553   1.553   1.557   1.560   1.562
  1.567   1.569   1.570   1.573   1.574   1.576   1.576   1.578
  1.581   1.584   1.590   1.595   1.601   1.604   1.612   1.616
  1.621   1.624   1.629   1.649   1.659   1.668   1.673   1.691
  1.700   1.705   1.709   1.716   1.719   1.721   1.736   1.744
  1.747   1.760   1.761   1.767   1.786   1.787   1.798   1.806
  1.808   1.812   1.820   1.824   1.824   1.825   1.827   1.828
  1.830   1.831   1.832   1.832   1.844   1.849   1.858   1.860
  1.863   1.865   1.872   1.874   1.879   1.882   1.889   1.898
  1.900   1.900   1.910   1.917   1.918   1.922   1.924   1.930
  1.932   1.933   1.936   1.937   1.942   1.947   1.949   1.954
  1.955   1.960   1.963   1.970   1.975   1.979   1.983   1.989
  1.990   1.996   1.997   1.998   2.003   2.004   2.012   2.016
  2.021   2.030   2.031   2.040   2.041   2.046   2.048   2.053
  2.058   2.064   2.065   2.067   2.075   2.077   2.081   2.085
  2.087   2.090   2.100   2.103   2.109   2.116   2.124   2.125
  2.127   2.132   2.141   2.151   2.155   2.157   2.157   2.160
  2.163   2.166   2.168   2.173   2.174   2.177   2.184   2.185
  2.190   2.193   2.196   2.197   2.200   2.202   2.206   2.209
  2.212   2.213   2.214   2.215   2.217   2.220   2.221   2.229
  2.232   2.241   2.243   2.244   2.247   2.249   2.252   2.257
  2.260   2.264   2.265   2.273   2.274   2.276   2.280   2.288
  2.293   2.296   2.296   2.298   2.304   2.305   2.306   2.319
  2.323   2.327   2.332   2.335   2.337   2.342   2.345   2.347
  2.356   2.356   2.359   2.362   2.365   2.366   2.367   2.373
  2.373   2.374   2.377   2.377   2.381   2.387   2.389   2.392
  2.396   2.401   2.402   2.407   2.411   2.417   2.421   2.422
  2.423   2.429   2.432   2.435   2.439   2.442   2.447   2.449
  2.453   2.460   2.462   2.470   2.477   2.479   2.481   2.485
  2.490   2.491   2.507   2.515   2.516   2.521   2.530   2.532
  2.546   2.561   2.577   2.587   2.589   2.597   2.600   2.614
  2.615   2.625   2.628   2.641   2.644   2.646   2.653   2.654
  2.657   2.659   2.660   2.662   2.682   2.689   2.696   2.697
  2.700   2.700   2.706   2.712   2.722   2.723   2.724   2.740
  2.741   2.742   2.745   2.746   2.750   2.756   2.759   2.761
  2.763   2.766   2.768   2.770   2.773   2.789   2.791   2.793
  2.795   2.799   2.801   2.803   2.804   2.804   2.805   2.817
  2.819   2.822   2.823   2.825   2.826   2.828   2.832   2.838
  2.846   2.858   2.865   2.871   2.873   2.874   2.877   2.879
  2.887   2.890   2.902   2.910   2.916   2.919   2.921   2.938
  2.941   2.947   2.961   2.964   2.971   2.971   2.994   3.013
  3.015   3.018   3.020   3.034   3.036   3.040   3.060   3.084
  3.088   3.095   3.102   3.112   3.155   3.161   3.253   3.268
  3.274   3.275   3.314   3.333   3.338   3.421   3.445   3.464
  3.471   3.481   3.490   3.505   3.506   3.512   3.513   3.520
  3.565   3.683   3.694   9.641   9.781  13.158  13.190  13.216
 13.252  13.255  13.280  13.421  13.520  13.524  13.537  13.538
 13.565  13.636  13.653  13.680  13.682  13.685  13.687  13.693
 13.710  13.717  13.746  13.758  13.807  13.808  13.818  13.854
 13.876  13.899  13.909  13.915  13.927  13.939  14.003  14.028
 14.041  14.048  14.054  14.121  14.127  14.144  14.145  14.148
 14.153  14.160  14.174  14.175  14.184  14.186  14.191  14.198
 14.218  14.224  14.252  14.282  14.287  14.327  14.329  14.354
 14.366  14.524  14.530  14.535  14.549  14.554  14.583  14.588
 14.589  14.590  14.594  14.595  14.614  19.605  19.693
 --------------------------------------------------------------
 
          Ground-State Mulliken Net Atomic Charges

     Atom                 Charge (a.u.)    Spin (a.u.)
  --------------------------------------------------------
      1 C                    -0.364174      -0.000759
      2 C                     0.044693       0.003251
      3 C                    -0.187541      -0.024465
      4 C                     0.017368       0.002891
      5 C                    -0.343724      -0.000955
      6 C                     0.275344       0.000674
      7 N                    -0.670572       0.000008
      8 C                    -0.760980       0.000464
      9 C                    -0.758250       0.004351
     10 C                     0.309163      -0.000016
     11 C                    -0.300261       0.000032
     12 C                    -0.295554       0.000029
     13 C                     0.301034      -0.000016
     14 C                    -0.234228      -0.000024
     15 C                    -0.263386       0.000034
     16 C                    -0.236511      -0.000024
     17 C                    -0.299673       0.000030
     18 C                    -0.302386       0.000033
     19 C                    -0.234535      -0.000026
     20 C                    -0.264844       0.000035
     21 C                    -0.235905      -0.000025
     22 C                    -0.130224       0.020369
     23 C                    -0.141419       0.062043
     24 B                     0.558184       0.275274
     25 C                    -0.143118       0.063171
     26 C                    -0.133160       0.017957
     27 B                     0.534790       0.332624
     28 C                    -0.408520      -0.059382
     29 C                     0.079159       0.095728
     30 C                     0.063780       0.035429
     31 C                    -0.407997      -0.009453
     32 C                    -0.404946      -0.012420
     33 C                     0.062785       0.038929
     34 C                     0.082879       0.095262
     35 C                    -0.413530      -0.058688
     36 C                    -0.407292       0.086241
     37 C                    -0.223812      -0.053256
     38 C                    -0.361717       0.078578
     39 C                     0.230730      -0.037786
     40 C                    -0.081719       0.023195
     41 C                     0.181634      -0.057563
     42 C                    -0.359074       0.063850
     43 C                    -0.225203      -0.045138
     44 C                    -0.405625       0.068398
     45 C                     0.185045      -0.043083
     46 C                    -0.223309      -0.054171
     47 C                    -0.408348       0.087455
     48 C                     0.180404      -0.058068
     49 C                    -0.081796       0.023679
     50 C                     0.232490      -0.038686
     51 C                    -0.363528       0.079876
     52 C                     0.183264      -0.044661
     53 C                    -0.403286       0.070926
     54 C                    -0.225897      -0.046669
     55 C                    -0.359263       0.066547
     56 C                    -0.362051       0.148377
     57 C                     0.058832      -0.114102
     58 C                    -0.146886       0.346358
     59 C                     0.032778      -0.125633
     60 C                    -0.335638       0.173360
     61 C                     0.340934       0.013956
     62 N                    -0.578266       0.363137
     63 C                    -0.757182       0.009211
     64 C                    -0.757724       0.011401
     65 C                     0.248795      -0.069994
     66 C                    -0.254770       0.097207
     67 C                    -0.259772       0.093542
     68 C                     0.254722      -0.071495
     69 C                    -0.233403      -0.063128
     70 C                    -0.228099       0.108673
     71 C                    -0.234576      -0.067412
     72 C                    -0.257572       0.097946
     73 C                    -0.258408       0.091620
     74 C                    -0.233509      -0.061765
     75 C                    -0.227695       0.107376
     76 C                    -0.234991      -0.066963
     77 H                     0.237687       0.000346
     78 H                     0.235376       0.000319
     79 H                     0.246189      -0.000730
     80 H                     0.245502      -0.000841
     81 H                     0.238159       0.001650
     82 H                     0.261667      -0.002443
     83 H                     0.235867       0.000038
     84 H                     0.236103      -0.000110
     85 H                     0.257505      -0.000002
     86 H                     0.258135      -0.000001
     87 H                     0.240289       0.000002
     88 H                     0.236748      -0.000002
     89 H                     0.239963       0.000001
     90 H                     0.257423      -0.000002
     91 H                     0.259357      -0.000001
     92 H                     0.239888       0.000002
     93 H                     0.236115      -0.000002
     94 H                     0.239405       0.000001
     95 H                     0.225606       0.002456
     96 H                     0.203716      -0.001315
     97 H                     0.202687      -0.001457
     98 H                     0.223336       0.002424
     99 H                     0.234805      -0.005054
    100 H                     0.241088       0.002563
    101 H                     0.236181      -0.004628
    102 H                     0.236423      -0.003721
    103 H                     0.238398       0.002221
    104 H                     0.225194      -0.004037
    105 H                     0.241104       0.002608
    106 H                     0.235656      -0.005121
    107 H                     0.236112      -0.004706
    108 H                     0.223298      -0.004187
    109 H                     0.237796       0.002294
    110 H                     0.236101      -0.003885
    111 H                     0.286583      -0.007647
    112 H                     0.285728      -0.008960
    113 H                     0.247218       0.001270
    114 H                     0.268611      -0.004445
    115 H                     0.266863      -0.003359
    116 H                     0.250666      -0.002272
    117 H                     0.250866      -0.002369
    118 H                     0.285145      -0.002915
    119 H                     0.286921      -0.005001
    120 H                     0.282958      -0.004864
    121 H                     0.267302       0.003260
    122 H                     0.266932      -0.005953
    123 H                     0.268689       0.003688
    124 H                     0.287576      -0.005040
    125 H                     0.282766      -0.004770
    126 H                     0.267247       0.003184
    127 H                     0.267091      -0.005881
    128 H                     0.269004       0.003696
  --------------------------------------------------------
  Sum of atomic charges =    -0.000000
  Sum of spin   charges =     2.000000

 -----------------------------------------------------------------
                    Cartesian Multipole Moments
 -----------------------------------------------------------------
    Charge (ESU x 10^10)
                -0.0000
    Dipole Moment (Debye)
         X     -12.1944      Y     -12.3214      Z     -22.5970
       Tot      28.4806
    Quadrupole Moments (Debye-Ang)
        XX    -242.2217     XY     148.9720     YY    -324.6832
        XZ     206.0601     YZ     127.2268     ZZ    -278.4923
    Octopole Moments (Debye-Ang^2)
       XXX    5477.2642    XXY    -645.6196    XYY    1384.1289
       YYY    2409.3292    XXZ   -1842.5131    XYZ   -1240.2928
       YYZ    -672.9879    XZZ    1229.4832    YZZ     258.8824
       ZZZ   -1020.2160
    Hexadecapole Moments (Debye-Ang^3)
      XXXX  -88828.5738   XXXY   -1504.2513   XXYY  -15373.9168
      XYYY  -12982.6802   YYYY  -48805.1771   XXXZ    3986.3027
      XXYZ    9262.0709   XYYZ    2933.0900   YYYZ   -3544.8357
      XXZZ  -15389.6183   XYZZ     -31.5537   YYZZ  -13681.3088
      XZZZ   -4456.5765   YZZZ   -1841.5189   ZZZZ  -43854.5456
 -----------------------------------------------------------------
 Calculating analytic gradient of the SCF energy
 -6.142970331301895E-004 -6.142861593155372E-004
 -6.142895884226388E-004 -6.142936363163615E-004
 -6.143178691726523E-004 -6.142653781873722E-004
 -6.142513499510103E-004 -6.143318680305653E-004
 -6.142674750650352E-004 -6.143157488717687E-004
 -6.142747237431383E-004 -6.143084971100973E-004
 -6.143021590924228E-004 -6.142810732089035E-004
 -6.143044233370559E-004 -6.142787900415446E-004
 -6.143144847422946E-004 -6.142687461389946E-004
 -6.142997105608161E-004 -6.142835003260065E-004
 -6.142836042229546E-004 -6.142996240896658E-004
 -6.142451888212540E-004 -6.143380365422402E-004
 -6.143033013800989E-004 -6.142799076780628E-004
 -6.143130944434960E-004 -6.142701428958114E-004
 -6.143041983089389E-004 -6.142790155161460E-004
 -6.142763450897554E-004 -6.143068750581013E-004
 -6.142770101894670E-004 -6.143062226670539E-004
 -6.142559070229942E-004 -6.143273197130200E-004
 -6.142989372332262E-004 -6.142842635823509E-004
 -6.142991686890111E-004 -6.142841076328617E-004
 -6.142990762064624E-004 -6.142841897205772E-004
 -6.143052191704176E-004 -6.142779935539497E-004
 -6.142899529237868E-004 -6.142932661241682E-004
 -6.142821051177819E-004 -6.143011210703333E-004
 -6.142872885890457E-004 -6.142959270972598E-004
 -6.142982807075220E-004 -6.142849415851587E-004
 -6.143070708996346E-004 -6.142761464418378E-004
 -6.142752802954972E-004 -6.143079383081388E-004
 -6.142714305158821E-004 -6.143118096138963E-004
 -6.142836270794203E-004 -6.142996574941787E-004
 -6.143078500908841E-004 -6.142753538905248E-004
 -6.143284730628050E-004 -6.142547556643274E-004
 -6.142964085300295E-004 -6.142868694223582E-004
 -6.143018628249834E-004 -6.142813677656284E-004
 -6.142942963458932E-004 -6.142889375397812E-004
 -6.142762948825463E-004 -6.143069498306239E-004
 -6.142928167683437E-004 -6.142904175262210E-004
 -6.143002712178716E-004 -6.142829901170936E-004
 -6.142712159392042E-004 -6.143120197365493E-004
 -6.142794254434497E-004 -6.143038163084705E-004
 -6.143030179640392E-004 -6.142802301735686E-004
 -6.142667986281500E-004 -6.143164111469279E-004
 -6.143008559704038E-004 -6.142823764348794E-004
 -6.142705131820577E-004 -6.143127341992109E-004
 -6.143027923664415E-004 -6.142804548002769E-004
 -6.142784284663811E-004 -6.143048087221472E-004
 -6.142936255886786E-004 -6.142896240620014E-004
 -6.142804607340039E-004 -6.143027500430565E-004
 -6.142976601849327E-004 -6.142855670557023E-004
 -6.142673372609973E-004 -6.143159014776859E-004
 -6.143216894587398E-004 -6.142615390666560E-004
 -6.142779263961840E-004 -6.143052918741343E-004
 -6.142852162462856E-004 -6.142979984747228E-004
 -6.142936680431353E-004 -6.142896270585820E-004
 -6.142823688713047E-004 -6.143008535449762E-004
 -6.142600667913172E-004 -6.143231499519926E-004
 -6.142784457981425E-004 -6.143048348057417E-004
 -6.142914901926869E-004 -6.142917315464904E-004
 -6.143168243581381E-004 -6.142664019956568E-004
 -6.142931040331904E-004 -6.142901881025157E-004
 -6.142873937660556E-004 -6.142958304308124E-004
 -6.142782620144696E-004 -6.143049392718950E-004
 -6.142788807364152E-004 -6.143043970169781E-004
 -6.142816774331826E-004 -6.143016344206005E-004
 -6.142813931384362E-004 -6.143018273236499E-004
 -6.142688518199224E-004 -6.143144085442144E-004
 -6.142998157275708E-004 -6.142834994756190E-004
 -6.143099814103672E-004 -6.142732342488324E-004
 -6.143071624658651E-004 -6.142761034394612E-004
 -6.142954164479765E-004 -6.142878785870738E-004
 -6.142893539087921E-004 -6.142938739194137E-004
 -6.142939483492218E-004 -6.142893092683584E-004
 -6.143055879809184E-004 -6.142777293570247E-004
 -6.143023869671904E-004 -6.142808342921829E-004
 -6.143115306522307E-004 -6.142717260689884E-004
 -6.142870596567485E-004 -6.142962576714116E-004
 -6.142729011421159E-004 -6.143103143977928E-004
 -6.142747169028708E-004 -6.143085441639646E-004
 -6.142915252295457E-004 -6.142917715201291E-004
 -6.142968473514287E-004 -6.142863819375663E-004
 -6.142891044802928E-004 -6.142941514946730E-004
 -6.142901007763512E-004 -6.142932204617774E-004
 -6.142940006635532E-004 -6.142892091771657E-004
 -6.142890608266723E-004 -6.142942041996076E-004
 -6.142959113223836E-004 -6.142874003071605E-004
 -6.143166532821440E-004 -6.142665684446065E-004
 -6.143030872833141E-004 -6.142801559640347E-004
 -6.142817103437993E-004 -6.143016089234688E-004
 -6.142929158589356E-004 -6.142902975992230E-004
 -6.142724338018693E-004 -6.143108221007823E-004
 -6.142900190120924E-004 -6.142933029531746E-004
 -6.143056309743000E-004 -6.142775861764224E-004
 -6.142921730046371E-004 -6.142910842718036E-004
 -6.142949944958596E-004 -6.142883247431817E-004
 -6.142887446664040E-004 -6.142944687817279E-004
 -6.142964128412034E-004 -6.142868529882229E-004
 -6.142878489469102E-004 -6.142954540886447E-004
 -6.142673380372910E-004 -6.143158868007659E-004
 -6.142787321100143E-004 -6.143045189681421E-004
 -6.143046749302614E-004 -6.142786329951257E-004
 -6.142895475398484E-004 -6.142936666392459E-004
 -6.143106788819024E-004 -6.142725837418323E-004
 -6.142923682616350E-004 -6.142909461077752E-004
 -6.142801019596760E-004 -6.143031179019676E-004
 -6.142925801523598E-004 -6.142906843825536E-004
 -6.142885109775176E-004 -6.142947918096311E-004
 -6.143251116912149E-004 -6.142581149637897E-004
 -6.142979932136337E-004 -6.142852548242557E-004
 -6.143032351332847E-004 -6.142800545158986E-004
 -6.142784174378605E-004 -6.143048068343996E-004
 -6.143103265117840E-004 -6.142728992849812E-004
 -6.142825603060557E-004 -6.143007256229540E-004
 -6.143045373966228E-004 -6.142786900020119E-004
 -6.142788111294366E-004 -6.143044202544415E-004
 -6.143025858290905E-004 -6.142806981866205E-004
 -6.142642300109805E-004 -6.143189966709064E-004
 -6.143046739211459E-004 -6.142785526116340E-004
 -6.142864891787157E-004 -6.142968250919068E-004
 -6.143053078633148E-004 -6.142779302396675E-004
 -6.142866115986425E-004 -6.142966446265135E-004
 -6.142914869546427E-004 -6.142918214448116E-004
 -6.143083575938951E-004 -6.142748635210970E-004
 -6.142952367247233E-004 -6.142880029009342E-004
 -6.142860040047428E-004 -6.142972876107434E-004
 -6.143095224069419E-004 -6.142736724074050E-004
 -6.142870656154203E-004 -6.142961732058432E-004
 -6.142946625366992E-004 -6.142886194081157E-004
 -6.142645239377682E-004 -6.143187161187539E-004
 -6.142912280770014E-004 -6.142919854470750E-004
 -6.142764423078810E-004 -6.143068714629695E-004
 -6.143077793171114E-004 -6.142754249664818E-004
 -6.142689985067402E-004 -6.143142601991679E-004
 -6.142832625548240E-004 -6.143000403292511E-004
 -6.142985395243047E-004 -6.142846904807074E-004
 -6.142782589938021E-004 -6.143049721456162E-004
 -6.142871008207088E-004 -6.142961753398050E-004
 -6.143177670878950E-004 -6.142654721168160E-004
 -6.142915305656577E-004 -6.142916904182292E-004
 -6.143091638939220E-004 -6.142741409166117E-004
 -6.142765144535266E-004 -6.143066920415172E-004
 -6.143153860308117E-004 -6.142678795036511E-004
 -6.143003240312236E-004 -6.142829731543887E-004
 -6.142847932583465E-004 -6.142984368021852E-004
 -6.143034562097961E-004 -6.142797848659154E-004
 -6.142967676285348E-004 -6.142865392430759E-004
 -6.142786795246928E-004 -6.143045548227700E-004
 -6.142967954947407E-004 -6.142864719114480E-004
 -6.142784285376344E-004 -6.143048482403571E-004
 -6.143180318069490E-004 -6.142651936695250E-004
 -6.142781432996870E-004 -6.143050913140987E-004
 -6.142964713770564E-004 -6.142868121540674E-004
 -6.142737416344275E-004 -6.143094550628025E-004
 -6.142960524697502E-004 -6.142871975184500E-004
 -6.142917859162512E-004 -6.142915132023288E-004
 -6.142733247216830E-004 -6.143098940644214E-004
 -6.142872669754583E-004 -6.142959792637718E-004
 -6.142921772139607E-004 -6.142911218791414E-004
 -6.142588315078805E-004 -6.143244037029433E-004
 -6.142882536836222E-004 -6.142949941241422E-004
 -6.142761861931436E-004 -6.143070954282622E-004
 -6.143017509299467E-004 -6.142814707651423E-004
 -6.142718649800897E-004 -6.143113653380330E-004
 -6.143019962999876E-004 -6.142812824928966E-004
 -6.142798263856031E-004 -6.143033967073541E-004
 -6.143048565254374E-004 -6.142783795446897E-004
 -6.142747893561340E-004 -6.143084334143498E-004
 -6.142929153985651E-004 -6.142903185561912E-004
 -6.142759442301564E-004 -6.143072797140194E-004
 -6.142865351392974E-004 -6.142966746622599E-004
 -6.143102945177620E-004 -6.142729337797227E-004
 -6.143357609419426E-004 -6.142474719226659E-004
 -6.142784201698982E-004 -6.143048142971095E-004
 -6.142785482490299E-004 -6.143046698033150E-004
 -6.142704050974832E-004 -6.143128261900323E-004
 -6.143349077230324E-004 -6.142483109378785E-004
 -6.143047105601003E-004 -6.142785255873948E-004
 -6.143072315271045E-004 -6.142759845544018E-004
 -6.142901552595068E-004 -6.142930408497731E-004
 -6.142719682182727E-004 -6.143112762265945E-004
 -6.142780539923997E-004 -6.143051818480257E-004
 -6.143125745636717E-004 -6.142706610530262E-004
 -6.143054466334339E-004 -6.142777929204141E-004
 -6.143228242231932E-004 -6.142603958567737E-004
 -6.142847173947832E-004 -6.142985115919876E-004
 -6.142861210483204E-004 -6.142971537389707E-004
 -6.142758745339661E-004 -6.143073646827609E-004
 -6.143028747414433E-004 -6.142803264103448E-004
 -6.142998313659759E-004 -6.142833857316753E-004
 -6.142871418329612E-004 -6.142961007269002E-004
 -6.142788923650007E-004 -6.143043265582973E-004
 -6.142853580992402E-004 -6.142978706677427E-004
 -6.142847063828757E-004 -6.142985056547179E-004
 -6.142834749604236E-004 -6.142997737384060E-004
 -6.143131970457671E-004 -6.142700368466710E-004
 -6.143037046490558E-004 -6.142795421785448E-004
 -6.142784209502571E-004 -6.143048323166873E-004
 -6.142949220063023E-004 -6.142882957568564E-004
 -6.143057437813688E-004 -6.142774980282995E-004
 -6.142753080136277E-004 -6.143078915322319E-004
 -6.143256595219737E-004 -6.142575812376912E-004
 -6.142712615653395E-004 -6.143119792405523E-004
 -6.143063569716762E-004 -6.142768695636997E-004
 -6.142821617145314E-004 -6.143010968644041E-004
 -6.142986735184451E-004 -6.142845650847460E-004
 -6.142880307680643E-004 -6.142951798132363E-004
 -6.142846436769031E-004 -6.142986005131293E-004
 -6.143065206732593E-004 -6.142767178614458E-004
 -6.142931918010728E-004 -6.142900204422930E-004
 -6.143172622936439E-004 -6.142659806009033E-004
 -6.142791773744267E-004 -6.143040780067532E-004
 -6.142972681019061E-004 -6.142859460301787E-004
 -6.142724712411129E-004 -6.143107750507658E-004
 -6.143117855565031E-004 -6.142714494464894E-004
 -6.143131330041604E-004 -6.142700958483803E-004
 -6.142943608333164E-004 -6.142888632486327E-004
 -6.142881444355154E-004 -6.142951116186383E-004
 -6.142995526537498E-004 -6.142836913067210E-004
 -6.142501120935204E-004 -6.143331203600215E-004
 -6.142859277573718E-004 -6.142972918356333E-004
 -6.142996349847443E-004 -6.142836124412216E-004
 -6.143068880897988E-004 -6.142763091244589E-004
 -6.142949390139571E-004 -6.142883084806407E-004
 -6.142912355642143E-004 -6.142920241639896E-004
 -6.142637959504445E-004 -6.143194345548226E-004
 -6.142997257501384E-004 -6.142835086991804E-004
 -6.142942391745292E-004 -6.142890176375770E-004
 -6.143235612437125E-004 -6.142596457074463E-004
 -6.142966315308021E-004 -6.142866058582023E-004
 -6.142830143083216E-004 -6.143001731871627E-004
 -6.142709640701621E-004 -6.143122539664003E-004
 -6.142880758214604E-004 -6.142951668161715E-004
 -6.142893289625699E-004 -6.142938863250968E-004
 -6.142962222833285E-004 -6.142870053351612E-004
 -6.142747946650676E-004 -6.143084125077016E-004
 -6.142947611226307E-004 -6.142884635831161E-004
 -6.142810043071973E-004 -6.143022215337869E-004
 -6.142914683602669E-004 -6.142917553861977E-004
 -6.142857818547029E-004 -6.142974359050642E-004
 -6.143010727035550E-004 -6.142821423164233E-004
 -6.142822300084770E-004 -6.143010010490172E-004
 -6.142939157615514E-004 -6.142892888321052E-004
 -6.142861679748189E-004 -6.142970567591568E-004
 -6.142803527936077E-004 -6.143028785433097E-004
 -6.142843927207748E-004 -6.142988456887056E-004
 -6.142773216739571E-004 -6.143059139877183E-004
 -6.142805846390202E-004 -6.143026536114908E-004
 -6.142819530919534E-004 -6.143012536720311E-004
 -6.142791167687658E-004 -6.143040984676873E-004
 -6.142881063612141E-004 -6.142951160102491E-004
 -6.142801844075873E-004 -6.143030237522659E-004
 -6.142870393889524E-004 -6.142961833542984E-004
 -6.142935272973810E-004 -6.142896828460359E-004
 -6.142867962048569E-004 -6.142964052411398E-004
 -6.143036692830819E-004 -6.142795386836013E-004
 -6.142770769617860E-004 -6.143061467557079E-004
 -6.143117304799087E-004 -6.142715141898274E-004
 -6.143071320796499E-004 -6.142760877042676E-004
 -6.142711354155555E-004 -6.143120756180245E-004
 -6.142979863481715E-004 -6.142852442793084E-004
 -6.142813069527967E-004 -6.143019013975049E-004
 -6.142866901530655E-004 -6.142965157897805E-004
 -6.142834014720953E-004 -6.142998194288820E-004
 -6.142883330056651E-004 -6.142949168826438E-004
 -6.142864960832967E-004 -6.142967567235979E-004
 -6.142932645430710E-004 -6.142899745535224E-004
 -6.142739788545730E-004 -6.143092580143362E-004
 -6.142944856469326E-004 -6.142887080957905E-004
 -6.142867589541906E-004 -6.142964596427725E-004
 -6.142742737930663E-004 -6.143089260078824E-004
 -6.142908737019283E-004 -6.142923349966459E-004
 -6.142670385878915E-004 -6.143161864175396E-004
 -6.142723597616399E-004 -6.143108385082592E-004
 -6.143022020586096E-004 -6.142810692735322E-004
 -6.142824367311752E-004 -6.143007747407749E-004
 -6.142966713693718E-004 -6.142865439094690E-004
 -6.142877960905021E-004 -6.142954288010296E-004
 -6.142917276531136E-004 -6.142915115321130E-004
 -6.142856307886845E-004 -6.142975916669888E-004
 -6.142848557570640E-004 -6.142984045685168E-004
 -6.142905444284003E-004 -6.142926723350509E-004
 -6.143077178530872E-004 -6.142754855567878E-004
 -6.142878869135062E-004 -6.142953693723120E-004
 -6.142972327664326E-004 -6.142860457262688E-004
 -6.143046901445994E-004 -6.142785315151578E-004
 -6.143072335594818E-004 -6.142760157213968E-004
 -6.142820669454102E-004 -6.143012133767499E-004
 -6.142817467189893E-004 -6.143014795634435E-004
 -6.142716056640797E-004 -6.143116363304447E-004
 -6.142822157810859E-004 -6.143010655349843E-004
 -6.142770193253046E-004 -6.143062065223838E-004
 -6.142755054940116E-004 -6.143077400153874E-004
 -6.143020913837159E-004 -6.142811832659195E-004
 -6.142996696402934E-004 -6.142835583012796E-004
 -6.143105752170671E-004 -6.142726715542906E-004
 -6.142867337721323E-004 -6.142965201195702E-004
 -6.143026479415891E-004 -6.142805819181353E-004
 -6.142956900150493E-004 -6.142875403602626E-004
 -6.142871929563412E-004 -6.142960454140134E-004
 -6.143012012348842E-004 -6.142820051741441E-004
 -6.142900241752690E-004 -6.142931847598645E-004
 -6.142974637864569E-004 -6.142857892129892E-004
 -6.142763121932446E-004 -6.143068960535547E-004
 -6.142975562716690E-004 -6.142856813009574E-004
 -6.142975349631819E-004 -6.142857245752028E-004
 -6.142772315034893E-004 -6.143059571201814E-004
 -6.142992128198091E-004 -6.142840364071496E-004
 -6.142878804784887E-004 -6.142953493765107E-004
 -6.143022299396526E-004 -6.142809948209562E-004
 -6.142864995193732E-004 -6.142967047443243E-004
 -6.142882036659357E-004 -6.142950560931785E-004
 -6.142945881837215E-004 -6.142886306073028E-004
 -6.142787772248763E-004 -6.143044533407846E-004
 -6.142965434194807E-004 -6.142866887168193E-004
 -6.142824578819729E-004 -6.143007639561133E-004
 -6.142956300008413E-004 -6.142875742682573E-004
 -6.143004649565655E-004 -6.142827888630643E-004
 -6.142895132463318E-004 -6.142937028892010E-004
 -6.142975376647260E-004 -6.142856999365497E-004
 -6.142843618237110E-004 -6.142988942472525E-004
 -6.143054997249877E-004 -6.142776907755934E-004
 -6.142846103672052E-004 -6.142986396541173E-004
 -6.142878411232341E-004 -6.142954159675058E-004
 -6.142776221172471E-004 -6.143056110125114E-004
 -6.142912153189949E-004 -6.142920150630602E-004
 -6.142941397899823E-004 -6.142890899004396E-004
 -6.142810669341962E-004 -6.143021374133731E-004
 -6.142963515278922E-004 -6.142868626859171E-004
 -6.142854167597749E-004 -6.142978343838165E-004
 -6.143064396359514E-004 -6.142767714007658E-004
 -6.142856175373383E-004 -6.142976195188881E-004
 -6.142888387718378E-004 -6.142943803797730E-004
 -6.143119647627612E-004 -6.142712636557320E-004
 -6.143045349123782E-004 -6.142786730580070E-004
 -6.143073933160859E-004 -6.142757923619449E-004
 -6.142880713443727E-004 -6.142951601272486E-004
 -6.143040841155861E-004 -6.142791575175906E-004
 -6.143001980667228E-004 -6.142830052149359E-004
 -6.143007171992956E-004 -6.142825098674037E-004
 -6.142979148235125E-004 -6.142853143195985E-004
 -6.142896408791163E-004 -6.142935729556868E-004
 -6.143038260893199E-004 -6.142793968596879E-004
 -6.142908981260920E-004 -6.142923332842098E-004
 -6.142990411212936E-004 -6.142841818158832E-004
 -6.142826181956680E-004 -6.143005936653108E-004
 -6.143004285202868E-004 -6.142828011767940E-004
 -6.142888728689407E-004 -6.142943381338353E-004
 -6.143019219708357E-004 -6.142812879153263E-004
 -6.143033717176410E-004 -6.142798432478919E-004
 -6.142855180700552E-004 -6.142976830264607E-004
 -6.142920501939601E-004 -6.142911758582614E-004
 -6.143026907356484E-004 -6.142805202614808E-004
 -6.142974757890700E-004 -6.142857619676065E-004
 -6.143022348592549E-004 -6.142810047330250E-004
 -6.143057642364443E-004 -6.142774748132804E-004
 -6.142676046233394E-004 -6.143156392682402E-004
 -6.143079597995819E-004 -6.142752390694744E-004
 -6.143015172497248E-004 -6.142817217599008E-004
 -6.142902853147797E-004 -6.142929184892384E-004
 -6.143049674307344E-004 -6.142782370723003E-004
 -6.142973513464185E-004 -6.142858571030091E-004
 -6.142950502018091E-004 -6.142881542097372E-004
 -6.143091125814400E-004 -6.142741135154742E-004
 -6.142901672011199E-004 -6.142930686138644E-004
 -6.142908860612552E-004 -6.142923498583482E-004
 -6.142925753313763E-004 -6.142906669808730E-004
 -6.142980909312298E-004 -6.142851518212944E-004
 -6.143022867119472E-004 -6.142809213811236E-004
 -6.143047383658661E-004 -6.142784773113918E-004
 -6.142893526324354E-004 -6.142938617451201E-004
 -6.143176046278834E-004 -6.142656058285771E-004
 -6.142757110360580E-004 -6.143074978206140E-004
 -6.142869077218063E-004 -6.142963455421313E-004
 -6.143016423517080E-004 -6.142815753629900E-004
 -6.142846102496594E-004 -6.142986028804050E-004
 -6.143027993351203E-004 -6.142803930315660E-004
 -6.142947073466560E-004 -6.142885310863766E-004
 -6.142781847252043E-004 -6.143050099848390E-004
 -6.143015835778529E-004 -6.142816513489556E-004
 -6.142964953244073E-004 -6.142867477859747E-004
 -6.142963240455062E-004 -6.142869043823281E-004
 -6.142948957661698E-004 -6.142883542520703E-004
 -6.142890926263065E-004 -6.142941332362337E-004
 -6.142852732132475E-004 -6.142979404017616E-004
 -6.143051149020526E-004 -6.142780810470341E-004
 Gradient of SCF Energy
            1           2           3           4           5           6
    1   0.0001297   0.0081304   0.0028168  -0.0045969  -0.0012569  -0.0021657
    2  -0.0026815   0.0045345   0.0016598   0.0001662   0.0022611  -0.0024328
    3  -0.0005237   0.0016125   0.0022182   0.0074736   0.0002434  -0.0046670
            7           8           9          10          11          12
    1   0.0003486  -0.0054459   0.0007831   0.0016531   0.0017016   0.0008116
    2  -0.0000144  -0.0031454  -0.0019041  -0.0009826  -0.0009603   0.0014580
    3   0.0005838  -0.0027039  -0.0066119   0.0009019  -0.0016825   0.0008292
           13          14          15          16          17          18
    1  -0.0011360   0.0023199   0.0020585   0.0001859  -0.0025185   0.0003402
    2   0.0019850  -0.0030532  -0.0024125   0.0002091  -0.0002088  -0.0004759
    3   0.0007087   0.0013161  -0.0021058  -0.0040385  -0.0002206   0.0018841
           19          20          21          22          23          24
    1  -0.0014885  -0.0034115  -0.0028631  -0.0002652  -0.0005778  -0.0016273
    2   0.0037855   0.0010472  -0.0025476   0.0013773   0.0029191  -0.0019810
    3   0.0000887  -0.0011645  -0.0015582   0.0002004   0.0004345  -0.0034183
           25          26          27          28          29          30
    1   0.0013569   0.0006540   0.0008218   0.0000812  -0.0040593  -0.0003330
    2  -0.0017524  -0.0007246   0.0014330   0.0023723   0.0040435   0.0061994
    3   0.0019291   0.0012592   0.0017758   0.0002698  -0.0056722   0.0010283
           31          32          33          34          35          36
    1   0.0021986   0.0015768   0.0031181   0.0005680   0.0014490  -0.0016780
    2   0.0007187   0.0028315  -0.0025890  -0.0079173  -0.0012142  -0.0012080
    3   0.0033853   0.0029065   0.0043425  -0.0008740   0.0018249  -0.0030282
           37          38          39          40          41          42
    1  -0.0017413  -0.0007464   0.0006506  -0.0003735   0.0028644  -0.0019489
    2  -0.0008302   0.0054315  -0.0016588   0.0010850  -0.0036934   0.0039697
    3  -0.0030674  -0.0000973   0.0007750  -0.0004239   0.0039901  -0.0024177
           43          44          45          46          47          48
    1   0.0015486   0.0031664   0.0007802  -0.0010534  -0.0013038  -0.0009023
    2   0.0032318   0.0015527  -0.0047047  -0.0025603  -0.0021460   0.0058302
    3   0.0032856   0.0055840   0.0003012  -0.0023289  -0.0026614   0.0000873
           49          50          51          52          53          54
    1   0.0004174  -0.0006102   0.0026830  -0.0020930   0.0019959   0.0025009
    2  -0.0009492   0.0016121  -0.0033429   0.0027440   0.0050034   0.0012269
    3   0.0003836  -0.0005740   0.0033939  -0.0024630   0.0045925   0.0042806
           55          56          57          58          59          60
    1   0.0015050   0.0059305  -0.0020472   0.0024823   0.0032441  -0.0003671
    2  -0.0044978   0.0008184   0.0003853   0.0029066   0.0003056   0.0044062
    3   0.0012393   0.0029973   0.0030803   0.0052102  -0.0011465   0.0065465
           61          62          63          64          65          66
    1  -0.0002258  -0.0015505   0.0059440  -0.0006565  -0.0021096   0.0030235
    2  -0.0001335  -0.0014890   0.0033201   0.0021976  -0.0017436  -0.0045495
    3   0.0003529  -0.0025846   0.0023917   0.0079447   0.0058975  -0.0032005
           67          68          69          70          71          72
    1   0.0017437   0.0050652   0.0039263   0.0037366  -0.0013990  -0.0058771
    2  -0.0062077   0.0044036  -0.0020633   0.0033433   0.0033608   0.0023153
    3   0.0030244  -0.0008201   0.0037576  -0.0001599  -0.0036671  -0.0017752
           73          74          75          76          77          78
    1  -0.0009475  -0.0003449  -0.0011851  -0.0006489   0.0028915  -0.0050351
    2   0.0069504   0.0051960  -0.0012012  -0.0050135  -0.0005502  -0.0018127
    3  -0.0015596   0.0026430   0.0047634  -0.0000757  -0.0046761   0.0000966
           79          80          81          82          83          84
    1  -0.0004722   0.0028145   0.0014644   0.0031991  -0.0032222  -0.0001799
    2   0.0056005  -0.0025534  -0.0006146   0.0033206   0.0019970  -0.0039208
    3   0.0013991   0.0043909  -0.0031897   0.0043192  -0.0010374   0.0012510
           85          86          87          88          89          90
    1   0.0013431   0.0001189   0.0010373   0.0008229  -0.0000813  -0.0023961
    2  -0.0036116   0.0002292  -0.0011589  -0.0009079   0.0002086   0.0026500
    3  -0.0004705   0.0050558   0.0011593  -0.0006998  -0.0014131  -0.0015503
           91          92          93          94          95          96
    1   0.0034553  -0.0002885  -0.0013810  -0.0008752  -0.0029019   0.0006008
    2   0.0030071   0.0019847   0.0005267  -0.0010856  -0.0038548  -0.0001129
    3   0.0025590   0.0004373  -0.0003950  -0.0005610  -0.0056568   0.0010025
           97          98          99         100         101         102
    1   0.0000350  -0.0030660  -0.0005037  -0.0006755  -0.0003403  -0.0001890
    2   0.0009610  -0.0030964  -0.0033664  -0.0002045   0.0007531   0.0000401
    3   0.0002544  -0.0059016  -0.0015850  -0.0011746  -0.0003964  -0.0002947
          103         104         105         106         107         108
    1  -0.0003085  -0.0003906  -0.0003301  -0.0019325   0.0002333  -0.0004745
    2  -0.0009226  -0.0003982  -0.0008664   0.0004861  -0.0006750  -0.0010166
    3  -0.0007005  -0.0007240  -0.0007497  -0.0029812   0.0001949  -0.0010397
          109         110         111         112         113         114
    1  -0.0008529  -0.0001449  -0.0077477   0.0034316  -0.0038386  -0.0003675
    2  -0.0001654  -0.0001217  -0.0027336  -0.0013657  -0.0018400  -0.0020186
    3  -0.0014148  -0.0002685  -0.0005540  -0.0076486  -0.0011249  -0.0011633
          115         116         117         118         119         120
    1  -0.0010992  -0.0004202   0.0008658  -0.0011607  -0.0012708  -0.0007237
    2   0.0002292   0.0012554  -0.0025751  -0.0015959   0.0069421   0.0084255
    3  -0.0018356  -0.0027918  -0.0014458  -0.0037002   0.0066719  -0.0072766
          121         122         123         124         125         126
    1  -0.0088124  -0.0076705   0.0005466   0.0080798  -0.0018997   0.0013084
    2   0.0012669  -0.0065654  -0.0077949  -0.0013001  -0.0108137  -0.0076875
    3  -0.0060744   0.0006250   0.0061337   0.0055328   0.0024675  -0.0075501
          127         128
    1   0.0027186   0.0013283
    2   0.0024317   0.0093840
    3  -0.0094407  -0.0025117
 Max gradient component =       1.081E-02
 RMS gradient           =       3.093E-03
 Computing fast IEFPCM-SWIG gradient.
 Updating gradient with PCM contributions...
 -- total gradient after adding PCM contribution --
---------------------------------------------------
  Atom         X              Y              Z     
---------------------------------------------------
   1       0.000166      -0.000201      -0.000665
   2       0.000266       0.000341       0.000142
   3       0.000245       0.000086       0.000218
   4      -0.000159      -0.000007       0.000529
   5      -0.000565      -0.000203      -0.000231
   6      -0.000269      -0.000155      -0.000310
   7       0.000158      -0.000005       0.000372
   8       0.000024      -0.000233      -0.000306
   9      -0.000086       0.000080      -0.000003
  10      -0.000327       0.000091       0.000048
  11       0.000861      -0.000478       0.000230
  12      -0.000447       0.000515       0.000550
  13       0.000302      -0.000022      -0.000185
  14       0.000604      -0.000762       0.000660
  15       0.000479      -0.000501      -0.000377
  16      -0.000176       0.000193      -0.001029
  17      -0.000624       0.000623       0.000300
  18       0.000852      -0.000177       0.000277
  19      -0.000185       0.001172       0.000177
  20      -0.000687       0.000231      -0.000142
  21      -0.000612      -0.000839      -0.000459
  22      -0.001160      -0.000553      -0.001975
  23      -0.000196       0.001411      -0.000084
  24       0.000124       0.000388       0.000888
  25       0.000760      -0.000891       0.000640
  26      -0.000478      -0.001559      -0.001541
  27       0.001504       0.002226       0.003561
  28      -0.001201       0.001221      -0.001630
  29      -0.000172      -0.001517      -0.000573
  30       0.000407      -0.000646       0.000700
  31       0.000204       0.001242       0.000524
  32       0.000760      -0.000176       0.001216
  33      -0.000179       0.001018      -0.000027
  34      -0.000881       0.000472      -0.001283
  35       0.000285      -0.002432      -0.000191
  36      -0.000001      -0.001142      -0.000215
  37      -0.000500       0.000105      -0.000881
  38      -0.000321       0.000945      -0.000304
  39       0.000122      -0.000176       0.000102
  40       0.000118      -0.000385       0.000116
  41      -0.000337       0.000411      -0.000509
  42      -0.000476       0.001018      -0.000522
  43       0.000100       0.000812       0.000312
  44       0.000714      -0.000470       0.001234
  45      -0.000098       0.000223      -0.000177
  46      -0.000131      -0.000959      -0.000459
  47      -0.000566       0.000550      -0.000829
  48       0.000073      -0.000828      -0.000015
  49      -0.000175       0.000409      -0.000181
  50      -0.000067       0.000215      -0.000034
  51       0.000411      -0.000814       0.000402
  52       0.000118      -0.000435       0.000127
  53       0.000021       0.001589       0.000349
  54       0.000512      -0.000265       0.000707
  55       0.000394      -0.001075       0.000315
  56       0.000671       0.000996       0.001578
  57      -0.003651      -0.001647      -0.000148
  58       0.001456       0.001794       0.003208
  59       0.001338      -0.000991      -0.004278
  60       0.001485       0.001049       0.001866
  61      -0.000177      -0.000062       0.000131
  62      -0.000836      -0.000739      -0.001246
  63       0.000250       0.000053      -0.000100
  64       0.000052       0.000198       0.001175
  65      -0.000771      -0.000890       0.001887
  66      -0.000276      -0.000452      -0.001502
  67      -0.000650      -0.001127       0.001082
  68       0.001725       0.001785      -0.000515
  69       0.000506      -0.000466       0.000334
  70       0.000074       0.000129      -0.000064
  71      -0.000332       0.000462      -0.000309
  72      -0.001209      -0.000741      -0.000895
  73       0.000823       0.001293      -0.000720
  74      -0.000218       0.000710       0.000094
  75      -0.000067      -0.000140       0.000143
  76       0.000125      -0.000626      -0.000086
  77       0.000285       0.000146      -0.000114
  78      -0.000176      -0.000042       0.000230
  79       0.000111      -0.000002      -0.000017
  80       0.000151       0.000084       0.000003
  81       0.000050       0.000036      -0.000051
  82       0.000003       0.000083       0.000011
  83      -0.000173      -0.000222       0.000043
  84      -0.000105      -0.000056       0.000032
  85      -0.000295      -0.000274      -0.000150
  86       0.000207      -0.000514       0.000226
  87       0.000063      -0.000091       0.000106
  88       0.000079      -0.000100      -0.000073
  89      -0.000025       0.000021      -0.000124
  90       0.000074      -0.000001      -0.000438
  91      -0.000144       0.000526      -0.000082
  92       0.000001       0.000129       0.000023
  93      -0.000138       0.000041      -0.000046
  94      -0.000059      -0.000117      -0.000052
  95      -0.000290       0.000434      -0.000414
  96       0.000347      -0.000399       0.000410
  97      -0.000061       0.000672      -0.000005
  98       0.000144      -0.000642      -0.000000
  99      -0.000123      -0.000144      -0.000181
 100      -0.000061      -0.000040      -0.000087
 101      -0.000043       0.000150      -0.000033
 102      -0.000057       0.000109      -0.000073
 103       0.000066      -0.000047       0.000080
 104       0.000112       0.000044       0.000137
 105      -0.000031      -0.000057      -0.000070
 106      -0.000101      -0.000111      -0.000205
 107       0.000069      -0.000121       0.000084
 108       0.000018       0.000110       0.000185
 109      -0.000032       0.000145       0.000036
 110       0.000033      -0.000133       0.000039
 111       0.000242       0.000008      -0.000234
 112      -0.000283       0.000101       0.000118
 113      -0.000077      -0.000080      -0.000140
 114       0.000556      -0.000373      -0.000286
[...]
  0.616   0.618   0.618   0.620   0.622   0.624   0.625   0.627
  0.628   0.629   0.631   0.632   0.632   0.633   0.634   0.636
  0.637   0.639   0.640   0.641   0.644   0.645   0.649   0.651
  0.654   0.657   0.658   0.659   0.661   0.664   0.665   0.665
  0.666   0.667   0.670   0.672   0.673   0.674   0.676   0.677
  0.678   0.685   0.686   0.690   0.691   0.693   0.696   0.698
  0.700   0.704   0.706   0.710   0.711   0.712   0.714   0.718
  0.718   0.724   0.727   0.733   0.738   0.739   0.743   0.744
  0.745   0.749   0.752   0.754   0.757   0.758   0.766   0.768
  0.770   0.770   0.771   0.774   0.779   0.782   0.783   0.786
  0.791   0.793   0.794   0.799   0.802   0.804   0.809   0.813
  0.815   0.817   0.818   0.833   0.837   0.840   0.841   0.843
  0.846   0.860   0.863   0.869   0.873   0.878   0.881   0.884
  0.888   0.896   0.901   0.901   0.915   0.917   0.918   0.920
  0.922   0.924   0.925   0.926   0.930   0.934   0.936   0.938
  0.941   0.943   0.945   0.948   0.951   0.954   0.957   0.960
  0.961   0.962   0.964   0.965   0.966   0.968   0.970   0.976
  0.976   0.979   0.983   0.985   0.986   0.987   0.989   0.995
  0.997   0.999   1.000   1.001   1.004   1.006   1.010   1.011
  1.012   1.016   1.018   1.020   1.022   1.027   1.030   1.032
  1.035   1.039   1.039   1.042   1.048   1.049   1.050   1.051
  1.052   1.053   1.057   1.058   1.059   1.061   1.063   1.069
  1.070   1.075   1.076   1.079   1.081   1.083   1.084   1.085
  1.088   1.090   1.092   1.097   1.099   1.100   1.105   1.106
  1.108   1.116   1.119   1.122   1.124   1.124   1.127   1.131
  1.133   1.138   1.140   1.143   1.144   1.151   1.153   1.154
  1.155   1.156   1.158   1.160   1.162   1.173   1.173   1.175
  1.179   1.181   1.185   1.188   1.195   1.199   1.200   1.206
  1.211   1.214   1.215   1.219   1.224   1.227   1.229   1.237
  1.242   1.246   1.247   1.257   1.260   1.265   1.269   1.270
  1.274   1.278   1.279   1.282   1.285   1.288   1.293   1.296
  1.297   1.297   1.303   1.306   1.309   1.312   1.313   1.317
  1.319   1.321   1.325   1.329   1.331   1.338   1.341   1.342
  1.357   1.358   1.361   1.366   1.368   1.372   1.377   1.379
  1.384   1.390   1.391   1.393   1.394   1.401   1.409   1.414
  1.419   1.420   1.421   1.422   1.429   1.432   1.436   1.450
  1.451   1.453   1.454   1.454   1.456   1.461   1.478   1.480
  1.482   1.486   1.487   1.492   1.494   1.504   1.505   1.509
  1.511   1.515   1.521   1.523   1.524   1.524   1.528   1.528
  1.530   1.531   1.536   1.538   1.541   1.541   1.544   1.544
  1.545   1.552   1.553   1.559   1.560   1.561   1.565   1.566
  1.567   1.568   1.573   1.574   1.575   1.577   1.578   1.583
  1.584   1.586   1.595   1.599   1.601   1.604   1.606   1.614
  1.615   1.623   1.628   1.656   1.661   1.664   1.670   1.679
  1.692   1.699   1.705   1.714   1.716   1.717   1.719   1.743
  1.747   1.756   1.761   1.766   1.785   1.786   1.798   1.806
  1.808   1.814   1.819   1.823   1.823   1.823   1.826   1.828
  1.829   1.830   1.831   1.834   1.843   1.850   1.858   1.859
  1.863   1.866   1.870   1.875   1.878   1.887   1.893   1.897
  1.898   1.910   1.916   1.917   1.921   1.923   1.927   1.932
  1.933   1.936   1.938   1.942   1.945   1.948   1.952   1.955
  1.955   1.962   1.964   1.969   1.976   1.977   1.983   1.988
  1.994   1.995   1.997   2.000   2.002   2.006   2.011   2.016
  2.019   2.023   2.037   2.037   2.039   2.042   2.046   2.054
  2.063   2.065   2.071   2.072   2.075   2.078   2.081   2.082
  2.084   2.094   2.099   2.105   2.112   2.115   2.122   2.123
  2.127   2.130   2.139   2.149   2.154   2.155   2.157   2.160
  2.163   2.165   2.167   2.172   2.174   2.176   2.181   2.183
  2.191   2.191   2.195   2.197   2.198   2.202   2.205   2.211
  2.213   2.214   2.214   2.217   2.218   2.219   2.229   2.235
  2.238   2.240   2.243   2.244   2.246   2.248   2.252   2.255
  2.258   2.267   2.270   2.273   2.280   2.281   2.286   2.288
  2.289   2.293   2.296   2.296   2.298   2.303   2.308   2.318
  2.320   2.323   2.325   2.334   2.335   2.335   2.338   2.345
  2.353   2.357   2.357   2.358   2.360   2.365   2.365   2.371
  2.372   2.373   2.376   2.380   2.390   2.392   2.393   2.397
  2.398   2.399   2.401   2.406   2.412   2.418   2.419   2.424
  2.428   2.429   2.430   2.431   2.434   2.439   2.449   2.449
  2.450   2.452   2.462   2.465   2.468   2.478   2.484   2.488
  2.494   2.498   2.501   2.514   2.514   2.517   2.531   2.538
  2.552   2.563   2.576   2.588   2.589   2.594   2.601   2.614
  2.615   2.625   2.626   2.642   2.643   2.645   2.653   2.655
  2.656   2.658   2.659   2.663   2.681   2.690   2.695   2.696
  2.698   2.699   2.705   2.711   2.720   2.722   2.723   2.738
  2.740   2.742   2.744   2.745   2.751   2.756   2.757   2.759
  2.760   2.764   2.765   2.768   2.769   2.787   2.789   2.792
  2.793   2.796   2.799   2.801   2.802   2.802   2.802   2.812
  2.817   2.820   2.822   2.822   2.824   2.825   2.832   2.835
  2.846   2.856   2.863   2.869   2.870   2.873   2.874   2.879
  2.887   2.888   2.900   2.907   2.914   2.919   2.921   2.937
  2.939   2.944   2.959   2.962   2.969   2.973   2.992   3.013
  3.013   3.017   3.019   3.033   3.033   3.040   3.059   3.083
  3.086   3.093   3.100   3.111   3.151   3.159   3.252   3.266
  3.271   3.273   3.314   3.332   3.335   3.419   3.444   3.459
  3.468   3.479   3.488   3.501   3.502   3.509   3.512   3.517
  3.563   3.679   3.691   9.643   9.787  13.156  13.190  13.216
 13.251  13.255  13.280  13.419  13.515  13.522  13.536  13.537
 13.564  13.635  13.652  13.679  13.679  13.684  13.687  13.691
 13.709  13.716  13.740  13.751  13.804  13.805  13.816  13.856
 13.876  13.903  13.905  13.912  13.934  13.947  14.013  14.021
 14.039  14.045  14.052  14.119  14.126  14.140  14.142  14.144
 14.151  14.157  14.172  14.172  14.181  14.183  14.188  14.197
 14.209  14.223  14.248  14.277  14.282  14.324  14.326  14.345
 14.353  14.522  14.526  14.534  14.546  14.552  14.579  14.584
 14.585  14.587  14.590  14.591  14.611  19.605  19.693
 --------------------------------------------------------------
 
          Ground-State Mulliken Net Atomic Charges

     Atom                 Charge (a.u.)    Spin (a.u.)
  --------------------------------------------------------
      1 C                    -0.363879      -0.000781
      2 C                     0.035749       0.003083
      3 C                    -0.186750      -0.023564
      4 C                     0.035233       0.003010
      5 C                    -0.362475      -0.000809
      6 C                     0.277043       0.000638
      7 N                    -0.670705       0.000014
      8 C                    -0.760175       0.000581
      9 C                    -0.760777       0.000667
     10 C                     0.307544      -0.000014
     11 C                    -0.298567       0.000032
     12 C                    -0.293109       0.000031
     13 C                     0.298123      -0.000018
     14 C                    -0.234513      -0.000026
     15 C                    -0.263368       0.000036
     16 C                    -0.236621      -0.000025
     17 C                    -0.298397       0.000034
     18 C                    -0.301405       0.000032
     19 C                    -0.234407      -0.000025
     20 C                    -0.265003       0.000035
     21 C                    -0.236004      -0.000024
     22 C                    -0.134251       0.022705
     23 C                    -0.145834       0.062857
     24 B                     0.571780       0.274137
     25 C                    -0.145399       0.064596
     26 C                    -0.135308       0.020077
     27 B                     0.553170       0.331863
     28 C                    -0.407540      -0.058072
     29 C                     0.078965       0.093905
     30 C                     0.062532       0.037597
     31 C                    -0.408234      -0.011616
     32 C                    -0.403518      -0.014066
     33 C                     0.061716       0.040392
     34 C                     0.082407       0.092629
     35 C                    -0.413166      -0.056899
     36 C                    -0.406529       0.085862
     37 C                    -0.224548      -0.053333
     38 C                    -0.360522       0.078172
     39 C                     0.227056      -0.038076
     40 C                    -0.078487       0.023511
     41 C                     0.181089      -0.057565
     42 C                    -0.357818       0.064584
     43 C                    -0.226184      -0.045788
     44 C                    -0.404563       0.069295
     45 C                     0.182416      -0.044012
     46 C                    -0.224037      -0.053681
     47 C                    -0.407651       0.086153
     48 C                     0.179928      -0.057524
     49 C                    -0.078232       0.023740
     50 C                     0.228774      -0.038548
     51 C                    -0.362274       0.078599
     52 C                     0.180505      -0.045076
     53 C                    -0.402081       0.071000
     54 C                    -0.226911      -0.046799
     55 C                    -0.357903       0.066468
     56 C                    -0.359286       0.161723
     57 C                     0.049820      -0.121277
     58 C                    -0.146194       0.352613
     59 C                     0.051327      -0.122110
     60 C                    -0.358530       0.162199
     61 C                     0.342139       0.013504
     62 N                    -0.578140       0.363530
     63 C                    -0.756761       0.009684
     64 C                    -0.755349       0.009942
     65 C                     0.245835      -0.069801
     66 C                    -0.252541       0.095722
     67 C                    -0.258135       0.091967
     68 C                     0.251529      -0.070880
     69 C                    -0.234226      -0.062095
     70 C                    -0.227819       0.107105
     71 C                    -0.235500      -0.066662
     72 C                    -0.256146       0.096529
     73 C                    -0.256935       0.090356
     74 C                    -0.234404      -0.060997
     75 C                    -0.227500       0.105689
     76 C                    -0.235702      -0.065940
     77 H                     0.237199       0.000339
     78 H                     0.236735       0.000334
     79 H                     0.245507      -0.000682
     80 H                     0.245163      -0.000758
     81 H                     0.237740       0.001448
     82 H                     0.245614      -0.000749
     83 H                     0.237667       0.001436
     84 H                     0.245303      -0.000729
     85 H                     0.257033      -0.000002
     86 H                     0.257565      -0.000002
     87 H                     0.240488       0.000002
     88 H                     0.236864      -0.000002
     89 H                     0.240172       0.000001
     90 H                     0.256987      -0.000002
     91 H                     0.258689      -0.000001
     92 H                     0.240054       0.000002
     93 H                     0.236146      -0.000002
     94 H                     0.239565       0.000001
     95 H                     0.226512       0.002352
     96 H                     0.205570      -0.001252
     97 H                     0.204263      -0.001423
     98 H                     0.224865       0.002292
     99 H                     0.235168      -0.005030
    100 H                     0.241327       0.002575
    101 H                     0.236461      -0.004603
    102 H                     0.236700      -0.003763
    103 H                     0.238521       0.002255
    104 H                     0.225557      -0.004087
    105 H                     0.241457       0.002592
    106 H                     0.236231      -0.005042
    107 H                     0.236437      -0.004629
    108 H                     0.223669      -0.004188
    109 H                     0.237943       0.002304
    110 H                     0.236425      -0.003880
    111 H                     0.287269      -0.008325
    112 H                     0.287622      -0.008306
    113 H                     0.247188       0.001045
    114 H                     0.268413      -0.004539
    115 H                     0.266163      -0.003440
    116 H                     0.267391      -0.003494
    117 H                     0.247000       0.001009
    118 H                     0.265998      -0.004478
    119 H                     0.287015      -0.004935
    120 H                     0.283167      -0.004784
    121 H                     0.267447       0.003212
    122 H                     0.266735      -0.005867
    123 H                     0.268779       0.003652
    124 H                     0.287857      -0.004955
    125 H                     0.282852      -0.004706
    126 H                     0.267287       0.003151
    127 H                     0.266821      -0.005790
    128 H                     0.269035       0.003645
  --------------------------------------------------------
  Sum of atomic charges =    -0.000000
  Sum of spin   charges =     2.000000

 -----------------------------------------------------------------
                    Cartesian Multipole Moments
 -----------------------------------------------------------------
    Charge (ESU x 10^10)
                -0.0000
    Dipole Moment (Debye)
         X     -12.2695      Y     -12.3760      Z     -22.5674
       Tot      28.5131
    Quadrupole Moments (Debye-Ang)
        XX    -242.4877     XY     149.0283     YY    -323.3992
        XZ     205.8435     YZ     126.5796     ZZ    -279.3051
    Octopole Moments (Debye-Ang^2)
       XXX    5492.7692    XXY    -643.0944    XYY    1377.1480
       YYY    2398.2856    XXZ   -1840.2872    XYZ   -1238.3377
       YYZ    -673.4654    XZZ    1231.3781    YZZ     262.6572
       ZZZ   -1011.6957
    Hexadecapole Moments (Debye-Ang^3)
      XXXX  -89040.2629   XXXY   -1578.5282   XXYY  -15343.8367
      XYYY  -12919.3087   YYYY  -48726.5381   XXXZ    3912.2910
      XXYZ    9254.7473   XYYZ    2960.6596   YYYZ   -3492.2682
      XXZZ  -15403.8019   XYZZ     -68.8344   YYZZ  -13711.4148
      XZZZ   -4536.3501   YZZZ   -1900.8030   ZZZZ  -44040.8919
 -----------------------------------------------------------------
Archival summary:
1\1\ctcp015\OPT\ProcedureUnspecified\BasisUnspecified\272252(3)\mewes1\ThuOct1810:39:112018ThuOct1810:39:112018\0\\#,OPT,ProcedureUnspecified,BasisUnspecified,\\0,3\N\C,1,1.36679\C,2,1.41047,1,120.106\H,3,1.08264,2,119.637,1,-4.41954,0\C,3,1.37409,2,120.339,1,178.054,0\C,2,1.41062,1,120.336,3,179.258,0\H,6,1.08275,2,119.693,1,-1.40255,0\C,6,1.37422,2,120.301,1,-177.474,0\C,1,1.41194,2,121.498,3,153.565,0\C,9,1.39353,1,119.934,2,-47.2507,0\H,10,1.0823,9,120.341,1,-0.313455,0\C,10,1.38425,9,119.314,1,-178.766,0\H,12,1.0815,10,119.51,9,179.37,0\C,12,1.38851,10,120.3,9,0.263531,0\H,14,1.08178,12,119.973,10,179.801,0\C,14,1.38964,12,120.063,10,0.0604433,0\H,16,1.08154,14,120.183,12,-179.633,0\C,16,1.38297,14,120.28,12,-0.00691518,0\H,18,1.08227,16,120.252,14,-179.327,0\C,1,1.41288,2,121.043,3,-27.382,0\C,20,1.39354,1,119.906,2,-46.9929,0\H,21,1.0823,20,120.289,1,-0.540193,0\C,21,1.38437,20,119.313,1,-178.895,0\H,23,1.08141,21,119.501,20,179.451,0\C,23,1.38865,21,120.275,20,0.23384,0\H,25,1.08173,23,119.988,21,179.913,0\C,25,1.38978,23,120.071,21,0.249043,0\H,27,1.08161,25,120.174,23,-179.773,0\C,27,1.38297,25,120.287,23,-0.133891,0\H,29,1.0822,27,120.33,25,-179.464,0\C,5,1.41796,3,120.413,2,-0.795236,0\C,8,1.49772,6,119.925,2,178.06,0\H,32,1.0893,8,111.71,6,0.466929,0\H,32,1.09092,8,110.98,6,-120.509,0\H,32,1.0911,8,110.715,6,121.173,0\C,5,1.49783,3,119.93,2,179.032,0\H,36,1.08911,5,111.616,3,-0.824682,0\H,36,1.09076,5,111.012,3,-121.805,0\H,36,1.09113,5,110.726,3,119.822,0\B,31,1.58283,5,120.708,3,-176.321,0\C,40,1.52561,31,120.301,5,-91.5658,0\C,41,1.41111,40,120.902,31,0.445907,0\H,42,1.08681,41,119.828,40,0.305837,0\C,42,1.37112,41,120.583,40,-179.611,0\C,44,1.42733,42,120.327,41,-0.140069,0\C,45,1.37495,44,119.871,42,0.0442024,0\H,46,1.08481,45,119.958,44,-179.999,0\C,46,1.41012,45,120.888,44,0.0523454,0\C,44,1.46143,42,131.401,41,179.769,0\C,49,1.37397,44,135.365,42,0.203772,0\H,50,1.08351,49,121.926,44,0.0355721,0\C,49,1.40957,44,106.122,42,-179.908,0\C,52,1.39333,49,124.028,44,-179.927,0\C,52,1.41089,49,111.494,44,-0.0491069,0\C,54,1.3734,52,118.109,49,-179.826,0\H,55,1.08279,54,121.788,52,179.984,0\C,50,1.41429,49,118.623,44,179.965,0\H,57,1.08303,50,118.513,49,179.978,0\C,57,1.37676,50,122.495,49,-0.0980381,0\H,59,1.08347,57,119.916,50,-179.964,0\C,55,1.41508,54,118.657,52,-0.0438225,0\H,61,1.0826,55,118.414,54,-179.987,0\C,61,1.37659,55,122.727,54,0.0226477,0\H,63,1.0834,61,120.104,55,179.955,0\C,40,1.52896,31,119.334,5,89.1282,0\C,65,1.40993,40,120.686,31,-0.455077,0\H,66,1.08646,65,119.69,40,-0.290511,0\C,66,1.37095,65,120.692,40,179.596,0\C,68,1.42661,66,120.453,65,0.111993,0\C,69,1.37657,68,119.668,66,-0.126272,0\H,70,1.08534,69,120.056,68,-179.858,0\C,70,1.41073,69,120.953,68,0.0806783,0\C,68,1.45782,66,131.104,65,-179.692,0\C,73,1.37328,68,135.001,66,0.0819137,0\H,74,1.08363,73,121.882,68,-0.0832252,0\C,73,1.4094,68,106.185,66,179.952,0\C,76,1.39199,73,123.915,68,-179.952,0\C,76,1.41162,73,111.373,68,-0.0536386,0\C,78,1.37284,76,118.02,73,-179.957,0\H,79,1.08284,78,121.75,76,179.942,0\C,74,1.41364,73,118.415,68,179.908,0\H,81,1.08293,74,118.579,73,-179.981,0\C,81,1.37718,74,122.465,73,-0.0173274,0\H,83,1.0833,81,119.846,74,-179.967,0\C,79,1.41534,78,118.587,76,-0.0458447,0\H,85,1.08257,79,118.31,78,-179.938,0\C,85,1.37698,79,122.812,78,0.113799,0\H,87,1.08319,85,120.03,79,179.958,0\B,72,1.53841,70,120.943,69,-179.997,0\C,89,1.58203,72,121.408,70,-0.513114,0\C,90,1.4007,89,120.667,72,92.8927,0\C,91,1.39013,90,120.459,89,176.891,0\H,92,1.08426,91,119.634,90,-178.741,0\C,92,1.38852,91,120.623,90,1.30275,0\C,94,1.38937,92,119.277,91,-0.227625,0\H,95,1.08421,94,119.584,92,179.637,0\C,95,1.39,94,120.589,92,-1.09128,0\N,94,1.41342,92,120.377,91,-179.865,0\C,98,1.40071,94,119.391,92,127.881,0\C,99,1.39629,98,120.738,94,146.258,0\H,100,1.08251,99,119.812,98,0.0118343,0\C,100,1.38534,99,120.306,98,-179.72,0\H,102,1.08258,100,119.206,99,179.993,0\C,102,1.38853,100,120.741,99,1.08032,0\H,104,1.08192,102,120.503,100,179.338,0\C,104,1.38811,102,119.033,100,-0.524971,0\H,106,1.08273,104,120.117,102,-179.743,0\C,106,1.38513,104,120.695,102,-0.489715,0\H,108,1.08239,106,119.754,104,-179.252,0\C,98,1.40246,94,118.869,92,-45.4607,0\C,110,1.39517,98,121.229,94,136.141,0\H,111,1.08246,110,119.885,98,0.754337,0\C,111,1.38616,110,120.29,98,-178.616,0\H,113,1.0826,111,119.218,110,179.715,0\C,113,1.38795,111,120.697,110,0.927551,0\H,115,1.08193,113,120.464,111,179.275,0\C,115,1.38868,113,119.093,111,-0.513576,0\H,117,1.08263,115,120.113,113,-179.893,0\C,117,1.38477,115,120.624,113,-0.417027,0\H,119,1.08271,117,119.939,115,-179.804,0\C,97,1.50362,95,119.859,94,-178.884,0\H,121,1.08995,97,111.818,95,-0.609224,0\H,121,1.09178,97,111.344,95,-121.433,0\H,121,1.09236,97,111.135,95,119.884,0\C,91,1.50418,90,119.884,89,-1.84529,0\H,125,1.0899,91,111.7,90,-178.315,0\H,125,1.09183,91,111.296,90,-57.7516,0\H,125,1.09212,91,111.369,90,61.0698,0\\\@

 Total job time:  133672.86s(wall), 546662.46s(cpu) 
 Thu Oct 18 10:39:11 2018

        *************************************************************
        *                                                           *
        *  Thank you very much for using Q-Chem.  Have a nice day.  *
        *                                                           *
        *************************************************************


0 sent ACK to 0 
now end server 0 ... 
