mFile = /cm/shared/apps/q-chem/intel/QCHEM_5.0.1_Trunk/bin/mpi/machines
Process 0 of 1 is on ctcp011 - thread support 0
initial socket setup ...start
initial socket setup ...done 
now start server 0 ... 
ctcp011.cm.cluster 10.141.0
Q-Chem Developer Version! Running on 10.141.0.*
                  Welcome to Q-Chem
     A Quantum Leap Into The Future Of Chemistry


 Q-Chem 5.0, Q-Chem, Inc., Pleasanton, CA (2017)

 Yihan Shao,  Zhengting Gan,  E. Epifanovsky,  A. T. B. Gilbert,  M. Wormit,  
 J. Kussmann,  A. W. Lange,  A. Behn,  Jia Deng,  Xintian Feng,  D. Ghosh,  
 M. Goldey,  P. R. Horn,  L. D. Jacobson,  I. Kaliman,  T. Kus,  A. Landau,  
 Jie Liu,  E. I. Proynov,  R. M. Richard,  R. P. Steele,  E. J. Sundstrom,  
 H. L. Woodcock III,  P. M. Zimmerman,  D. Zuev,  B. Albrecht,  E. Alguire,  
 S. A. Baeppler,  Z. Benda,  Y. A. Bernard,  E. J. Berquist,  K. B. Bravaya,  
 D. Casanova,  Chun-Min Chang,  Yunqing Chen,  A. Chien,  K. D. Closser,  
 M. P. Coons,  S. Dasgupta,  M. Diedenhofen,  Hainam Do,  R. G. Edgar,  
 Po-Tung Fang,  S. Fatehi,  Qingguo Feng,  Qinghui Ge,  A. Ghysels,  
 J. Gomes,  J. Gonthier,  A. Gunina,  M. W. D. Hanson-Heine,  
 P. H. P. Harbach,  A. W. Hauser,  J. E. Herr,  E. G. Hohenstein,  
 Z. C. Holden,  Kerwin Hui,  T.-C. Jagau,  Hyunjun Ji,  B. Kaduk,  
 K. Khistyaev,  Jaehoon Kim,  P. Klunzinger,  K. Koh,  D. Kosenkov,  
 T. Kowalczyk,  C. M. Krauter,  A. Kunitsa,  Ka Un Lao,  A. Laurent,  
 K. V. Lawler,  Joonho Lee,  D. Lefrancois,  S. Lehtola,  D. S. Levine,  
 Yi-Pei Li,  You-Sheng Lin,  Fenglai Liu,  E. Livshits,  A. Luenser,  
 P. Manohar,  E. Mansoor,  S. F. Manzer,  Shan-Ping Mao,  Yuezhi Mao,  
 N. Mardirossian,  A. V. Marenich,  L. A. Martinez-Martinez,  S. A. Maurer,  
 N. J. Mayhall,  S. C. McKenzie,  J.-M. Mewes,  A. F. Morrison,  K. Nanda,  
 T. S. Nguyen-Beck,  R. Olivares-Amaya,  J. A. Parkhill,  T. M. Perrine,  
 F. Plasser,  S. Prager,  A. Prociuk,  D. R. Rehn,  F. Rob,  M. Schneider,  
 N. Sergueev,  S. M. Sharada,  S. Sharma,  D. W. Small,  T. Stauch,  
 T. Stein,  Yu-Chuan Su,  A. J. W. Thom,  T. Tsuchimochi,  L. Vogt,  
 O. Vydrov,  M. A. Watson,  J. Wenzel,  M. de Wergifosse,  T. A. Wesolowski,  
 A. White,  J. Witte,  A. Yamada,  Jun Yang,  K. Yao,  S. Yeganeh,  
 S. R. Yost,  Zhi-Qiang You,  A. Zech,  Igor Ying Zhang,  Xing Zhang,  
 Yan Zhao,  Ying Zhu,  B. R. Brooks,  G. K. L. Chan,  C. J. Cramer,  
 M. S. Gordon,  W. J. Hehre,  A. Klamt,  M. W. Schmidt,  C. D. Sherrill,  
 D. G. Truhlar,  A. Aspuru-Guzik,  R. Baer,  A. T. Bell,  N. A. Besley,  
 Jeng-Da Chai,  A. Dreuw,  B. D. Dunietz,  T. R. Furlani,  Chao-Ping Hsu,  
 Yousung Jung,  Jing Kong,  D. S. Lambrecht,  WanZhen Liang,  C. Ochsenfeld,  
 V. A. Rassolov,  L. V. Slipchenko,  J. E. Subotnik,  T. Van Voorhis,  
 J. M. Herbert,  A. I. Krylov,  P. M. W. Gill,  M. Head-Gordon

 Contributors to earlier versions of Q-Chem not listed above: 
 R. D. Adamson,  B. Austin,  J. Baker,  G. J. O. Beran,  K. Brandhorst,  
 S. T. Brown,  E. F. C. Byrd,  A. K. Chakraborty,  C.-L. Cheng,  
 Siu Hung Chien,  D. M. Chipman,  D. L. Crittenden,  H. Dachsel,  
 R. A. DiStasio Jr.,  R. J. Doerksen,  A. D. Dutoi,  L. Fusti-Molnar,  
 W. A. Goddard III,  A. Golubeva-Zadorozhnaya,  S. R. Gwaltney,  G. Hawkins,  
 A. Heyden,  S. Hirata,  G. Kedziora,  F. J. Keil,  C. Kelley,  Jihan Kim,  
 R. A. King,  R. Z. Khaliullin,  P. P. Korambath,  W. Kurlancheek,  
 A. M. Lee,  M. S. Lee,  S. V. Levchenko,  Ching Yeh Lin,  D. Liotard,  
 R. C. Lochan,  I. Lotan,  P. E. Maslen,  N. Nair,  D. P. O'Neill,  
 D. Neuhauser,  E. Neuscamman,  C. M. Oana,  R. Olson,  B. Peters,  
 R. Peverati,  P. A. Pieniazek,  Y. M. Rhee,  J. Ritchie,  M. A. Rohrdanz,  
 E. Rosta,  N. J. Russ,  H. F. Schaefer III,  N. E. Schultz,  N. Shenvi,  
 A. C. Simmonett,  A. Sodt,  D. Stuck,  K. S. Thanthiriwatte,  V. Vanovschi,  
 Tao Wang,  A. Warshel,  C. F. Williams,  Q. Wu,  X. Xu,  W. Zhang

 Please cite Q-Chem as follows:
 Y. Shao et al., Mol. Phys. 113, 184-215 (2015)
 DOI: 10.1080/00268976.2014.952696

 Q-Chem 5.0.1 for Intel X86 EM64T Linux

 Parts of Q-Chem use Armadillo 5.200.1 (Boston Tea Smuggler).
 http://arma.sourceforge.net/

 Q-Chem begins on Thu Oct 25 04:03:43 2018  

Host: ctcp011
0

     Scratch files written to /scratch/mewes/138331/qchem21313//
 Parallel job on  1  processors
The previous job contains 0 fragments, simply inherited here
Symmetry turned off for PCM/SM12/SMD calculation

Checking the input file for inconsistencies... 	...done.

--------------------------------------------------------------
User input:
--------------------------------------------------------------
$rem
threads 8
jobtype opt
method PBEh-3c
basis def2-mSVP
mem_static      1024
mem_total       8000
sym_ignore      true
unrestricted true
scf_algorithm   diis
scf_max_cycles  250
solvent_method  pcm
geom_opt_tol_energy 25
geom_opt_tol_gradient 75
$end

$pcm
theory  iefpcm
$end

$solvent
dielectric      1.0001
$end

$molecule
read utLEincoords.mol
$end

--------------------------------------------------------------
 Adding empirical dispersion correction 
 ----------------------------------------------------------------
 Doing -D3(BJ) with
 s6 =   1.00000
 s8 =   0.00000
 a1 =   0.48600
 a2 =   4.50000
 -D3 energy including 3body term =     -0.1217031975 hartrees
 ----------------------------------------------------------------
 Adding gCP correction 
 ----------------------------------------------------------------
 gCP energy =      0.1708445502 hartrees
 ----------------------------------------------------------------
             Standard Nuclear Orientation (Angstroms)
    I     Atom           X                Y                Z
 ----------------------------------------------------------------
    1      C      -4.8437830000    -0.3520910000     4.5098680000
    2      C      -5.4514100000    -0.8964070000     3.3897930000
    3      C      -4.7402150000    -1.0191990000     2.1859000000
    4      C      -3.4204850000    -0.5630410000     2.1358210000
    5      C      -2.8321500000     0.0090360000     3.2600760000
    6      C      -3.5307790000     0.1070890000     4.4538020000
    7      N      -2.9192670000     0.6516430000     5.6002050000
    8      C      -6.8687260000    -1.3929560000     3.4747350000
    9      C      -2.6076270000    -0.6611940000     0.8726810000
   10      C      -1.6322070000     0.2278770000     5.9646250000
   11      C      -0.7116310000     1.1264660000     6.5023590000
   12      C      -4.4549950000     2.5116160000     5.8390170000
   13      C      -3.6479670000     1.5309210000     6.4155450000
   14      C      -5.2097850000     3.3539180000     6.6369650000
   15      C      -5.1596700000     3.2496090000     8.0194600000
   16      C      -4.3491430000     2.2824540000     8.5952560000
   17      C      -3.6051080000     1.4220900000     7.8050090000
   18      C      -1.2520930000    -1.1022770000     5.7829450000
   19      C       0.0240630000    -1.5170240000     6.1216800000
   20      C       0.9355480000    -0.6239970000     6.6658630000
   21      C       0.5558010000     0.6962550000     6.8580100000
   22      C      -6.7412780000    -1.5674470000    -1.2868730000
   23      C      -6.1516460000    -0.8974970000    -0.1345050000
   24      B      -5.4168180000    -1.7119590000     0.9422930000
   25      C      -5.3440580000    -3.2406410000     0.7909820000
   26      C      -5.9353510000    -3.9013460000    -0.3610680000
   27      B      -6.6499720000    -3.0912920000    -1.4501520000
   28      C      -4.7119700000    -4.0133230000     1.7786800000
   29      C      -4.6510560000    -5.3803470000     1.6581600000
   30      C      -5.2393210000    -6.0345500000     0.5046710000
   31      C      -5.8600520000    -5.2951670000    -0.4726080000
   32      C      -7.4065810000    -0.8117240000    -2.2562480000
   33      C      -7.5024770000     0.5532310000    -2.1254630000
   34      C      -6.9125130000     1.2295390000    -0.9826020000
   35      C      -6.2575730000     0.4983830000    -0.0191980000
   36      C      -3.3991980000    -6.4323410000     3.6970740000
   37      C      -2.9863630000    -7.6775480000     4.2161320000
   38      C      -3.2367240000    -8.8700890000     3.5740470000
   39      C      -3.9336390000    -8.8819980000     2.3427150000
   40      C      -4.3293600000    -7.6408630000     1.8531580000
   41      C      -4.0784200000    -6.4126550000     2.5022490000
   42      C      -4.2734320000   -10.0042270000     1.5483130000
   43      C      -4.9562700000    -9.8356630000     0.3634570000
   44      C      -5.3453300000    -8.5672250000    -0.1127960000
   45      C      -5.0289180000    -7.4597230000     0.6402030000
   46      C      -7.3324120000     5.0235830000    -0.9019740000
   47      C      -6.8871490000     3.7790640000    -0.4092040000
   48      C      -7.1772340000     2.6476870000    -1.1337090000
   49      C      -7.9072740000     2.7907530000    -2.3346980000
   50      C      -8.3600920000     4.0031190000    -2.8424210000
   51      C      -8.0451410000     5.1495000000    -2.0745570000
   52      C      -8.1264330000     1.5453860000    -2.9642530000
   53      C      -8.8278620000     1.5089430000    -4.1477560000
   54      C      -9.2971580000     2.7251960000    -4.6803230000
   55      C      -9.0787080000     3.9379000000    -4.0616570000
   56      C      -9.1969550000    -4.8907410000    -3.7308540000
   57      C      -8.6154520000    -4.2728540000    -2.6361960000
   58      C      -7.2896460000    -3.8113490000    -2.6991300000
   59      C      -6.5729710000    -4.0041690000    -3.8834410000
   60      C      -7.1629530000    -4.6459640000    -4.9688210000
   61      C      -8.4757980000    -5.0876440000    -4.9062730000
   62      N      -9.0786210000    -5.7210330000    -6.0109500000
   63      C      -9.4211000000    -4.0805150000    -1.3819470000
   64      C      -5.1469450000    -3.5458880000    -4.0247850000
   65      C      -8.8639440000    -5.2316800000    -7.3090250000
   66      C      -8.8959080000    -3.8617130000    -7.5668010000
   67      C     -11.0427690000    -7.0523130000    -6.5348020000
   68      C      -9.8577330000    -6.8734950000    -5.8210000000
   69      C     -11.8015780000    -8.1962500000    -6.3532020000
   70      C     -11.4081370000    -9.1697750000    -5.4468380000
   71      C     -10.2353210000    -8.9897800000    -4.7287480000
   72      C      -9.4588240000    -7.8590370000    -4.9188030000
   73      C      -8.6192290000    -6.1109550000    -8.3642070000
   74      C      -8.4244330000    -5.6283780000    -9.6471980000
   75      C      -8.4488950000    -4.2647020000    -9.8995730000
   76      C      -8.6799740000    -3.3873840000    -8.8500020000
   77      H      -5.3955910000    -0.2840520000     5.4400630000
   78      H      -1.8116390000     0.3710190000     3.2064500000
   79      H      -6.9293440000    -2.4660020000     3.2798580000
   80      H      -7.5089710000    -0.9030350000     2.7379290000
   81      H      -7.3005660000    -1.2115570000     4.4584310000
   82      H      -3.1561820000    -1.1345380000     0.0586750000
   83      H      -1.6985730000    -1.2437800000     1.0316070000
   84      H      -2.3000120000     0.3254830000     0.5216860000
   85      H      -0.9916880000     2.1628370000     6.6391450000
   86      H      -4.4961340000     2.6034700000     4.7612650000
   87      H      -5.8351580000     4.1050530000     6.1719180000
   88      H      -5.7473050000     3.9122040000     8.6404210000
   89      H      -4.3071120000     2.1816900000     9.6720490000
   90      H      -2.9934470000     0.6565100000     8.2643780000
   91      H      -1.9603790000    -1.8100340000     5.3723340000
   92      H       0.3028020000    -2.5520760000     5.9707910000
   93      H       1.9299530000    -0.9530620000     6.9357850000
   94      H       1.2582360000     1.4065100000     7.2743880000
   95      H      -4.2772900000    -3.5193030000     2.6394480000
   96      H      -6.3012810000    -5.7849720000    -1.3337760000
   97      H      -7.8476300000    -1.3149410000    -3.1097480000
   98      H      -5.8160480000     0.9899600000     0.8401740000
   99      H      -3.1777080000    -5.5237250000     4.2415320000
  100      H      -2.4519020000    -7.6939160000     5.1567770000
  101      H      -2.8986660000    -9.8007890000     4.0127760000
  102      H      -3.9962480000   -11.0001860000     1.8712140000
  103      H      -5.2039890000   -10.7085070000    -0.2267140000
  104      H      -5.8787440000    -8.4867490000    -1.0515350000
  105      H      -7.1033170000     5.9147980000    -0.3328470000
  106      H      -6.3314820000     3.7341140000     0.5183490000
  107      H      -8.3637500000     6.1290740000    -2.4082720000
  108      H      -9.0219340000     0.5792860000    -4.6677470000
  109      H      -9.8499070000     2.7051570000    -5.6105330000
  110      H      -9.4607720000     4.8452920000    -4.5124930000
  111      H     -10.2270130000    -5.2238260000    -3.6761050000
  112      H      -6.5893610000    -4.7994780000    -5.8762370000
  113      H     -10.4379510000    -4.4551710000    -1.4966700000
  114      H      -9.4866060000    -3.0260100000    -1.1059410000
  115      H      -8.9715840000    -4.6024640000    -0.5345910000
  116      H      -5.0391100000    -2.8409940000    -4.8511090000
  117      H      -4.4817140000    -4.3861800000    -4.2316660000
  118      H      -4.7745370000    -3.0528540000    -3.1276880000
  119      H      -9.0912290000    -3.1703100000    -6.7575300000
  120      H     -11.3686190000    -6.2938300000    -7.2348850000
  121      H     -12.7177420000    -8.3193750000    -6.9164050000
  122      H     -12.0085930000   -10.0579920000    -5.3027040000
  123      H      -9.9115160000    -9.7438240000    -4.0229870000
  124      H      -8.5370850000    -7.7350240000    -4.3657720000
  125      H      -8.5852850000    -7.1766760000    -8.1777970000
  126      H      -8.2377880000    -6.3260700000   -10.4534660000
  127      H      -8.2897150000    -3.8900540000   -10.9018020000
  128      H      -8.7076150000    -2.3209600000    -9.0330200000
 ----------------------------------------------------------------
 Nuclear Repulsion Energy = 10753.6218198647 hartrees
 There are      255 alpha and      253 beta electrons
 Requested basis set is def2-mSVP
 There are 636 shells and 1244 basis functions

 Total QAlloc Memory Limit   8000 MB
 Mega-Array Size      1001 MB
 MEM_STATIC part      1024 MB
 Discretize the solute cavity surface with Lebedev spheres
	Using 302 Lebedev grid points for each H atom
	Using 302 Lebedev grid points for other atoms
	Atomic van der Waals radii will be scaled by 1.20
 Remove points where switching function is < 1.0e-08
 Keep 13506 surface tesserae and discard 25150 interior tesserae
 Molecular Surface Area = 1019.747 Angst**2
 A cutoff of  1.0D-11 yielded  54217 shell pairs
 There are    214655 function pairs (    236558 Cartesian)
 
 -------------------------------------------------------
 OpenMP Integral Computing Module                       
 Release: version 1.0, May 2013, Q-Chem Inc. Pittsburgh 
 -------------------------------------------------------
 Integral Job Info:
 Integral job number is                      11
 Integral operator is                         1
 short-range coefficients                     0
 long-range coefficients              100000000
 Omega coefficients                           0
 if combine SR and LR in K                    0
 Integral screening is                        0
 Integral computing path is                   2
 max size of driver memory is            800000
 size of driver memory is                593474
 size of scratch memory is              1809772
 max col of scratch BK array               1296
 max len of scratch array in speh3          155
 max len of scratch index in speh4           18
 max int batch size is                      520
 min int batch size is                       52
 fixed nKL is                                52
 max L of basis functions is                  2
 order of int derivative is                   0
 number of shells is                        636
 number of basis is                        1320
 number of cartesian basis is              1320
 number of contracted shell pairs         54217
 number of primitive shell pairs         113359
 maxK2 (contraction) of shell pair           25
 max number of K2 of shell pair               1
 max number of CS2 of shell pair          13089
 max number of PS2 of shell pair          19865
 mem total for path MDJ                  556808
 -------------------------------------------------------
 Smallest overlap matrix eigenvalue = 2.03E-04

 Scale SEOQF with 1.000000e-02/1.000000e-02/1.000000e-02

 Standard Electronic Orientation quadrupole field applied
 Nucleus-field energy     =     0.0000000438 hartrees
 Guess from superposition of atomic densities
 Warning:  Energy on first SCF cycle will be non-variational
 An unrestricted hybrid HF-DFT SCF calculation will be
 performed using Pulay DIIS extrapolation
 Polarizable Continuum solvation model will be applied
 Exchange:     0.4200 Hartree-Fock + 0.5800 PBEh-3c
 Correlation:  1.0000 PBEh-3c
 Using SG-1 standard quadrature grid
 Dispersion:   Grimme D3
 SCF converges when DIIS error is below 1.0E-08
 using 8 threads for integral computing
 -------------------------------------------------------
 OpenMP Integral computing Module                
 Release: version 1.0, May 2013, Q-Chem Inc. Pittsburgh 
 -------------------------------------------------------
 ---------------------------------------
  Cycle       Energy         DIIS Error
 ---------------------------------------
    1   -2953.8449042699      2.39E-02
 Using non-symmetric K matrix
    2   -2927.0472968343      1.76E-03
    3   -2926.1645192477      2.47E-03
    4   -2927.4014888989      1.18E-03
    5   -2927.7551274421      2.35E-04
    6   -2927.7607433787      2.10E-04
    7   -2927.7434682764      3.18E-04
    8   -2927.7718095354      8.26E-05
    9   -2927.7718937506      8.59E-05
   10   -2927.7731164240      6.06E-05
   11   -2927.7737378065      4.44E-05
   12   -2927.7742582537      2.63E-05
   13   -2927.7744334174      2.10E-05
   14   -2927.7745542467      1.93E-05
   15   -2927.7745561442      1.93E-05
   16   -2927.7728323835      8.07E-05
   17   -2927.7748234452      1.12E-05
   18   -2927.7749901362      1.24E-05
   19   -2927.7746817222      1.30E-05
   20   -2927.7743485330      1.82E-05
   21   -2927.7743785204      1.75E-05
   22   -2927.7744318993      1.88E-05
   23   -2927.7743950312      1.66E-05
   24   -2927.7743786093      1.38E-05
   25   -2927.7744332309      9.23E-06
   26   -2927.7744701674      4.86E-06
   27   -2927.7744738862      2.68E-06
   28   -2927.7744783736      1.74E-06
   29   -2927.7744807135      4.83E-07
   30   -2927.7744796732      1.14E-06
   31   -2927.7744802776      6.70E-07
   32   -2927.7744803837      2.98E-07
   33   -2927.7744804777      2.08E-07
   34   -2927.7744805714      9.09E-08
   35   -2927.7744806130      2.61E-08
   36   -2927.7744806271      1.95E-08
   37   -2927.7744806304      2.40E-08
   38   -2927.7744806331      8.15E-09 Convergence criterion met
 ---------------------------------------

************** Final PCM Free Energy Summary **************
 G_electrostatic  =      -0.00000286 hartree =      -0.00179159 kcal/mol
 G_cavitation     =       0.00000000 hartree =       0.00000000 kcal/mol
 G_dispersion     =       0.00000000 hartree =       0.00000000 kcal/mol
 G_repulsion      =       0.00000000 hartree =       0.00000000 kcal/mol
 --------------------------------------------------
 Non-electrostatic Free Energy =       0.00000000 hartree =       0.00000000 kcal/mol
 Total                         =      -0.00000286 hartree =      -0.00179159 kcal/mol
 --------------------------------------------------
 SCF Energy (H0 + V/2)                       =   -2927.77448063 
 Solute Internal Energy (H0)                 =   -2927.77447778 
 Total Free Energy (H0 + V/2 + non-elec)     =   -2927.77448063 hartree
                                             = -1837206.21554940 kcal/mol
***********************************************************

 <S^2> = 2.0536
 SCF time:  CPU 23571.94 s  wall 8370.42 s
 SCF   energy in the final basis set = -2927.77448063
 Total energy in the final basis set = -2927.77448063
 
 --------------------------------------------------------------
 
                    Orbital Energies (a.u.)
 --------------------------------------------------------------
 
 Alpha MOs
 -- Occupied --
-14.718 -14.718 -10.515 -10.515 -10.515 -10.515 -10.504 -10.503
-10.470 -10.470 -10.470 -10.470 -10.470 -10.469 -10.469 -10.469
-10.468 -10.468 -10.468 -10.468 -10.468 -10.468 -10.467 -10.467
-10.467 -10.467 -10.467 -10.466 -10.456 -10.456 -10.456 -10.455
-10.449 -10.449 -10.448 -10.448 -10.438 -10.437 -10.436 -10.436
-10.435 -10.435 -10.435 -10.435 -10.435 -10.435 -10.435 -10.435
-10.434 -10.434 -10.433 -10.432 -10.432 -10.431 -10.428 -10.427
-10.423 -10.423 -10.422 -10.421 -10.419 -10.419 -10.419 -10.419
-10.418 -10.418 -10.418 -10.418 -10.418 -10.417 -10.395 -10.395
-10.394 -10.394  -6.889  -6.889  -1.115  -1.115  -0.984  -0.984
 -0.984  -0.983  -0.977  -0.977  -0.956  -0.956  -0.925  -0.923
 -0.907  -0.906  -0.879  -0.879  -0.878  -0.876  -0.871  -0.870
 -0.869  -0.863  -0.860  -0.860  -0.858  -0.857  -0.827  -0.824
 -0.821  -0.821  -0.820  -0.819  -0.785  -0.783  -0.782  -0.768
 -0.768  -0.767  -0.766  -0.765  -0.728  -0.728  -0.727  -0.727
 -0.705  -0.704  -0.704  -0.702  -0.702  -0.694  -0.694  -0.688
 -0.662  -0.660  -0.657  -0.651  -0.651  -0.648  -0.644  -0.635
 -0.628  -0.627  -0.614  -0.611  -0.605  -0.604  -0.583  -0.582
 -0.573  -0.571  -0.570  -0.569  -0.568  -0.565  -0.561  -0.561
 -0.555  -0.547  -0.547  -0.539  -0.539  -0.539  -0.537  -0.529
 -0.529  -0.517  -0.517  -0.517  -0.516  -0.513  -0.505  -0.505
 -0.503  -0.503  -0.500  -0.499  -0.492  -0.483  -0.477  -0.476
 -0.475  -0.471  -0.470  -0.469  -0.468  -0.463  -0.461  -0.461
 -0.459  -0.459  -0.458  -0.457  -0.457  -0.456  -0.454  -0.453
 -0.450  -0.450  -0.450  -0.445  -0.444  -0.441  -0.436  -0.435
 -0.435  -0.433  -0.432  -0.432  -0.427  -0.426  -0.420  -0.419
 -0.418  -0.417  -0.417  -0.414  -0.413  -0.408  -0.400  -0.397
 -0.390  -0.388  -0.388  -0.384  -0.377  -0.376  -0.372  -0.371
 -0.370  -0.369  -0.364  -0.358  -0.345  -0.341  -0.338  -0.327
 -0.326  -0.323  -0.321  -0.320  -0.317  -0.315  -0.314  -0.313
 -0.300  -0.295  -0.290  -0.288  -0.282  -0.281  -0.273  -0.271
 -0.250  -0.248  -0.247  -0.239  -0.228  -0.217  -0.135
 -- Virtual --
 -0.043  -0.016  -0.015  -0.014  -0.013  -0.012  -0.006  -0.005
 -0.005   0.007   0.007   0.021   0.023   0.025   0.032   0.039
  0.039   0.050   0.068   0.096   0.115   0.115   0.116   0.124
  0.124   0.130   0.130   0.144   0.147   0.152   0.160   0.161
  0.163   0.165   0.166   0.167   0.170   0.175   0.176   0.179
  0.183   0.184   0.185   0.186   0.189   0.190   0.191   0.193
  0.193   0.193   0.194   0.196   0.197   0.198   0.203   0.203
  0.205   0.207   0.209   0.211   0.216   0.217   0.218   0.218
  0.220   0.220   0.221   0.222   0.226   0.228   0.232   0.232
  0.233   0.234   0.236   0.237   0.238   0.239   0.240   0.246
  0.247   0.252   0.254   0.257   0.257   0.261   0.262   0.265
  0.266   0.272   0.275   0.276   0.278   0.278   0.279   0.280
  0.288   0.291   0.292   0.293   0.297   0.300   0.301   0.303
  0.303   0.305   0.308   0.309   0.311   0.312   0.313   0.314
  0.316   0.317   0.320   0.322   0.325   0.329   0.332   0.336
  0.337   0.340   0.343   0.346   0.349   0.352   0.355   0.355
  0.363   0.370   0.372   0.378   0.380   0.381   0.388   0.393
  0.395   0.397   0.400   0.401   0.411   0.422   0.428   0.430
  0.431   0.434   0.438   0.440   0.443   0.446   0.449   0.449
  0.454   0.463   0.474   0.476   0.478   0.483   0.488   0.490
  0.495   0.499   0.502   0.503   0.505   0.507   0.509   0.512
  0.517   0.518   0.519   0.521   0.524   0.525   0.527   0.531
  0.536   0.540   0.541   0.544   0.545   0.546   0.547   0.552
  0.554   0.554   0.556   0.558   0.559   0.561   0.562   0.564
  0.567   0.568   0.570   0.571   0.573   0.574   0.578   0.580
  0.581   0.582   0.584   0.584   0.586   0.590   0.591   0.592
  0.592   0.593   0.594   0.595   0.596   0.597   0.599   0.602
  0.603   0.604   0.606   0.607   0.608   0.608   0.610   0.610
  0.611   0.613   0.615   0.615   0.616   0.617   0.618   0.620
  0.620   0.621   0.623   0.626   0.627   0.628   0.629   0.631
  0.632   0.633   0.635   0.635   0.635   0.637   0.637   0.640
  0.642   0.644   0.645   0.648   0.649   0.650   0.651   0.654
  0.656   0.659   0.663   0.664   0.666   0.673   0.675   0.675
  0.677   0.678   0.678   0.680   0.683   0.684   0.687   0.690
  0.690   0.693   0.693   0.695   0.699   0.701   0.705   0.707
  0.710   0.711   0.714   0.717   0.725   0.726   0.728   0.730
  0.731   0.739   0.741   0.747   0.748   0.754   0.756   0.757
  0.758   0.760   0.762   0.764   0.768   0.772   0.775   0.777
  0.780   0.781   0.784   0.788   0.792   0.793   0.794   0.796
  0.799   0.800   0.802   0.806   0.810   0.812   0.820   0.821
  0.823   0.824   0.826   0.832   0.849   0.855   0.861   0.866
  0.876   0.877   0.882   0.886   0.889   0.891   0.894   0.902
  0.904   0.909   0.913   0.919   0.922   0.926   0.927   0.928
  0.928   0.930   0.932   0.935   0.936   0.940   0.941   0.942
  0.943   0.944   0.946   0.949   0.951   0.953   0.955   0.957
  0.959   0.961   0.971   0.972   0.973   0.974   0.977   0.981
  0.986   0.988   0.989   0.991   0.991   0.992   0.993   1.004
  1.004   1.005   1.006   1.008   1.009   1.011   1.018   1.023
  1.024   1.026   1.028   1.029   1.031   1.033   1.033   1.036
  1.037   1.039   1.043   1.044   1.045   1.049   1.057   1.057
  1.059   1.060   1.062   1.063   1.065   1.066   1.067   1.069
  1.069   1.072   1.073   1.076   1.084   1.087   1.092   1.094
  1.097   1.099   1.103   1.105   1.109   1.110   1.110   1.111
  1.115   1.119   1.122   1.129   1.130   1.131   1.132   1.136
  1.139   1.139   1.152   1.152   1.155   1.157   1.158   1.169
  1.169   1.172   1.172   1.174   1.179   1.182   1.184   1.185
  1.186   1.190   1.194   1.199   1.205   1.208   1.213   1.214
  1.221   1.228   1.229   1.234   1.237   1.239   1.246   1.250
  1.254   1.257   1.259   1.267   1.269   1.269   1.282   1.283
  1.286   1.290   1.294   1.296   1.297   1.300   1.301   1.302
  1.305   1.312   1.317   1.318   1.321   1.323   1.326   1.326
  1.329   1.331   1.333   1.337   1.338   1.351   1.353   1.357
  1.367   1.376   1.382   1.383   1.387   1.391   1.396   1.402
  1.404   1.405   1.408   1.409   1.413   1.418   1.421   1.429
  1.429   1.434   1.434   1.436   1.443   1.448   1.456   1.458
  1.460   1.463   1.467   1.468   1.469   1.476   1.483   1.484
  1.487   1.493   1.497   1.500   1.504   1.505   1.512   1.522
  1.524   1.524   1.527   1.528   1.536   1.537   1.537   1.538
  1.541   1.543   1.544   1.545   1.547   1.548   1.550   1.550
  1.552   1.554   1.556   1.556   1.557   1.557   1.562   1.565
  1.575   1.577   1.583   1.584   1.585   1.586   1.587   1.587
  1.593   1.595   1.602   1.603   1.611   1.621   1.632   1.634
  1.642   1.662   1.665   1.677   1.684   1.700   1.707   1.708
  1.715   1.718   1.723   1.728   1.729   1.734   1.739   1.759
  1.760   1.775   1.782   1.797   1.802   1.808   1.814   1.819
  1.828   1.830   1.836   1.839   1.839   1.841   1.842   1.843
  1.845   1.850   1.850   1.852   1.855   1.859   1.865   1.867
  1.869   1.870   1.872   1.874   1.887   1.895   1.897   1.904
  1.907   1.909   1.912   1.923   1.929   1.932   1.934   1.935
  1.939   1.948   1.949   1.951   1.953   1.955   1.957   1.960
  1.964   1.970   1.972   1.973   1.981   1.986   1.990   1.995
  1.996   2.002   2.008   2.009   2.009   2.010   2.013   2.018
  2.028   2.038   2.046   2.048   2.048   2.050   2.053   2.058
  2.063   2.070   2.080   2.082   2.085   2.086   2.091   2.096
  2.106   2.119   2.122   2.122   2.124   2.130   2.131   2.137
  2.139   2.147   2.155   2.159   2.166   2.169   2.169   2.169
  2.172   2.176   2.177   2.179   2.182   2.183   2.187   2.187
  2.194   2.194   2.200   2.201   2.202   2.203   2.212   2.213
  2.215   2.219   2.220   2.226   2.226   2.228   2.234   2.235
  2.241   2.245   2.253   2.258   2.260   2.261   2.266   2.266
  2.268   2.269   2.274   2.280   2.285   2.291   2.292   2.292
  2.301   2.303   2.307   2.310   2.311   2.314   2.322   2.339
  2.340   2.347   2.348   2.349   2.350   2.351   2.352   2.355
  2.362   2.365   2.365   2.366   2.369   2.371   2.373   2.375
  2.379   2.381   2.385   2.387   2.388   2.393   2.395   2.401
  2.407   2.410   2.414   2.419   2.430   2.432   2.433   2.434
  2.444   2.446   2.449   2.452   2.454   2.456   2.459   2.461
  2.464   2.469   2.476   2.476   2.478   2.495   2.497   2.505
  2.508   2.512   2.517   2.537   2.538   2.542   2.555   2.568
  2.581   2.583   2.588   2.595   2.606   2.614   2.620   2.620
  2.633   2.635   2.637   2.638   2.656   2.657   2.659   2.666
  2.666   2.667   2.671   2.673   2.696   2.713   2.714   2.714
  2.715   2.717   2.717   2.732   2.735   2.736   2.739   2.739
  2.742   2.743   2.757   2.759   2.760   2.762   2.765   2.766
  2.771   2.772   2.783   2.786   2.791   2.791   2.792   2.798
  2.800   2.804   2.806   2.807   2.809   2.812   2.812   2.818
  2.819   2.833   2.834   2.835   2.836   2.836   2.853   2.855
  2.867   2.881   2.885   2.890   2.893   2.895   2.898   2.899
  2.903   2.906   2.908   2.922   2.924   2.927   2.935   2.956
  2.976   2.982   2.985   2.986   2.996   3.001   3.009   3.014
  3.026   3.028   3.039   3.047   3.056   3.082   3.092   3.112
  3.115   3.135   3.136   3.143   3.274   3.292   3.296   3.298
  3.300   3.312   3.316   3.440   3.456   3.461   3.463   3.483
  3.488   3.490   3.516   3.518   3.519   3.538   3.552   3.691
  3.706   9.647   9.787  13.172  13.206  13.222  13.224  13.254
 13.255  13.431  13.526  13.535  13.539  13.550  13.583  13.649
 13.652  13.659  13.661  13.683  13.685  13.688  13.689  13.727
 13.733  13.775  13.816  13.823  13.828  13.856  13.889  13.903
 13.916  13.921  13.930  13.940  13.990  14.049  14.051  14.057
 14.061  14.127  14.130  14.131  14.132  14.152  14.155  14.158
 14.160  14.161  14.189  14.192  14.203  14.205  14.226  14.232
 14.255  14.292  14.298  14.353  14.353  14.354  14.357  14.533
 14.541  14.560  14.560  14.562  14.563  14.582  14.587  14.589
 14.593  14.608  14.609  19.641  19.641
 
 Beta MOs
 -- Occupied --
-14.713 -14.713 -10.516 -10.516 -10.516 -10.516 -10.504 -10.502
-10.469 -10.469 -10.469 -10.469 -10.469 -10.469 -10.469 -10.469
-10.469 -10.468 -10.468 -10.468 -10.468 -10.468 -10.468 -10.467
-10.466 -10.466 -10.466 -10.465 -10.456 -10.456 -10.456 -10.455
-10.448 -10.448 -10.448 -10.448 -10.439 -10.438 -10.436 -10.436
-10.436 -10.436 -10.435 -10.435 -10.434 -10.434 -10.434 -10.434
-10.433 -10.433 -10.433 -10.433 -10.433 -10.431 -10.426 -10.425
-10.422 -10.422 -10.421 -10.420 -10.419 -10.419 -10.419 -10.419
-10.419 -10.418 -10.418 -10.418 -10.418 -10.417 -10.395 -10.394
-10.393 -10.393  -6.887  -6.886  -1.108  -1.108  -0.983  -0.983
 -0.983  -0.983  -0.975  -0.975  -0.954  -0.954  -0.924  -0.922
 -0.906  -0.905  -0.878  -0.878  -0.876  -0.874  -0.870  -0.870
 -0.868  -0.863  -0.859  -0.859  -0.857  -0.856  -0.825  -0.823
 -0.820  -0.820  -0.816  -0.815  -0.783  -0.781  -0.780  -0.766
 -0.766  -0.765  -0.764  -0.762  -0.726  -0.726  -0.725  -0.725
 -0.703  -0.703  -0.702  -0.700  -0.700  -0.693  -0.693  -0.687
 -0.660  -0.659  -0.656  -0.650  -0.650  -0.647  -0.640  -0.633
 -0.627  -0.626  -0.614  -0.611  -0.603  -0.603  -0.581  -0.581
 -0.570  -0.569  -0.569  -0.567  -0.566  -0.563  -0.556  -0.556
 -0.555  -0.546  -0.546  -0.538  -0.538  -0.538  -0.535  -0.528
 -0.528  -0.516  -0.516  -0.516  -0.515  -0.511  -0.504  -0.504
 -0.503  -0.503  -0.500  -0.498  -0.490  -0.481  -0.476  -0.473
 -0.473  -0.470  -0.469  -0.467  -0.467  -0.463  -0.460  -0.459
 -0.457  -0.457  -0.457  -0.456  -0.455  -0.455  -0.452  -0.451
 -0.450  -0.447  -0.447  -0.444  -0.443  -0.439  -0.435  -0.435
 -0.434  -0.432  -0.428  -0.428  -0.425  -0.425  -0.419  -0.418
 -0.417  -0.416  -0.416  -0.410  -0.409  -0.405  -0.398  -0.392
 -0.387  -0.386  -0.386  -0.383  -0.372  -0.368  -0.368  -0.367
 -0.367  -0.365  -0.363  -0.356  -0.341  -0.338  -0.331  -0.323
 -0.322  -0.318  -0.317  -0.316  -0.315  -0.313  -0.311  -0.310
 -0.288  -0.286  -0.284  -0.280  -0.279  -0.276  -0.269  -0.269
 -0.238  -0.231  -0.225  -0.209  -0.203
 -- Virtual --
 -0.183  -0.053  -0.030  -0.013  -0.013  -0.012  -0.011  -0.000
  0.000   0.003   0.005   0.010   0.010   0.025   0.028   0.028
  0.034   0.048   0.049   0.051   0.080   0.105   0.116   0.122
  0.125   0.125   0.125   0.130   0.131   0.147   0.152   0.154
  0.161   0.163   0.163   0.166   0.168   0.170   0.172   0.176
  0.177   0.179   0.184   0.185   0.186   0.187   0.189   0.191
  0.192   0.194   0.194   0.195   0.198   0.199   0.200   0.201
  0.204   0.204   0.206   0.208   0.209   0.212   0.217   0.218
  0.218   0.219   0.220   0.220   0.221   0.223   0.227   0.230
  0.233   0.233   0.234   0.235   0.237   0.238   0.240   0.241
  0.242   0.247   0.248   0.253   0.257   0.258   0.259   0.263
  0.264   0.269   0.270   0.273   0.276   0.278   0.279   0.279
  0.280   0.281   0.290   0.292   0.293   0.294   0.298   0.301
  0.302   0.303   0.304   0.307   0.309   0.309   0.312   0.313
  0.314   0.316   0.318   0.318   0.323   0.324   0.326   0.329
  0.332   0.337   0.338   0.341   0.346   0.347   0.350   0.353
  0.356   0.358   0.365   0.371   0.375   0.380   0.381   0.383
  0.391   0.394   0.395   0.398   0.405   0.406   0.413   0.424
  0.430   0.430   0.432   0.435   0.439   0.442   0.445   0.449
  0.451   0.452   0.456   0.466   0.476   0.477   0.480   0.484
  0.490   0.492   0.497   0.501   0.505   0.506   0.508   0.509
  0.512   0.514   0.519   0.520   0.521   0.522   0.526   0.528
  0.529   0.534   0.540   0.542   0.543   0.546   0.546   0.547
  0.548   0.554   0.556   0.556   0.558   0.559   0.560   0.561
  0.563   0.566   0.569   0.570   0.572   0.572   0.575   0.576
  0.579   0.581   0.582   0.582   0.585   0.585   0.586   0.591
  0.591   0.593   0.593   0.594   0.595   0.595   0.597   0.598
  0.599   0.602   0.604   0.605   0.607   0.608   0.609   0.609
  0.611   0.611   0.612   0.616   0.616   0.617   0.618   0.619
  0.620   0.620   0.622   0.622   0.625   0.627   0.628   0.629
  0.630   0.632   0.633   0.634   0.636   0.636   0.637   0.639
  0.639   0.642   0.643   0.645   0.646   0.649   0.650   0.650
  0.652   0.656   0.658   0.661   0.664   0.666   0.668   0.675
  0.676   0.676   0.679   0.680   0.680   0.681   0.685   0.686
  0.688   0.691   0.691   0.693   0.694   0.696   0.700   0.702
  0.707   0.709   0.711   0.712   0.715   0.718   0.725   0.727
  0.729   0.731   0.731   0.740   0.742   0.748   0.749   0.756
  0.758   0.759   0.759   0.762   0.763   0.765   0.769   0.774
  0.776   0.778   0.781   0.782   0.785   0.790   0.794   0.795
  0.796   0.798   0.799   0.801   0.804   0.807   0.811   0.813
  0.822   0.822   0.824   0.826   0.829   0.835   0.852   0.857
  0.862   0.867   0.877   0.879   0.883   0.889   0.890   0.893
  0.897   0.904   0.905   0.910   0.914   0.921   0.923   0.927
  0.928   0.928   0.929   0.931   0.933   0.936   0.937   0.940
  0.941   0.942   0.943   0.945   0.947   0.950   0.952   0.954
  0.956   0.958   0.960   0.962   0.972   0.972   0.973   0.974
  0.978   0.981   0.986   0.988   0.990   0.991   0.992   0.992
  0.993   1.004   1.005   1.006   1.006   1.008   1.009   1.012
  1.019   1.024   1.025   1.026   1.028   1.030   1.031   1.033
  1.034   1.036   1.037   1.039   1.044   1.045   1.046   1.050
  1.057   1.058   1.060   1.061   1.063   1.064   1.066   1.066
  1.067   1.069   1.069   1.073   1.073   1.077   1.085   1.087
  1.092   1.094   1.097   1.100   1.103   1.105   1.110   1.110
  1.111   1.112   1.115   1.120   1.123   1.130   1.130   1.131
  1.133   1.136   1.139   1.139   1.152   1.153   1.156   1.157
  1.159   1.169   1.170   1.172   1.173   1.175   1.180   1.183
  1.185   1.186   1.187   1.191   1.195   1.200   1.206   1.209
  1.214   1.216   1.222   1.230   1.231   1.236   1.238   1.240
  1.247   1.251   1.255   1.258   1.261   1.268   1.270   1.271
  1.283   1.284   1.287   1.292   1.295   1.297   1.299   1.301
  1.302   1.303   1.307   1.314   1.318   1.319   1.322   1.325
  1.327   1.327   1.330   1.332   1.334   1.338   1.340   1.352
  1.356   1.359   1.368   1.377   1.383   1.386   1.389   1.396
  1.398   1.404   1.407   1.408   1.409   1.411   1.415   1.420
  1.423   1.432   1.433   1.435   1.436   1.437   1.444   1.450
  1.457   1.459   1.460   1.464   1.468   1.469   1.470   1.477
  1.484   1.485   1.489   1.495   1.501   1.502   1.505   1.507
  1.514   1.524   1.526   1.526   1.529   1.530   1.537   1.537
  1.538   1.540   1.543   1.544   1.545   1.546   1.548   1.549
  1.550   1.552   1.553   1.556   1.557   1.558   1.558   1.558
  1.563   1.566   1.576   1.578   1.584   1.585   1.586   1.587
  1.588   1.589   1.594   1.597   1.603   1.605   1.612   1.623
  1.633   1.635   1.643   1.664   1.667   1.679   1.685   1.702
  1.710   1.711   1.718   1.720   1.725   1.730   1.732   1.738
  1.743   1.762   1.764   1.776   1.783   1.799   1.804   1.810
  1.817   1.820   1.829   1.831   1.836   1.840   1.841   1.843
  1.844   1.845   1.847   1.851   1.852   1.855   1.858   1.861
  1.866   1.867   1.871   1.871   1.873   1.875   1.890   1.897
  1.899   1.907   1.910   1.912   1.915   1.924   1.929   1.933
  1.937   1.937   1.940   1.951   1.952   1.955   1.956   1.957
  1.959   1.963   1.967   1.972   1.974   1.975   1.984   1.989
  1.993   1.996   1.997   2.005   2.008   2.010   2.011   2.012
  2.014   2.018   2.029   2.040   2.048   2.049   2.050   2.051
  2.058   2.059   2.064   2.073   2.081   2.084   2.087   2.087
  2.091   2.097   2.108   2.119   2.122   2.123   2.124   2.131
  2.131   2.138   2.140   2.147   2.156   2.160   2.167   2.170
  2.170   2.171   2.174   2.177   2.178   2.180   2.183   2.184
  2.187   2.188   2.195   2.195   2.201   2.202   2.203   2.203
  2.213   2.214   2.216   2.220   2.222   2.226   2.227   2.227
  2.235   2.237   2.243   2.247   2.255   2.259   2.261   2.262
  2.267   2.268   2.270   2.272   2.275   2.283   2.286   2.293
  2.293   2.294   2.304   2.305   2.308   2.313   2.315   2.317
  2.324   2.341   2.342   2.348   2.349   2.350   2.351   2.353
  2.354   2.357   2.364   2.366   2.366   2.367   2.370   2.372
  2.375   2.377   2.380   2.381   2.386   2.388   2.390   2.395
  2.396   2.402   2.408   2.414   2.415   2.421   2.432   2.433
  2.434   2.436   2.446   2.447   2.451   2.453   2.456   2.458
  2.461   2.463   2.468   2.471   2.476   2.478   2.479   2.497
  2.499   2.508   2.510   2.513   2.520   2.537   2.539   2.548
  2.556   2.569   2.583   2.584   2.595   2.596   2.608   2.616
  2.621   2.622   2.635   2.637   2.639   2.640   2.658   2.658
  2.661   2.667   2.668   2.668   2.672   2.674   2.697   2.714
  2.715   2.715   2.717   2.718   2.719   2.733   2.735   2.737
  2.740   2.740   2.744   2.745   2.758   2.761   2.762   2.763
  2.765   2.767   2.773   2.774   2.783   2.787   2.791   2.792
  2.793   2.799   2.801   2.805   2.807   2.808   2.810   2.813
  2.814   2.819   2.820   2.833   2.835   2.836   2.836   2.837
  2.853   2.856   2.868   2.882   2.887   2.891   2.893   2.896
  2.900   2.901   2.904   2.907   2.909   2.923   2.925   2.928
  2.938   2.956   2.977   2.983   2.986   2.987   2.997   3.002
  3.010   3.014   3.028   3.029   3.039   3.048   3.059   3.086
  3.094   3.112   3.115   3.136   3.138   3.144   3.275   3.293
  3.296   3.299   3.301   3.314   3.317   3.441   3.457   3.461
  3.463   3.483   3.488   3.490   3.516   3.518   3.519   3.539
  3.553   3.691   3.706   9.651   9.791  13.173  13.206  13.223
 13.224  13.254  13.255  13.432  13.527  13.535  13.539  13.550
 13.584  13.650  13.652  13.659  13.661  13.684  13.686  13.689
 13.689  13.727  13.733  13.775  13.817  13.823  13.828  13.857
 13.889  13.904  13.916  13.921  13.931  13.940  13.991  14.051
 14.052  14.058  14.062  14.127  14.130  14.131  14.133  14.152
 14.155  14.158  14.160  14.161  14.190  14.192  14.203  14.205
 14.226  14.233  14.256  14.293  14.298  14.353  14.354  14.354
 14.357  14.534  14.542  14.560  14.561  14.563  14.563  14.582
 14.588  14.590  14.594  14.608  14.609  19.647  19.647
 --------------------------------------------------------------
 
          Ground-State Mulliken Net Atomic Charges

     Atom                 Charge (a.u.)    Spin (a.u.)
  --------------------------------------------------------
      1 C                    -0.347574       0.041660
      2 C                     0.057523      -0.028743
      3 C                    -0.157732       0.110976
      4 C                     0.031716      -0.031645
      5 C                    -0.327286       0.047223
      6 C                     0.288191       0.028769
      7 N                    -0.635722       0.174842
      8 C                    -0.750208       0.003192
      9 C                    -0.752620       0.005828
     10 C                     0.295726      -0.036453
     11 C                    -0.271786       0.056378
     12 C                    -0.266292       0.058290
     13 C                     0.291936      -0.036445
     14 C                    -0.213254      -0.041112
     15 C                    -0.226455       0.068416
     16 C                    -0.214740      -0.038516
     17 C                    -0.272814       0.055870
     18 C                    -0.270228       0.059629
     19 C                    -0.213890      -0.041825
     20 C                    -0.226633       0.069785
     21 C                    -0.214621      -0.039225
     22 C                    -0.137381       0.041666
     23 C                    -0.140718       0.039237
     24 B                     0.564485       0.299814
     25 C                    -0.136457       0.042408
     26 C                    -0.136498       0.041355
     27 B                     0.563148       0.300438
     28 C                    -0.390272      -0.034451
     29 C                     0.082728       0.068462
     30 C                     0.067026       0.069122
     31 C                    -0.385640      -0.034774
     32 C                    -0.382415      -0.037062
     33 C                     0.064163       0.071894
     34 C                     0.084895       0.066611
     35 C                    -0.392240      -0.033052
     36 C                    -0.388119       0.085987
     37 C                    -0.200554      -0.055595
     38 C                    -0.346419       0.080989
     39 C                     0.251975      -0.042913
     40 C                    -0.081681       0.026545
     41 C                     0.203731      -0.055409
     42 C                    -0.344776       0.082207
     43 C                    -0.201072      -0.056065
     44 C                    -0.383637       0.087017
     45 C                     0.202980      -0.056407
     46 C                    -0.200068      -0.056071
     47 C                    -0.389192       0.086257
     48 C                     0.202803      -0.055966
     49 C                    -0.082288       0.027070
     50 C                     0.253696      -0.043467
     51 C                    -0.348029       0.081199
     52 C                     0.200645      -0.058290
     53 C                    -0.380330       0.089184
     54 C                    -0.202048      -0.057500
     55 C                    -0.344684       0.084706
     56 C                    -0.350290       0.044838
     57 C                     0.058852      -0.032054
     58 C                    -0.160747       0.117636
     59 C                     0.033572      -0.032319
     60 C                    -0.333357       0.048772
     61 C                     0.303433       0.028548
     62 N                    -0.638322       0.174577
     63 C                    -0.750380       0.003443
     64 C                    -0.751847       0.005526
     65 C                     0.288089      -0.035834
     66 C                    -0.264169       0.056328
     67 C                    -0.268665       0.054174
     68 C                     0.288416      -0.035813
     69 C                    -0.214314      -0.037449
     70 C                    -0.226061       0.065902
     71 C                    -0.214260      -0.039542
     72 C                    -0.265382       0.056589
     73 C                    -0.270199       0.054032
     74 C                    -0.214091      -0.037147
     75 C                    -0.226107       0.065654
     76 C                    -0.214786      -0.039572
     77 H                     0.237734      -0.002164
     78 H                     0.236428      -0.002480
     79 H                     0.261954      -0.001719
     80 H                     0.258963      -0.000949
     81 H                     0.225509       0.001618
     82 H                     0.282845      -0.002438
     83 H                     0.233059      -0.000325
     84 H                     0.233794      -0.000395
     85 H                     0.254494      -0.002997
     86 H                     0.260506      -0.003090
     87 H                     0.235072       0.002168
     88 H                     0.232008      -0.003798
     89 H                     0.232090       0.001958
     90 H                     0.254889      -0.002987
     91 H                     0.262311      -0.003166
     92 H                     0.235898       0.002251
     93 H                     0.231995      -0.003871
     94 H                     0.231781       0.001944
     95 H                     0.196291       0.000400
     96 H                     0.196101       0.000415
     97 H                     0.195932       0.000546
     98 H                     0.194792       0.000442
     99 H                     0.197099      -0.005177
    100 H                     0.210170       0.002774
    101 H                     0.207087      -0.004848
    102 H                     0.206800      -0.004926
    103 H                     0.210296       0.002796
    104 H                     0.197970      -0.005231
    105 H                     0.210623       0.002801
    106 H                     0.199867      -0.005178
    107 H                     0.207016      -0.004858
    108 H                     0.197959      -0.005354
    109 H                     0.209982       0.002868
    110 H                     0.206510      -0.005081
    111 H                     0.237610      -0.002338
    112 H                     0.237136      -0.002615
    113 H                     0.225672       0.001528
    114 H                     0.261169      -0.001924
    115 H                     0.259652      -0.000986
    116 H                     0.233527      -0.000321
    117 H                     0.233579      -0.000371
    118 H                     0.281288      -0.002197
    119 H                     0.258537      -0.003013
    120 H                     0.254085      -0.002869
    121 H                     0.231989       0.001881
    122 H                     0.232043      -0.003657
    123 H                     0.235093       0.002145
    124 H                     0.258779      -0.003037
    125 H                     0.254413      -0.002865
    126 H                     0.232082       0.001887
    127 H                     0.232093      -0.003644
    128 H                     0.235052       0.002124
  --------------------------------------------------------
  Sum of atomic charges =    -0.000000
  Sum of spin   charges =     2.000000

 -----------------------------------------------------------------
                    Cartesian Multipole Moments
 -----------------------------------------------------------------
    Charge (ESU x 10^10)
                -0.0000
    Dipole Moment (Debye)
         X       0.1930      Y      -0.5684      Z       0.0632
       Tot       0.6036
    Quadrupole Moments (Debye-Ang)
        XX    -400.1730     XY      37.9932     YY    -397.1791
        XZ      59.6387     YZ      67.0617     ZZ    -310.3952
    Octopole Moments (Debye-Ang^2)
       XXX    7347.9753    XXY     495.3622    XYY    2114.8645
       YYY    2920.5452    XXZ    -553.9509    XYZ    -617.7915
       YYZ    -220.6650    XZZ    1861.6237    YZZ     829.6214
       ZZZ     108.3782
    Hexadecapole Moments (Debye-Ang^3)
      XXXX -109340.4859   XXXY  -14602.7820   XXYY  -23282.5148
      XYYY  -18130.7774   YYYY  -54189.5736   XXXZ   -8578.2169
      XXYZ    2776.8669   XYYZ   -1406.2502   YYYZ   -5967.5173
      XXZZ  -22058.8856   XYZZ   -5030.1673   YYZZ  -16805.5503
      XZZZ  -11638.4655   YZZZ   -5113.6178   ZZZZ  -47400.6008
 -----------------------------------------------------------------
 Calculating analytic gradient of the SCF energy
 -6.082806127102689E-004 -6.082681022551628E-004
 -6.082720856057642E-004 -6.082766628629423E-004
 -6.082994969754789E-004 -6.082492715595233E-004
 -6.082333243293725E-004 -6.083154147736940E-004
 -6.082520138408567E-004 -6.082967325919063E-004
 -6.082572293977988E-004 -6.082915122346279E-004
 -6.082863402203439E-004 -6.082624141295456E-004
 -6.082870282258560E-004 -6.082617076535071E-004
 -6.082972005901491E-004 -6.082515518738125E-004
 -6.082822694281822E-004 -6.082664607078732E-004
 -6.082660074219353E-004 -6.082827446957520E-004
 -6.082277721099537E-004 -6.083209745006461E-004
 -6.082865966293095E-004 -6.082621342505944E-004
 -6.082953627576787E-004 -6.082533982534723E-004
 -6.082863520041120E-004 -6.082623839357194E-004
 -6.082587689932551E-004 -6.082899718036130E-004
 -6.082609100350141E-004 -6.082878473701360E-004
 -6.082392882590694E-004 -6.083094601917515E-004
 -6.082830102928484E-004 -6.082657109480079E-004
 -6.082814125025035E-004 -6.082673867450709E-004
 -6.082837835114474E-004 -6.082650013230636E-004
 -6.082875765213379E-004 -6.082611583272848E-004
 -6.082727682762839E-004 -6.082759712463044E-004
 -6.082638258876946E-004 -6.082849231623770E-004
 -6.082724464091451E-004 -6.082762920260564E-004
 -6.082784464507809E-004 -6.082703004834623E-004
 -6.082908384283871E-004 -6.082578969762139E-004
 -6.082580506050496E-004 -6.082906895306802E-004
 -6.082538673363143E-004 -6.082948931972559E-004
 -6.082682515388637E-004 -6.082805504804161E-004
 -6.082889366307647E-004 -6.082597867431065E-004
 -6.083120092006153E-004 -6.082367421586640E-004
 -6.082775760947914E-004 -6.082712203635510E-004
 -6.082854557936633E-004 -6.082632947411299E-004
 -6.082767172117403E-004 -6.082720355840771E-004
 -6.082592164740588E-004 -6.082895522215911E-004
 -6.082757119570082E-004 -6.082730411460637E-004
 -6.082842879690843E-004 -6.082644935549815E-004
 -6.082551400579169E-004 -6.082936178863057E-004
 -6.082609520744349E-004 -6.082878085890038E-004
 -6.082880174210349E-004 -6.082607503719913E-004
 -6.082519718744689E-004 -6.082967598665151E-004
 -6.082851572242899E-004 -6.082635968676336E-004
 -6.082518608587952E-004 -6.082969079181358E-004
 -6.082832500421090E-004 -6.082655136808799E-004
 -6.082605148079116E-004 -6.082882418540674E-004
 -6.082779245266223E-004 -6.082708438266543E-004
 -6.082650502150587E-004 -6.082836854030738E-004
 -6.082824405019094E-004 -6.082663062208830E-004
 -6.082472051225267E-004 -6.083015563681743E-004
 -6.083021563699745E-004 -6.082465903490949E-004
 -6.082602243548251E-004 -6.082885135312538E-004
 -6.082679064048655E-004 -6.082808299490245E-004
 -6.082769254436222E-004 -6.082718867221561E-004
 -6.082656693950793E-004 -6.082830735560736E-004
 -6.082427384187493E-004 -6.083059978549904E-004
 -6.082621388390241E-004 -6.082866608144953E-004
 -6.082725892956611E-004 -6.082761513498854E-004
 -6.083003352338029E-004 -6.082484140509012E-004
 -6.082749831293627E-004 -6.082738283257993E-004
 -6.082709464558340E-004 -6.082777989060097E-004
 -6.082603090512366E-004 -6.082884121556826E-004
 -6.082622573625111E-004 -6.082865403382036E-004
 -6.082646318827543E-004 -6.082842033451412E-004
 -6.082655897449133E-004 -6.082831515197289E-004
 -6.082532191862041E-004 -6.082955572935509E-004
 -6.082821721282441E-004 -6.082666649115602E-004
 -6.082907175312213E-004 -6.082580171145192E-004
 -6.082909784143665E-004 -6.082578024474892E-004
 -6.082770191505220E-004 -6.082717991700384E-004
 -6.082721439855255E-004 -6.082766043601724E-004
 -6.082757082620572E-004 -6.082730702574035E-004
 -6.082894502474532E-004 -6.082593910303228E-004
 -6.082827950117965E-004 -6.082659449309080E-004
 -6.082952156688706E-004 -6.082535598454664E-004
 -6.082691632870460E-004 -6.082796797010142E-004
 -6.082569506156968E-004 -6.082917872573660E-004
 -6.082555763357053E-004 -6.082932019068016E-004
 -6.082752693498819E-004 -6.082735519851463E-004
 -6.082758407672507E-004 -6.082729083436603E-004
 -6.082723622713561E-004 -6.082764135579872E-004
 -6.082720009650303E-004 -6.082768463225533E-004
 -6.082768263879885E-004 -6.082719043784377E-004
 -6.082690639527678E-004 -6.082797198201199E-004
 -6.082804570674411E-004 -6.082683797774362E-004
 -6.082985345631075E-004 -6.082502073154732E-004
 -6.082870916408523E-004 -6.082616730408996E-004
 -6.082641413518259E-004 -6.082847010091231E-004
 -6.082767585567199E-004 -6.082719738783311E-004
 -6.082512659771181E-004 -6.082975061951275E-004
 -6.082754677196930E-004 -6.082733807561685E-004
 -6.082842438784916E-004 -6.082644962688479E-004
 -6.082753614271429E-004 -6.082734137904029E-004
 -6.082768826028845E-004 -6.082719611156420E-004
 -6.082705456920594E-004 -6.082781869650837E-004
 -6.082793770972289E-004 -6.082694095033174E-004
 -6.082703243775807E-004 -6.082785032149537E-004
 -6.082518957577520E-004 -6.082968475849097E-004
 -6.082639136656650E-004 -6.082848555587154E-004
 -6.082855693952127E-004 -6.082632618658837E-004
 -6.082718156465616E-004 -6.082769182132251E-004
 -6.082932846535728E-004 -6.082554948508127E-004
 -6.082741000117378E-004 -6.082747397828864E-004
 -6.082632333430946E-004 -6.082855068350098E-004
 -6.082762201822718E-004 -6.082725624252264E-004
 -6.082729189252531E-004 -6.082759095552169E-004
 -6.083067796676524E-004 -6.082419671082293E-004
 -6.082818933905512E-004 -6.082668730396023E-004
 -6.082847753618580E-004 -6.082640370333279E-004
 -6.082615946121331E-004 -6.082871517086323E-004
 -6.082927220178124E-004 -6.082560211837450E-004
 -6.082669778965692E-004 -6.082818346811788E-004
 -6.082877377534973E-004 -6.082610075086126E-004
 -6.082631285284610E-004 -6.082856207820671E-004
 -6.082828318739902E-004 -6.082659779004121E-004
 -6.082477814244216E-004 -6.083009658358896E-004
 -6.082859727970134E-004 -6.082627723029100E-004
 -6.082701133494472E-004 -6.082787286567539E-004
 -6.082871461373400E-004 -6.082616094348783E-004
 -6.082701169281199E-004 -6.082786639479215E-004
 -6.082737284964785E-004 -6.082751055434452E-004
 -6.082929022643319E-004 -6.082558381434332E-004
 -6.082769259919130E-004 -6.082718330572164E-004
 -6.082706324575227E-004 -6.082781907051158E-004
 -6.082920611961270E-004 -6.082566507478859E-004
 -6.082724891485222E-004 -6.082762790735334E-004
 -6.082754132733254E-004 -6.082733950658250E-004
 -6.082498461110891E-004 -6.082989119434964E-004
 -6.082719591114498E-004 -6.082767744080913E-004
 -6.082601270869198E-004 -6.082887095334474E-004
 -6.082887505520647E-004 -6.082599749818358E-004
 -6.082489333566897E-004 -6.082998459591054E-004
 -6.082669525779678E-004 -6.082818782189858E-004
 -6.082845561930902E-004 -6.082641949925855E-004
 -6.082610081852740E-004 -6.082877442786048E-004
 -6.082708374506361E-004 -6.082779617026604E-004
 -6.083011291118077E-004 -6.082476319779562E-004
 -6.082736834439539E-004 -6.082750571433254E-004
 -6.082907577862461E-004 -6.082580711826852E-004
 -6.082582954120177E-004 -6.082904320727459E-004
 -6.082978522169132E-004 -6.082509338877315E-004
 -6.082826884075325E-004 -6.082661317891834E-004
 -6.082683818062929E-004 -6.082803685703571E-004
 -6.082868235536029E-004 -6.082619356073385E-004
 -6.082793444069441E-004 -6.082694860847413E-004
 -6.082611491777252E-004 -6.082876062163791E-004
 -6.082796241682871E-004 -6.082691606027737E-004
 -6.082629930554621E-004 -6.082858072920098E-004
 -6.083019355698229E-004 -6.082468108056134E-004
 -6.082606163638885E-004 -6.082881374550144E-004
 -6.082789853876557E-004 -6.082698216331116E-004
 -6.082562993362595E-004 -6.082924179142823E-004
 -6.082788795036922E-004 -6.082698880205950E-004
 -6.082739724190256E-004 -6.082748511017217E-004
 -6.082581978124168E-004 -6.082905418170867E-004
 -6.082704438773075E-004 -6.082783229357373E-004
 -6.082744573254477E-004 -6.082743669418517E-004
 -6.082414082763735E-004 -6.083073422165374E-004
 -6.082705408123612E-004 -6.082782265921824E-004
 -6.082610341777803E-004 -6.082877719493379E-004
 -6.082867704830103E-004 -6.082619722817839E-004
 -6.082555696779984E-004 -6.082931802163778E-004
 -6.082841811927838E-004 -6.082646227387647E-004
 -6.082623821380838E-004 -6.082863620962130E-004
 -6.082872204126487E-004 -6.082615347185103E-004
 -6.082532250749582E-004 -6.082955129279872E-004
 -6.082741412122021E-004 -6.082746090753195E-004
 -6.082566048245346E-004 -6.082921371859127E-004
 -6.082660102992214E-004 -6.082827172692348E-004
 -6.082941904079100E-004 -6.082545522993553E-004
 -6.083184550963678E-004 -6.082302992595967E-004
 -6.082615515845557E-004 -6.082872033848000E-004
 -6.082608006130435E-004 -6.082879341923946E-004
 -6.082516395887990E-004 -6.082971124143630E-004
 -6.083186951465292E-004 -6.082300426969727E-004
 -6.082897635162965E-004 -6.082589875266409E-004
 -6.082900365567074E-004 -6.082587006033049E-004
 -6.082747091336296E-004 -6.082740041648438E-004
 -6.082543255602072E-004 -6.082944324072004E-004
 -6.082587684709722E-004 -6.082899893073068E-004
 -6.082927352721640E-004 -6.082560262594089E-004
 -6.082931297336108E-004 -6.082556185249663E-004
 -6.083061769977822E-004 -6.082425625084588E-004
 -6.082671143746758E-004 -6.082816588558993E-004
 -6.082690110831123E-004 -6.082797685686625E-004
 -6.082642222788061E-004 -6.082845344164379E-004
 -6.082887006201121E-004 -6.082600194023890E-004
 -6.082787080051314E-004 -6.082700291347399E-004
 -6.082685382218828E-004 -6.082802280659883E-004
 -6.082606594864082E-004 -6.082880789103804E-004
 -6.082612307969108E-004 -6.082875193376626E-004
 -6.082706899141973E-004 -6.082780436063118E-004
 -6.082659281754501E-004 -6.082828526898813E-004
 -6.082926116764841E-004 -6.082561432228298E-004
 -6.082858722347283E-004 -6.082628885078862E-004
 -6.082626551178816E-004 -6.082861259720774E-004
 -6.082774426134057E-004 -6.082712933251882E-004
 -6.082891011036393E-004 -6.082596591229950E-004
 -6.082443944284424E-004 -6.083043460872750E-004
 -6.082943447418300E-004 -6.082544007895941E-004
 -6.082562211539942E-004 -6.082925571428287E-004
 -6.082938722189943E-004 -6.082548741609701E-004
 -6.082704466536689E-004 -6.082783289295427E-004
 -6.082845533048344E-004 -6.082642222858187E-004
 -6.082795132572242E-004 -6.082692124239108E-004
 -6.082713799718238E-004 -6.082773881963101E-004
 -6.082907852307041E-004 -6.082579814490094E-004
 -6.082635371561689E-004 -6.082852214571491E-004
 -6.082944908771192E-004 -6.082542608083748E-004
 -6.082617656003925E-004 -6.082870193258960E-004
 -6.082929614104188E-004 -6.082557731612551E-004
 -6.082638170565699E-004 -6.082849479305363E-004
 -6.082966003066249E-004 -6.082521703067408E-004
 -6.082926026374602E-004 -6.082561453557261E-004
 -6.082777049671007E-004 -6.082710403870041E-004
 -6.082733202493955E-004 -6.082754608247214E-004
 -6.082891906019857E-004 -6.082595836279213E-004
 -6.082375751477579E-004 -6.083111755880535E-004
 -6.082657042831114E-004 -6.082830335194809E-004
 -6.082809495000637E-004 -6.082678255545540E-004
 -6.082897666983790E-004 -6.082589557594991E-004
 -6.082781182173928E-004 -6.082706434030398E-004
 -6.082804988511517E-004 -6.082682898522025E-004
 -6.082490546413255E-004 -6.082996933392160E-004
 -6.082800623323677E-004 -6.082686940124770E-004
 -6.082731580771177E-004 -6.082756263139284E-004
 -6.083035252803660E-004 -6.082452080235345E-004
 -6.082825227999367E-004 -6.082662284332056E-004
 -6.082651644247201E-004 -6.082835445584769E-004
 -6.082536194400802E-004 -6.082951213694397E-004
 -6.082706332415583E-004 -6.082781316040502E-004
 -6.082715587855965E-004 -6.082771790111218E-004
 -6.082790070216666E-004 -6.082697431661610E-004
 -6.082571345900494E-004 -6.082915934013919E-004
 -6.082770252000404E-004 -6.082717214448775E-004
 -6.082632823445796E-004 -6.082854635961455E-004
 -6.082742959768169E-004 -6.082744499779554E-004
 -6.082689458265930E-004 -6.082797921964632E-004
 -6.082834163691986E-004 -6.082653194475539E-004
 -6.082656582573287E-004 -6.082830943374216E-004
 -6.082760205161220E-004 -6.082727059618107E-004
 -6.082685566207806E-004 -6.082801895759090E-004
 -6.082639611128807E-004 -6.082847923932186E-004
 -6.082662631355384E-004 -6.082824972725488E-004
 -6.082617039783236E-004 -6.082870567058686E-004
 -6.082623615619038E-004 -6.082863971479041E-004
 -6.082642378331941E-004 -6.082844890137536E-004
 -6.082623587197044E-004 -6.082863775410008E-004
 -6.082705852779287E-004 -6.082781553649965E-004
 -6.082627044964581E-004 -6.082860255352247E-004
 -6.082704029549783E-004 -6.082783415745720E-004
 -6.082754946748552E-004 -6.082732363718964E-004
 -6.082690110301090E-004 -6.082797105056583E-004
 -6.082855717609530E-004 -6.082631586471657E-004
 -6.082601526525278E-004 -6.082885906987329E-004
 -6.082931892494647E-004 -6.082555778091248E-004
 -6.082908366252383E-004 -6.082579002700125E-004
 -6.082545096517442E-004 -6.082942255982259E-004
 -6.082809209472507E-004 -6.082678285208946E-004
 -6.082634421746994E-004 -6.082852892891005E-004
 -6.082683590273876E-004 -6.082803661768257E-004
 -6.082663255177317E-004 -6.082824176590524E-004
 -6.082715896743188E-004 -6.082771803577694E-004
 -6.082699469244307E-004 -6.082788277852907E-004
 -6.082767788587519E-004 -6.082719810184656E-004
 -6.082566550228800E-004 -6.082920987569177E-004
 -6.082752541045932E-004 -6.082734651127752E-004
 -6.082696657345614E-004 -6.082790727720382E-004
 -6.082580877880405E-004 -6.082906354558490E-004
 -6.082728980237938E-004 -6.082758295576195E-004
 -6.082507722577389E-004 -6.082979731652718E-004
 -6.082554777290190E-004 -6.082932411602731E-004
 -6.082865765252445E-004 -6.082622140489050E-004
 -6.082643269105754E-004 -6.082844033402904E-004
 -6.082797998491546E-004 -6.082689362109646E-004
 -6.082704600366844E-004 -6.082782848999283E-004
 -6.082742321981496E-004 -6.082745282314461E-004
 -6.082687282351375E-004 -6.082800172649614E-004
 -6.082673551109577E-004 -6.082814260622581E-004
 -6.082717295695639E-004 -6.082770092143868E-004
 -6.082899450403639E-004 -6.082587771843781E-004
 -6.082698201771128E-004 -6.082789575270193E-004
 -6.082801448757217E-004 -6.082686582000492E-004
 -6.082872524005153E-004 -6.082614925578861E-004
 -6.082918055984127E-004 -6.082569619620092E-004
 -6.082662094062773E-004 -6.082825956945190E-004
 -6.082669269668949E-004 -6.082818232872359E-004
 -6.082536370445794E-004 -6.082951236402312E-004
 -6.082644070852000E-004 -6.082843955250038E-004
 -6.082605264471493E-004 -6.082882188891282E-004
 -6.082592429023301E-004 -6.082895237128166E-004
 -6.082843687613462E-004 -6.082644287319916E-004
 -6.082823167991097E-004 -6.082664321985456E-004
 -6.082937945357578E-004 -6.082549722025624E-004
 -6.082693995242445E-004 -6.082793783058294E-004
 -6.082865591370752E-004 -6.082621905878764E-004
 -6.082791175830685E-004 -6.082696337456082E-004
 -6.082704236579977E-004 -6.082783363491136E-004
 -6.082843529389489E-004 -6.082643758644670E-004
 -6.082730412883616E-004 -6.082756862928451E-004
 -6.082794797124738E-004 -6.082692977293914E-004
 -6.082587520826511E-004 -6.082899752937460E-004
 -6.082801245862717E-004 -6.082686345723318E-004
 -6.082790293311970E-004 -6.082697550265426E-004
 -6.082593202971663E-004 -6.082893869757632E-004
 -6.082814043457124E-004 -6.082673674723631E-004
 -6.082718131526232E-004 -6.082769407947356E-004
 -6.082831921842902E-004 -6.082655463132611E-004
 -6.082690322326836E-004 -6.082796924459228E-004
 -6.082725816928572E-004 -6.082762020042056E-004
 -6.082803672230014E-004 -6.082683700467357E-004
 -6.082627375526336E-004 -6.082860178020175E-004
 -6.082791574233210E-004 -6.082695962126065E-004
 -6.082647618274369E-004 -6.082839831826517E-004
 -6.082785317053077E-004 -6.082701938485309E-004
 -6.082830740808309E-004 -6.082657023970160E-004
 -6.082724315249495E-004 -6.082763067007340E-004
 -6.082810679642937E-004 -6.082676899461026E-004
 -6.082680775686075E-004 -6.082807024130875E-004
 -6.082884230369485E-004 -6.082602874934825E-004
 -6.082669775615018E-004 -6.082817927929691E-004
 -6.082707914339700E-004 -6.082779869618834E-004
 -6.082618994962706E-004 -6.082868526635935E-004
 -6.082742768332673E-004 -6.082744713580203E-004
 -6.082764120034923E-004 -6.082723416999559E-004
 -6.082643636355592E-004 -6.082843639013799E-004
 -6.082785646761932E-004 -6.082701701352818E-004
 -6.082692232739698E-004 -6.082795524074753E-004
 -6.082893204570047E-004 -6.082594103240922E-004
 -6.082681853441656E-004 -6.082805714696431E-004
 -6.082701848039573E-004 -6.082785493196387E-004
 -6.082919274701495E-004 -6.082568212044019E-004
 -6.082855234529445E-004 -6.082632066749760E-004
 -6.082912216433756E-004 -6.082574848112213E-004
 -6.082703317899128E-004 -6.082784160859346E-004
 -6.082862611033077E-004 -6.082625033437155E-004
 -6.082838992691715E-004 -6.082648211184277E-004
 -6.082810751705160E-004 -6.082676727386742E-004
 -6.082790877570790E-004 -6.082696674612181E-004
 -6.082738349123065E-004 -6.082749017154351E-004
 -6.082857005350666E-004 -6.082630493658043E-004
 -6.082744294805737E-004 -6.082743258719620E-004
 -6.082819705284616E-004 -6.082667732700305E-004
 -6.082650254014251E-004 -6.082837054807268E-004
 -6.082828050908080E-004 -6.082659433532643E-004
 -6.082706126695309E-004 -6.082781245220828E-004
 -6.082840038786764E-004 -6.082647298459637E-004
 -6.082842128451344E-004 -6.082645271431478E-004
 -6.082672688458806E-004 -6.082814514820402E-004
 -6.082754900870038E-004 -6.082732598779405E-004
 -6.082862456492635E-004 -6.082624842941918E-004
 -6.082797592806286E-004 -6.082690006386224E-004
 -6.082847082716370E-004 -6.082640518124343E-004
 -6.082891288390998E-004 -6.082596322855925E-004
 -6.082464724290501E-004 -6.083022852198805E-004
 -6.082847889627054E-004 -6.082639396634531E-004
 -6.082866556792670E-004 -6.082621020739898E-004
 -6.082695948152337E-004 -6.082791384956454E-004
 -6.082906550756023E-004 -6.082580586909352E-004
 -6.082799722033673E-004 -6.082687717901645E-004
 -6.082689551670754E-004 -6.082797543641599E-004
 -6.082899280694644E-004 -6.082588360438502E-004
 -6.082709198741935E-004 -6.082778411549610E-004
 -6.082755166662359E-004 -6.082732506562141E-004
 -6.082752940458340E-004 -6.082734676479802E-004
 -6.082826068286313E-004 -6.082661512036077E-004
 -6.082799014669831E-004 -6.082688356021629E-004
 -6.082859843502409E-004 -6.082627416442028E-004
 -6.082710000948837E-004 -6.082777458040603E-004
 -6.083053875274370E-004 -6.082433297718538E-004
 -6.082666038306657E-004 -6.082821427829361E-004
 -6.082660270769792E-004 -6.082827509180923E-004
 -6.082874568133467E-004 -6.082612850234543E-004
 -6.082671368699791E-004 -6.082815955149288E-004
 -6.082838760974180E-004 -6.082648401229829E-004
 -6.082817560135772E-004 -6.082670016481598E-004
 -6.082607812995527E-004 -6.082879447137648E-004
 -6.082819943765652E-004 -6.082667557920100E-004
 -6.082797351118315E-004 -6.082690349773439E-004
 -6.082799708867590E-004 -6.082687728936408E-004
 -6.082772385982775E-004 -6.082715350358619E-004
 -6.082736526065286E-004 -6.082750991239836E-004
 -6.082673058354643E-004 -6.082814318455074E-004
 -6.082860752120427E-004 -6.082626451658946E-004
 Gradient of SCF Energy
            1           2           3           4           5           6
    1   0.0085978   0.0029337   0.0024778  -0.0089319  -0.0050214  -0.0024780
    2  -0.0004929  -0.0011147   0.0026518  -0.0050504   0.0040834  -0.0030979
    3   0.0004941  -0.0090272   0.0034270  -0.0018735   0.0070846  -0.0068641
            7           8           9          10          11          12
    1   0.0022951   0.0000648   0.0000187  -0.0000913  -0.0008499   0.0020728
    2   0.0029599  -0.0000274   0.0001187  -0.0011322  -0.0019922  -0.0001811
    3   0.0035119  -0.0009469   0.0009646   0.0010120  -0.0024145   0.0023988
           13          14          15          16          17          18
    1   0.0002560  -0.0002596  -0.0003489  -0.0012244  -0.0017466   0.0003942
    2   0.0009717  -0.0003366   0.0003448   0.0017269  -0.0001073   0.0022759
    3  -0.0005146   0.0017023   0.0006624  -0.0005645  -0.0024328   0.0023788
           19          20          21          22          23          24
    1   0.0011805   0.0008115   0.0008705  -0.0091879   0.0045060   0.0048899
    2   0.0009494   0.0000051  -0.0022585  -0.0016993   0.0122468   0.0046768
    3   0.0003762   0.0003126  -0.0000416  -0.0163284   0.0108474   0.0099887
           25          26          27          28          29          30
    1   0.0076157  -0.0043191  -0.0051893   0.0009562   0.0083630  -0.0048779
    2   0.0021745  -0.0128260  -0.0051932   0.0052238   0.0033996  -0.0134678
    3   0.0129871  -0.0098512  -0.0093753   0.0029150   0.0151961  -0.0108421
           31          32          33          34          35          36
    1  -0.0036078   0.0002893  -0.0101530   0.0060036   0.0029599   0.0013812
    2   0.0030621  -0.0086819  -0.0011651   0.0138279  -0.0007356   0.0004805
    3  -0.0060046  -0.0013028  -0.0176351   0.0128822   0.0051095   0.0025659
           37          38          39          40          41          42
    1  -0.0000635  -0.0006108   0.0003078  -0.0001866  -0.0009892   0.0002980
    2   0.0023520   0.0002123  -0.0006342   0.0015341   0.0035588   0.0011433
    3   0.0003098  -0.0010692   0.0004922  -0.0000473  -0.0011999   0.0007083
           43          44          45          46          47          48
    1  -0.0013788  -0.0009714  -0.0014399   0.0013682   0.0009187   0.0015874
    2   0.0014574  -0.0027713   0.0049098  -0.0014494   0.0026722  -0.0040057
    3  -0.0022313  -0.0022560  -0.0017799   0.0019927   0.0020946   0.0018443
           49          50          51          52          53          54
    1   0.0007542  -0.0001102  -0.0002087   0.0024787  -0.0024136   0.0002382
    2  -0.0006033   0.0009501  -0.0011061  -0.0060177  -0.0002247  -0.0037010
    3   0.0011104   0.0000202  -0.0005943   0.0030513  -0.0040642  -0.0003640
           55          56          57          58          59          60
    1   0.0007201   0.0030912   0.0087080  -0.0012996  -0.0031795  -0.0074413
    2   0.0002040   0.0019273   0.0036659  -0.0023227   0.0029209  -0.0059336
    3   0.0012541  -0.0078486   0.0014331  -0.0043740   0.0098994   0.0008422
           61          62          63          64          65          66
    1   0.0046890  -0.0032121   0.0008365  -0.0009097  -0.0007881  -0.0011795
    2   0.0035731  -0.0019179  -0.0002715  -0.0000121   0.0006075  -0.0026156
    3   0.0060460  -0.0044024   0.0004957  -0.0005246   0.0001029  -0.0014703
           67          68          69          70          71          72
    1   0.0012217   0.0009943   0.0005276  -0.0006109  -0.0015323  -0.0011813
    2   0.0002763  -0.0007405  -0.0017428  -0.0005759  -0.0001393  -0.0002457
    3   0.0028169  -0.0001663   0.0011774  -0.0000501  -0.0005827  -0.0029259
           73          74          75          76          77          78
    1   0.0013215  -0.0002506   0.0001787   0.0005275  -0.0000219   0.0000134
    2   0.0024432   0.0019630   0.0000586  -0.0009468   0.0004510  -0.0003205
    3   0.0015956  -0.0007729  -0.0008486  -0.0011064  -0.0001281   0.0002672
           79          80          81          82          83          84
    1  -0.0005965  -0.0013858  -0.0003745   0.0004122   0.0001029   0.0002612
    2  -0.0007466   0.0003187  -0.0003477  -0.0002548   0.0000293  -0.0001923
    3   0.0006657   0.0005229  -0.0005144  -0.0015382  -0.0005935  -0.0003692
           85          86          87          88          89          90
    1  -0.0002991  -0.0001280  -0.0003494  -0.0000970   0.0000044   0.0002884
    2  -0.0002211  -0.0002950   0.0003533   0.0001221   0.0002055   0.0002050
    3   0.0002533   0.0000640   0.0000978   0.0001436   0.0003442  -0.0001899
           91          92          93          94          95          96
    1   0.0000592   0.0004311   0.0002148   0.0002949  -0.0009620   0.0000397
    2   0.0002537  -0.0003409  -0.0000482   0.0000318   0.0003632   0.0012737
    3  -0.0002257   0.0000210   0.0000587   0.0002573  -0.0009792   0.0005474
           97          98          99         100         101         102
    1   0.0007269  -0.0000572  -0.0000090  -0.0002481  -0.0001108  -0.0000859
    2  -0.0003804  -0.0012543  -0.0003095   0.0002206   0.0002391   0.0002690
    3   0.0011255  -0.0004990  -0.0000993  -0.0004004  -0.0001266  -0.0000696
          103         104         105         106         107         108
    1  -0.0000134   0.0001021   0.0000017  -0.0001736   0.0000867   0.0000299
    2   0.0005196  -0.0001229  -0.0005082   0.0000930  -0.0002852   0.0003386
    3   0.0001055   0.0002731  -0.0000942  -0.0002518   0.0000781   0.0000663
          109         110         111         112         113         114
    1   0.0002965   0.0001352   0.0002054  -0.0002468   0.0002267  -0.0012366
    2  -0.0002283  -0.0002417  -0.0003315   0.0003423   0.0003231   0.0004725
    3   0.0004141   0.0001523   0.0000924  -0.0000874   0.0005885   0.0003547
          115         116         117         118         119         120
    1  -0.0009958   0.0006591   0.0003693   0.0014139   0.0002437   0.0003579
    2  -0.0005550   0.0000710   0.0003075   0.0005908  -0.0001775  -0.0000831
    3   0.0008569   0.0001055  -0.0000401   0.0002337   0.0000705  -0.0001666
          121         122         123         124         125         126
    1  -0.0002307  -0.0001462  -0.0001757  -0.0001892  -0.0003618  -0.0000699
    2  -0.0002611  -0.0001653  -0.0004402   0.0001603   0.0000910  -0.0000490
    3  -0.0001742  -0.0000064   0.0002191   0.0000214   0.0001152  -0.0003809
          127         128
    1   0.0000291   0.0000977
    2   0.0000817   0.0003616
    3  -0.0002043  -0.0003831
 Max gradient component =       1.764E-02
 RMS gradient           =       3.406E-03
 Computing fast IEFPCM-SWIG gradient.
 Updating gradient with PCM contributions...
 -- total gradient after adding PCM contribution --
---------------------------------------------------
  Atom         X              Y              Z     
---------------------------------------------------
   1       0.008598      -0.000493       0.000494
   2       0.002934      -0.001115      -0.009027
   3       0.002478       0.002652       0.003427
   4      -0.008932      -0.005050      -0.001874
   5      -0.005021       0.004084       0.007085
   6      -0.002478      -0.003098      -0.006864
   7       0.002295       0.002960       0.003512
   8       0.000065      -0.000027      -0.000947
   9       0.000019       0.000119       0.000965
  10      -0.000091      -0.001132       0.001012
  11      -0.000850      -0.001992      -0.002414
  12       0.002073      -0.000181       0.002399
  13       0.000256       0.000972      -0.000515
  14      -0.000260      -0.000336       0.001702
  15      -0.000349       0.000345       0.000663
  16      -0.001224       0.001727      -0.000564
  17      -0.001747      -0.000107      -0.002433
  18       0.000394       0.002276       0.002379
  19       0.001181       0.000949       0.000376
  20       0.000812       0.000005       0.000313
  21       0.000871      -0.002258      -0.000041
  22      -0.009188      -0.001699      -0.016328
  23       0.004506       0.012247       0.010847
  24       0.004890       0.004677       0.009989
  25       0.007616       0.002175       0.012987
  26      -0.004319      -0.012826      -0.009851
  27      -0.005189      -0.005193      -0.009375
  28       0.000956       0.005224       0.002915
  29       0.008363       0.003399       0.015196
  30      -0.004878      -0.013468      -0.010842
  31      -0.003608       0.003062      -0.006005
  32       0.000289      -0.008682      -0.001303
  33      -0.010153      -0.001165      -0.017635
  34       0.006004       0.013829       0.012882
  35       0.002960      -0.000736       0.005110
  36       0.001381       0.000481       0.002566
  37      -0.000063       0.002352       0.000310
  38      -0.000611       0.000212      -0.001069
  39       0.000308      -0.000634       0.000492
  40      -0.000187       0.001534      -0.000047
  41      -0.000989       0.003559      -0.001200
  42       0.000298       0.001143       0.000709
  43      -0.001379       0.001457      -0.002232
  44      -0.000972      -0.002771      -0.002256
  45      -0.001440       0.004910      -0.001780
  46       0.001368      -0.001449       0.001993
  47       0.000919       0.002672       0.002095
  48       0.001587      -0.004006       0.001844
  49       0.000754      -0.000603       0.001110
  50      -0.000110       0.000950       0.000020
  51      -0.000209      -0.001106      -0.000595
  52       0.002479      -0.006018       0.003052
  53      -0.002414      -0.000225      -0.004064
  54       0.000238      -0.003701      -0.000364
  55       0.000720       0.000204       0.001254
  56       0.003091       0.001927      -0.007849
  57       0.008708       0.003666       0.001433
  58      -0.001300      -0.002323      -0.004374
  59      -0.003179       0.002921       0.009899
  60      -0.007441      -0.005934       0.000842
  61       0.004689       0.003573       0.006046
  62      -0.003212      -0.001918      -0.004402
  63       0.000836      -0.000272       0.000495
  64      -0.000910      -0.000012      -0.000525
  65      -0.000788       0.000608       0.000103
  66      -0.001180      -0.002615      -0.001470
  67       0.001222       0.000276       0.002817
  68       0.000994      -0.000741      -0.000166
  69       0.000527      -0.001743       0.001177
  70      -0.000611      -0.000576      -0.000050
  71      -0.001532      -0.000140      -0.000583
  72      -0.001181      -0.000246      -0.002926
  73       0.001322       0.002443       0.001596
  74      -0.000251       0.001963      -0.000773
  75       0.000179       0.000059      -0.000849
  76       0.000528      -0.000947      -0.001106
  77      -0.000022       0.000451      -0.000128
  78       0.000013      -0.000321       0.000267
  79      -0.000596      -0.000747       0.000666
  80      -0.001386       0.000319       0.000523
  81      -0.000374      -0.000348      -0.000515
  82       0.000412      -0.000255      -0.001538
  83       0.000103       0.000029      -0.000594
  84       0.000261      -0.000192      -0.000369
  85      -0.000299      -0.000221       0.000253
  86      -0.000128      -0.000295       0.000064
  87      -0.000349       0.000353       0.000098
  88      -0.000097       0.000122       0.000143
  89       0.000004       0.000206       0.000344
  90       0.000288       0.000205      -0.000190
  91       0.000059       0.000254      -0.000226
  92       0.000431      -0.000340       0.000021
  93       0.000214      -0.000048       0.000059
  94       0.000295       0.000031       0.000257
  95      -0.000962       0.000363      -0.000979
  96       0.000040       0.001274       0.000547
  97       0.000727      -0.000381       0.001125
  98      -0.000057      -0.001254      -0.000499
  99      -0.000009      -0.000309      -0.000099
 100      -0.000248       0.000221      -0.000400
[...]
     77  H        -5.3963294817   -0.3085597525    5.4413691542
     78  H        -1.8386211589    0.3792896485    3.1738188250
     79  H        -6.9277032463   -2.5110118502    3.2866377551
     80  H        -7.5193413912   -0.9520698463    2.7489817835
     81  H        -7.3041210314   -1.2603263313    4.4716722842
     82  H        -2.6547673906   -1.7204360867    0.4819035879
     83  H        -1.6529752833   -0.3425019213    0.9376150690
     84  H        -3.1532125541   -0.1003495592    0.0396639185
     85  H        -0.9900071987    2.1336890181    6.6369179496
     86  H        -4.4925088608    2.5904585407    4.6796247651
     87  H        -5.8000901653    4.1574730003    6.0418678676
     88  H        -5.7003121818    4.0532804520    8.5174504649
     89  H        -4.2796402733    2.3355060448    9.6002805876
     90  H        -2.9968753012    0.7456064324    8.2413986064
     91  H        -2.0080962965   -1.8194943907    5.3457743041
     92  H         0.2355885621   -2.5982601184    5.9655728906
     93  H         1.8791529658   -1.0293551966    6.9524953456
     94  H         1.2413764378    1.3418501029    7.2898557215
     95  H        -4.1847512305   -3.5331935050    2.6364939990
     96  H        -6.1500484975   -5.8996320999   -1.2717576054
     97  H        -7.8908822325   -1.4261092820   -3.0824348553
     98  H        -5.9220393246    0.9321449798    0.8272587878
     99  H        -2.9920409489   -5.4923293193    4.2478174439
    100  H        -2.1762423253   -7.6259600151    5.1733348362
    101  H        -2.5556850198   -9.7600784464    4.0525540720
    102  H        -3.6327245464  -11.0131198083    1.9346124154
    103  H        -4.8757856479  -10.7774658620   -0.1511785060
    104  H        -5.6358379067   -8.5844976909   -0.9811135398
    105  H        -7.3933852015    5.8183173125   -0.3457790868
    106  H        -6.5364621230    3.6675484855    0.4991729842
    107  H        -8.6819750482    5.9871454217   -2.4104970066
    108  H        -9.1520461718    0.4126532844   -4.6415698470
    109  H       -10.0685102601    2.5024626857   -5.5861116976
    110  H        -9.7488898868    4.6610624405   -4.4984776209
    111  H       -10.1791857039   -5.3036989924   -3.6002888280
    112  H        -6.5446743230   -4.7650332641   -5.8525258627
    113  H       -10.3356576686   -4.6400269989   -1.3625384863
    114  H        -9.4036684618   -3.1749834493   -1.0150906592
    115  H        -8.8158359221   -4.7235926350   -0.4579657961
    116  H        -4.9641098346   -2.8596034735   -4.7380996668
    117  H        -4.4231054132   -4.4454944775   -4.1995884512
    118  H        -4.7184667937   -3.1699837862   -3.0232723710
    119  H        -8.6461282079   -3.1415783274   -6.8483208884
    120  H       -11.3205689892   -5.5235159739   -7.3125987709
    121  H       -13.1713405919   -7.1392275366   -7.1487728578
    122  H       -13.0062867314   -9.0668319943   -5.6071145644
    123  H       -10.9718804707   -9.3755670138   -4.2365263208
    124  H        -9.1076846545   -7.7729793806   -4.4076092202
    125  H        -8.5872299251   -7.2770897167   -7.9850695219
    126  H        -7.9310541345   -6.6354134275  -10.2707063547
    127  H        -7.6158913465   -4.2522270751  -10.8505461333
    128  H        -7.9711054771   -2.5094755544   -9.1314325100
   Point Group: c1    Number of degrees of freedom:   378


   Energy is  -2927.782636005

 Hessian Updated using BFGS Update

374 Hessian modes will be used to form the next step
  Hessian Eigenvalues:
     0.001398    0.005993    0.006948    0.007792    0.008645    0.009224
     0.010613    0.011787    0.012755    0.013375    0.013907    0.015043
     0.015206    0.015536    0.015629    0.015855    0.016490    0.017050
     0.017138    0.017174    0.017329    0.017443    0.018082    0.018367
     0.018857    0.018929    0.019060    0.019228    0.019673    0.019746
     0.020218    0.020299    0.020383    0.020659    0.020756    0.020807
     0.020853    0.020909    0.020949    0.021024    0.021127    0.021234
     0.021468    0.021515    0.021548    0.021697    0.021698    0.022143
     0.022256    0.022283    0.022544    0.022554    0.022596    0.022645
     0.022773    0.022953    0.023117    0.023167    0.023173    0.023191
     0.023199    0.023208    0.023265    0.023348    0.023450    0.023466
     0.023486    0.023567    0.023625    0.023656    0.023682    0.023701
     0.023735    0.023741    0.023751    0.023774    0.023814    0.023834
     0.023850    0.023904    0.023906    0.023952    0.024064    0.024078
     0.024088    0.024099    0.024102    0.024108    0.024124    0.024148
     0.024162    0.024171    0.024186    0.024201    0.024209    0.024227
     0.024232    0.024240    0.024257    0.024271    0.024295    0.024302
     0.024306    0.024313    0.024338    0.024359    0.024434    0.024463
     0.024469    0.024794    0.024924    0.026313    0.027213    0.030472
     0.031791    0.035688    0.054113    0.070655    0.071089    0.071493
     0.071733    0.072183    0.072313    0.072555    0.072597    0.154580
     0.157845    0.158415    0.158898    0.159131    0.159935    0.159973
     0.159981    0.159982    0.159982    0.159984    0.159988    0.159992
     0.159993    0.159995    0.159997    0.159999    0.159999    0.159999
     0.160000    0.160000    0.160000    0.160000    0.160000    0.160000
     0.160000    0.160000    0.160000    0.160000    0.160000    0.160000
     0.160000    0.160000    0.160025    0.160052    0.160086    0.160109
     0.160148    0.160212    0.160317    0.160334    0.160549    0.160711
     0.160948    0.161009    0.162079    0.162221    0.165792    0.190472
     0.210504    0.215905    0.219627    0.220005    0.220146    0.220199
     0.220514    0.220609    0.220623    0.220738    0.221727    0.222127
     0.222259    0.223576    0.225396    0.231989    0.233774    0.233784
     0.234286    0.234867    0.234890    0.235281    0.236756    0.237383
     0.238239    0.238634    0.239815    0.240158    0.241677    0.242784
     0.244355    0.246460    0.249017    0.249028    0.249387    0.249728
     0.249857    0.249894    0.249961    0.249969    0.249981    0.249990
     0.249996    0.250028    0.250099    0.250153    0.250502    0.250987
     0.251691    0.252290    0.253439    0.254408    0.257548    0.257765
     0.260544    0.264616    0.268767    0.277408    0.285934    0.288304
     0.289326    0.290324    0.311790    0.318778    0.319711    0.319858
     0.321907    0.325518    0.327332    0.345457    0.345639    0.345754
     0.345865    0.346369    0.346416    0.346544    0.346759    0.348289
     0.348375    0.348665    0.348886    0.349121    0.354099    0.354346
     0.354524    0.354767    0.355039    0.355115    0.355498    0.355623
     0.355733    0.356273    0.356302    0.356515    0.356569    0.356618
     0.356694    0.356787    0.356928    0.356973    0.356999    0.357018
     0.357040    0.357070    0.357092    0.357097    0.357098    0.357160
     0.357170    0.357223    0.357242    0.357257    0.357282    0.357332
     0.357346    0.357418    0.357530    0.357549    0.357574    0.357686
     0.357817    0.357845    0.357950    0.358005    0.359512    0.370662
     0.378559    0.382615    0.386472    0.390140    0.402111    0.402296
     0.407419    0.407656    0.412057    0.414340    0.418664    0.418731
     0.424785    0.425214    0.426107    0.427541    0.428985    0.429181
     0.429764    0.430174    0.430674    0.431039    0.431339    0.431843
     0.432201    0.434545    0.434951    0.435406    0.439667    0.443812
     0.445655    0.449508    0.452569    0.454386    0.455985    0.456843
     0.459088    0.460160    0.464374    0.465560    0.467323    0.469138
     0.469954    0.470711    0.471518    0.472205    0.472541    0.473354
     0.474788    0.476528    0.477332    0.477669    0.478318    0.478836
     0.479103    0.479712    0.480561    0.480763    0.481300    0.481502
     0.482087    0.482514    0.483562    0.485619    0.487180    0.490125
     0.490998    0.491689    0.492821    0.494564    0.495575    0.511306
     0.529808    0.935777

 Minimum Search - Taking Simple RFO Step
 Searching for Lamda that Minimizes Along All modes
 Value Taken    Lamda =  -0.00013255
 Step Taken.  Stepsize is  0.146960

                             Maximum     Tolerance    Cnvgd?
         Gradient           0.000713      0.000075      NO
         Displacement       0.066843      0.001200      NO
         Energy change      0.000022      0.000000      NO


 New Cartesian Coordinates Obtained by Inverse Iteration

 Displacement from previous Coordinates is:  0.786178
 Adding empirical dispersion correction 
 ----------------------------------------------------------------
 Doing -D3(BJ) with
 s6 =   1.00000
 s8 =   0.00000
 a1 =   0.48600
 a2 =   4.50000
 -D3 energy including 3body term =     -0.1220223327 hartrees
 ----------------------------------------------------------------
 Adding gCP correction 
 ----------------------------------------------------------------
 gCP energy =      0.1713516748 hartrees
 ----------------------------------------------------------------
             Standard Nuclear Orientation (Angstroms)
    I     Atom           X                Y                Z
 ----------------------------------------------------------------
    1      C      -4.8473982782    -0.3748765971     4.5098775732
    2      C      -5.4581173588    -0.9408160436     3.3980944056
    3      C      -4.7578010858    -1.0650831558     2.1923457568
    4      C      -3.4423797302    -0.5870230016     2.1255167523
    5      C      -2.8514019655     0.0010978133     3.2359384473
    6      C      -3.5453787332     0.1004923400     4.4350376539
    7      N      -2.9287901689     0.6706216184     5.5718272821
    8      C      -6.8694678603    -1.4501465538     3.4974609096
    9      C      -2.6754846990    -0.7060576356     0.8382241998
   10      C      -1.6634265251     0.2162353554     5.9637990517
   11      C      -0.7270072045     1.0920577747     6.5145286421
   12      C      -4.4404249774     2.5568939774     5.7067234363
   13      C      -3.6410965939     1.6019041674     6.3368929122
   14      C      -5.1812762886     3.4541690135     6.4553636857
   15      C      -5.1284749357     3.4330600581     7.8418271409
   16      C      -4.3284460070     2.4905100519     8.4707442911
   17      C      -3.5977456859     1.5756883226     7.7311852366
   18      C      -1.3120948547    -1.1233492814     5.7890194622
   19      C      -0.0531231311    -1.5687156691     6.1512862089
   20      C       0.8719800749    -0.6993221985     6.7108188909
   21      C       0.5223668523     0.6308798181     6.8928407397
   22      C      -6.7531468725    -1.6679279531    -1.2443053290
   23      C      -6.1849707662    -0.9892491400    -0.1237671167
   24      B      -5.4164720541    -1.7817832222     0.9478913685
   25      C      -5.2871991736    -3.3108419668     0.8076746744
   26      C      -5.8569633275    -3.9860771918    -0.3133180932
   27      B      -6.5981714646    -3.1801826745    -1.3721075753
   28      C      -4.6096879867    -4.0639925985     1.7860902596
   29      C      -4.4948660387    -5.4292773483     1.6716928205
   30      C      -5.0651144509    -6.0981463828     0.5494216889
   31      C      -5.7258085269    -5.3877515794    -0.4171337311
   32      C      -7.4601920306    -0.9251881929    -2.2129338577
   33      C      -7.6027420123     0.4304819957    -2.0859305194
   34      C      -7.0336626770     1.1163145035    -0.9736790748
   35      C      -6.3424568071     0.4070620771    -0.0177679276
   36      C      -3.1685340442    -6.4304126017     3.7013016446
   37      C      -2.6987866515    -7.6581886757     4.2228788206
   38      C      -2.9106094745    -8.8627709534     3.5939708496
   39      C      -3.6254143532    -8.9047431132     2.3728944265
   40      C      -4.0750935462    -7.6811527015     1.8834060940
   41      C      -3.8644125810    -6.4398230562     2.5187873084
   42      C      -3.9341459175   -10.0445697719     1.5914065764
   43      C      -4.6407646737    -9.9057343876     0.4194105801
   44      C      -5.0836746318    -8.6500377833    -0.0544805844
   45      C      -4.7986998274    -7.5290817285     0.6845569452
   46      C      -7.5903295733     4.9091629505    -0.8913330916
   47      C      -7.0935001480     3.6771672264    -0.4053337873
   48      C      -7.3510160821     2.5359697182    -1.1214323836
   49      C      -8.1021068555     2.6567025203    -2.3099522948
   50      C      -8.6062683061     3.8522721784    -2.8118670760
   51      C      -8.3233963353     5.0122248136    -2.0508327716
   52      C      -8.2826269429     1.4053358858    -2.9304433842
   53      C      -8.9983356767     1.3451237758    -4.0994335127
   54      C      -9.5226062781     2.5441878403    -4.6311988295
   55      C      -9.3404613964     3.7634146493    -4.0198291149
   56      C      -9.1515841011    -4.9841400390    -3.6451512085
   57      C      -8.5649950198    -4.4093968428    -2.5496897511
   58      C      -7.2288152893    -3.9108750192    -2.6200534768
   59      C      -6.5088264805    -4.0568773818    -3.8368463129
   60      C      -7.1118179438    -4.6208410342    -4.9335701153
   61      C      -8.4438730254    -5.0819187801    -4.8651691210
   62      N      -9.0460495768    -5.6069394490    -5.9720144440
   63      C      -9.3317298530    -4.2564567928    -1.2753643946
   64      C      -5.0821312810    -3.6059264329    -3.9426676148
   65      C      -8.6351341308    -5.2388937292    -7.2754094180
   66      C      -8.4723093641    -3.8952435651    -7.6020724401
   67      C     -11.2555495650    -6.3412241153    -6.6505479750
   68      C     -10.1194938209    -6.5219497918    -5.8662821724
   69      C     -12.2947394178    -7.2501220487    -6.5647545475
   70      C     -12.2058828898    -8.3368641604    -5.7053771361
   71      C     -11.0687512869    -8.5157828557    -4.9310307336
   72      C     -10.0200504665    -7.6155228262    -5.0107842936
   73      C      -8.4401096687    -6.2268986949    -8.2361141578
   74      C      -8.0644001633    -5.8666787146    -9.5177243471
   75      C      -7.8872696929    -4.5294118475    -9.8463049650
   76      C      -8.0929975448    -3.5477280267    -8.8874886316
   77      H      -5.3915402337    -0.3026096389     5.4446196204
   78      H      -1.8360117455     0.3752686452     3.1737318569
   79      H      -6.9186738479    -2.5245507540     3.3081134408
   80      H      -7.5144444254    -0.9715405655     2.7579551638
   81      H      -7.2970163950    -1.2649677277     4.4827287349
   82      H      -2.6005274820    -1.7487225725     0.5212775665
   83      H      -1.6636185433    -0.3118112832     0.9306182125
   84      H      -3.1731282001    -0.1672009154     0.0294059362
   85      H      -0.9805694223     2.1364788748     6.6418185228
   86      H      -4.4872675697     2.5836911286     4.6256888079
   87      H      -5.7997521536     4.1824608432     5.9465646034
   88      H      -5.7058835240     4.1388111512     8.4236350820
   89      H      -4.2843364663     2.4509937467     9.5516014057
   90      H      -2.9968818359     0.8300632300     8.2354233945
   91      H      -2.0282484485    -1.8133098096     5.3622030049
   92      H       0.2014597910    -2.6105722721     6.0040635712
   93      H       1.8528483357    -1.0535414338     6.9980368316
   94      H       1.2355049575     1.3252822652     7.3180750094
   95      H      -4.1765506785    -3.5500839380     2.6372140551
   96      H      -6.1534043036    -5.9116067153    -1.2683835408
   97      H      -7.9011203533    -1.4329949356    -3.0667271986
   98      H      -5.9093824029     0.9178300814     0.8361199476
   99      H      -2.9736461925    -5.5114827000     4.2392814264
  100      H      -2.1502266561    -7.6457688509     5.1559819083
  101      H      -2.5307382426    -9.7779403827     4.0317355734
  102      H      -3.6142727960   -11.0276954369     1.9152784642
  103      H      -4.8664261213   -10.7893167586    -0.1647922709
  104      H      -5.6341460135    -8.5959918687    -0.9861318879
  105      H      -7.3832804102     5.8067244361    -0.3227908030
  106      H      -6.5236806174     3.6542192348     0.5148402426
  107      H      -8.6826212449     5.9793492185    -2.3804532758
  108      H      -9.1693412107     0.4081852133    -4.6163385726
  109      H     -10.0891070579     2.4999545870    -5.5530927048
  110      H      -9.7617856335     4.6568277844    -4.4644292152
  111      H     -10.1831418805    -5.3093549394    -3.5987721896
  112      H      -6.5508008497    -4.7477345276    -5.8514091666
  113      H     -10.3354952618    -4.6725801207    -1.3543567170
  114      H      -9.4121027332    -3.2041340894    -0.9985200978
  115      H      -8.8130012926    -4.7527221557    -0.4537601780
  116      H      -4.9699591000    -2.8502313025    -4.7213659163
  117      H      -4.4293480559    -4.4416766832    -4.1991592300
  118      H      -4.7237168701    -3.1777265308    -3.0098965055
  119      H      -8.6577318841    -3.1291823555    -6.8603106039
  120      H     -11.3278842239    -5.4902487213    -7.3152445244
  121      H     -13.1811228558    -7.1049509635    -7.1671956035
  122      H     -13.0208000068    -9.0451099908    -5.6419698264
  123      H     -10.9900666347    -9.3677561289    -4.2695866680
  124      H      -9.1233592150    -7.7667338910    -4.4238095329
  125      H      -8.5739796744    -7.2693253972    -7.9780724376
  126      H      -7.9032892801    -6.6348231818   -10.2619029054
  127      H      -7.5941485262    -4.2531610276   -10.8500038793
  128      H      -7.9699362881    -2.5040260118    -9.1422853553
 ----------------------------------------------------------------
 Nuclear Repulsion Energy = 10764.3970544916 hartrees
 There are      255 alpha and      253 beta electrons
 Discretize the solute cavity surface with Lebedev spheres
	Using 302 Lebedev grid points for each H atom
	Using 302 Lebedev grid points for other atoms
	Atomic van der Waals radii will be scaled by 1.20
 Remove points where switching function is < 1.0e-08
 Keep 13466 surface tesserae and discard 25190 interior tesserae
 Molecular Surface Area = 1017.720 Angst**2
 Nucleus-field energy     =     0.0000000434 hartrees
 Requested basis set is def2-mSVP
 There are 636 shells and 1244 basis functions
 A cutoff of  1.0D-11 yielded  54270 shell pairs
 There are    214754 function pairs (    236683 Cartesian)
 Smallest overlap matrix eigenvalue = 1.98E-04
 Guess MOs from SCF MO coefficient file
 Reading MOs from coefficient file
 Reading MOs from coefficient file
 An unrestricted hybrid HF-DFT SCF calculation will be
 performed using Pulay DIIS extrapolation
 Polarizable Continuum solvation model will be applied
 Exchange:     0.4200 Hartree-Fock + 0.5800 PBEh-3c
 Correlation:  1.0000 PBEh-3c
 Using SG-1 standard quadrature grid
 Dispersion:   Grimme D3
 SCF converges when DIIS error is below 1.0E-08
 Geometry optimization detected.  Setting ReadMinima to 0
 Setting SaveMinima to 0
 using 8 threads for integral computing
 -------------------------------------------------------
 OpenMP Integral computing Module                
 Release: version 1.0, May 2013, Q-Chem Inc. Pittsburgh 
 -------------------------------------------------------
 ---------------------------------------
  Cycle       Energy         DIIS Error
 ---------------------------------------
    1   -2927.7760503181      1.67E-04
 Using non-symmetric K matrix
    2   -2927.7826110629      1.63E-05
    3   -2927.7826952882      1.18E-05
    4   -2927.7827181766      6.82E-06
    5   -2927.7827278474      2.86E-06
    6   -2927.7827296586      7.58E-07
    7   -2927.7827298992      3.70E-07
    8   -2927.7827300301      1.53E-07
    9   -2927.7827301455      1.56E-07
   10   -2927.7827302314      8.66E-08
