mFile = /cm/shared/apps/q-chem/intel/QCHEM_5.1.0_Trunk/bin/mpi/machines
Process 0 of 1 is on ctcp033 - thread support 0
initial socket setup ...start
initial socket setup ...done 
now start server 0 ... 
Q-Chem Developer Version!
                  Welcome to Q-Chem
     A Quantum Leap Into The Future Of Chemistry


 Q-Chem 5.1, Q-Chem, Inc., Pleasanton, CA (2018)

 Yihan Shao,  Zhengting Gan,  E. Epifanovsky,  A. T. B. Gilbert,  M. Wormit,  
 J. Kussmann,  A. W. Lange,  A. Behn,  Jia Deng,  Xintian Feng,  D. Ghosh,  
 M. Goldey,  P. R. Horn,  L. D. Jacobson,  I. Kaliman,  T. Kus,  A. Landau,  
 Jie Liu,  E. I. Proynov,  R. M. Richard,  R. P. Steele,  E. J. Sundstrom,  
 H. L. Woodcock III,  P. M. Zimmerman,  D. Zuev,  B. Albrecht,  E. Alguire,  
 S. A. Baeppler,  D. Barton,  Z. Benda,  Y. A. Bernard,  E. J. Berquist,  
 K. B. Bravaya,  H. Burton,  D. Casanova,  Chun-Min Chang,  Yunqing Chen,  
 A. Chien,  K. D. Closser,  M. P. Coons,  S. Coriani,  S. Dasgupta,  
 A. L. Dempwolff,  M. Diedenhofen,  Hainam Do,  R. G. Edgar,  Po-Tung Fang,  
 S. Faraji,  S. Fatehi,  Qingguo Feng,  K. D. Fenk,  J. Fosso-Tande,  
 Qinghui Ge,  A. Ghysels,  G. Gidofalvi,  J. Gomes,  J. Gonthier,  A. Gunina,  
 D. Hait,  M. W. D. Hanson-Heine,  P. H. P. Harbach,  A. W. Hauser,  
 J. E. Herr,  E. G. Hohenstein,  Z. C. Holden,  Kerwin Hui,  B. C. Huynh,  
 T.-C. Jagau,  Hyunjun Ji,  B. Kaduk,  K. Khistyaev,  Jaehoon Kim,  
 P. Klunzinger,  K. Koh,  D. Kosenkov,  L. Koulias,  T. Kowalczyk,  
 C. M. Krauter,  A. Kunitsa,  Ka Un Lao,  A. Laurent,  K. V. Lawler,  
 Joonho Lee,  D. Lefrancois,  S. Lehtola,  D. S. Levine,  Yi-Pei Li,  
 You-Sheng Lin,  Fenglai Liu,  E. Livshits,  A. Luenser,  P. Manohar,  
 E. Mansoor,  S. F. Manzer,  Shan-Ping Mao,  Yuezhi Mao,  N. Mardirossian,  
 A. V. Marenich,  T. Markovich,  L. A. Martinez-Martinez,  S. A. Maurer,  
 N. J. Mayhall,  S. C. McKenzie,  J.-M. Mewes,  A. F. Morrison,  
 J. W. Mullinax,  K. Nanda,  T. S. Nguyen-Beck,  R. Olivares-Amaya,  
 J. A. Parkhill,  T. M. Perrine,  F. Plasser,  P. Pokhilko,  S. Prager,  
 A. Prociuk,  E. Ramos,  D. R. Rehn,  F. Rob,  M. Schneider,  N. Sergueev,  
 S. M. Sharada,  S. Sharma,  D. W. Small,  T. Stauch,  T. Stein,  
 Yu-Chuan Su,  A. J. W. Thom,  A. Tkatchenko,  T. Tsuchimochi,  N. M. Tubman,  
 L. Vogt,  M. L. Vidal,  O. Vydrov,  M. A. Watson,  J. Wenzel,  
 M. de Wergifosse,  T. A. Wesolowski,  A. White,  J. Witte,  A. Yamada,  
 Jun Yang,  K. Yao,  S. Yeganeh,  S. R. Yost,  Zhi-Qiang You,  A. Zech,  
 Igor Ying Zhang,  Xing Zhang,  Yan Zhao,  Ying Zhu,  B. R. Brooks,  
 G. K. L. Chan,  C. J. Cramer,  M. S. Gordon,  W. J. Hehre,  A. Klamt,  
 M. W. Schmidt,  C. D. Sherrill,  D. G. Truhlar,  A. Aspuru-Guzik,  R. Baer,  
 A. T. Bell,  N. A. Besley,  Jeng-Da Chai,  A. E. DePrince, III,  
 R. A. DiStasio Jr.,  A. Dreuw,  B. D. Dunietz,  T. R. Furlani,  
 Chao-Ping Hsu,  Yousung Jung,  Jing Kong,  D. S. Lambrecht,  WanZhen Liang,  
 C. Ochsenfeld,  V. A. Rassolov,  L. V. Slipchenko,  J. E. Subotnik,  
 T. Van Voorhis,  J. M. Herbert,  A. I. Krylov,  P. M. W. Gill,  M. Head-Gordon

 Contributors to earlier versions of Q-Chem not listed above: 
 R. D. Adamson,  B. Austin,  J. Baker,  G. J. O. Beran,  K. Brandhorst,  
 S. T. Brown,  E. F. C. Byrd,  A. K. Chakraborty,  C.-L. Cheng,  
 Siu Hung Chien,  D. M. Chipman,  D. L. Crittenden,  H. Dachsel,  
 R. J. Doerksen,  A. D. Dutoi,  L. Fusti-Molnar,  W. A. Goddard III,  
 A. Golubeva-Zadorozhnaya,  S. R. Gwaltney,  G. Hawkins,  A. Heyden,  
 S. Hirata,  G. Kedziora,  F. J. Keil,  C. Kelley,  Jihan Kim,  R. A. King,  
 R. Z. Khaliullin,  P. P. Korambath,  W. Kurlancheek,  A. M. Lee,  M. S. Lee,  
 S. V. Levchenko,  Ching Yeh Lin,  D. Liotard,  R. C. Lochan,  I. Lotan,  
 P. E. Maslen,  N. Nair,  D. P. O'Neill,  D. Neuhauser,  E. Neuscamman,  
 C. M. Oana,  R. Olson,  B. Peters,  R. Peverati,  P. A. Pieniazek,  
 Y. M. Rhee,  J. Ritchie,  M. A. Rohrdanz,  E. Rosta,  N. J. Russ,  
 H. F. Schaefer III,  N. E. Schultz,  N. Shenvi,  A. C. Simmonett,  A. Sodt,  
 D. Stuck,  K. S. Thanthiriwatte,  V. Vanovschi,  Tao Wang,  A. Warshel,  
 C. F. Williams,  Q. Wu,  X. Xu,  W. Zhang

 Please cite Q-Chem as follows:
 Y. Shao et al., Mol. Phys. 113, 184-215 (2015)
 DOI: 10.1080/00268976.2014.952696

 Q-Chem 5.1.1 for Intel X86 EM64T Linux

 Parts of Q-Chem use Armadillo 8.300.2 (Tropical Shenanigans).
 http://arma.sourceforge.net/

 Q-Chem begins on Mon Oct 29 11:20:57 2018  

Host: ctcp033
0

     Scratch files written to /scratch/mewes/138732/qchem8264//
 Parallel job on  1  processors
The previous job contains 0 fragments, simply inherited here
Symmetry turned off for PCM/SM12/SMD calculation
Input Ideriv = 2
Curr. Ideriv = -1
Max.  Ideriv = 2
Input Ideriv = 2
Curr. Ideriv = 2
Max.  Ideriv = 2

Checking the input file for inconsistencies... 	...done.

--------------------------------------------------------------
User input:
--------------------------------------------------------------
$rem
threads 8
jobtype opt
method PBEh-3c
basis def2-mSVP
mem_static      1024
mem_total       8000
sym_ignore      true
unrestricted true
scf_algorithm	diis
scf_max_cycles	250
solvent_method  pcm
geom_opt_tol_energy 25
geom_opt_tol_gradient 75
$end

$pcm
theory  iefpcm
$end

$solvent
dielectric      2.38
$end

$molecule
read utleopt_chx.mol
$end
--------------------------------------------------------------
 Adding empirical dispersion correction 
 ----------------------------------------------------------------
 Doing -D3(BJ) with
 s6 =   1.00000
 s8 =   0.00000
 a1 =   0.48600
 a2 =   4.50000
 -D3 energy including 3body term =     -0.1220311149 hartrees
 ----------------------------------------------------------------
 Adding gCP correction 
 ----------------------------------------------------------------
 gCP energy =      0.1710070045 hartrees
 ----------------------------------------------------------------
             Standard Nuclear Orientation (Angstroms)
    I     Atom           X                Y                Z
 ----------------------------------------------------------------
    1      N       0.0000000000     0.0000000000     0.0000000000
    2      C       0.0000000000     0.0000000000     1.3640340000
    3      C       1.2211884147     0.0000000000     2.0738217190
    4      H       2.1548170676    -0.0697166216     1.5303541557
    5      C       1.2271716762     0.0360067041     3.4454601514
    6      C      -1.2190636570     0.0126534587     2.0776792803
    7      H      -2.1557934942     0.0465704987     1.5359123810
    8      C      -1.2199437720     0.0619167573     3.4490204296
    9      C      -1.0895479436    -0.5158197999    -0.7395966002
   10      C      -1.6176738150    -1.7637788680    -0.4188221836
   11      H      -1.1983211282    -2.3407651443     0.3952634970
   12      C      -2.6668511557    -2.2699097862    -1.1670211797
   13      H      -3.0738601581    -3.2421153902    -0.9246009293
   14      C      -3.1818197846    -1.5434689126    -2.2315955159
   15      H      -3.9992506402    -1.9450932041    -2.8151838024
   16      C      -2.6444755547    -0.3030684674    -2.5510873515
   17      H      -3.0470860530     0.2671484206    -3.3771962887
   18      C      -1.5966046229     0.2148713470    -1.8113977195
   19      H      -1.1831318686     1.1848679064    -2.0553964867
   20      C       1.0865330169     0.5322286231    -0.7334725954
   21      C       1.6003852675    -0.1848682680    -1.8110117016
   22      H       1.1913346803    -1.1537475315    -2.0661478293
   23      C       2.6480208307     0.3456116268    -2.5418876331
   24      H       3.0569000815    -0.2147065361    -3.3717726001
   25      C       3.1773220727     1.5861200374    -2.2091170678
   26      H       3.9951863669     1.9968495823    -2.7856158248
   27      C       2.6525734443     2.3013115800    -1.1414974575
   28      H       3.0520184611     3.2740127451    -0.8890951153
   29      C       1.6040205439     1.7818813200    -0.4013423623
   30      H       1.1759668697     2.3497476124     0.4145629757
   31      C       0.0053452111     0.0930591118     4.1687052568
   32      C      -2.5139515187     0.1208675894     4.1984234886
   33      H      -3.3712750009     0.1019160550     3.5266064462
   34      H      -2.5707709519     1.0260326334     4.8046356221
   35      H      -2.5977499570    -0.7209460749     4.8874147442
   36      C       2.5235566589     0.0106979175     4.1929329898
   37      H       3.3762355307    -0.0533521673     3.5182676188
   38      H       2.5611650534    -0.8366668661     4.8786238341
   39      H       2.6335102260     0.9094468112     4.8017370565
   40      B       0.0033850511     0.2219230925     5.7444415635
   41      C      -0.0328325973    -1.0300911724     6.6126620765
   42      C      -0.0531585112    -2.3175315121     6.0350216571
   43      H      -0.0367345209    -2.4261808176     4.9534894148
   44      C      -0.0952718780    -3.4358194068     6.8259496589
   45      C      -0.1162299648    -3.3126921568     8.2469994729
   46      C      -0.0942579088    -2.0661620086     8.8266921305
   47      H      -0.1096356969    -1.9691116871     9.9069413487
   48      C      -0.0529527805    -0.9008775147     8.0352894411
   49      C      -0.1281359399    -4.8575074091     6.4885176668
   50      C      -0.1259282279    -5.5863031115     5.3244647981
   51      H      -0.0929156545    -5.1108284402     4.3514083957
   52      C      -0.1684424223    -5.5501135712     7.7150545493
   53      C      -0.2070373728    -6.9380456430     7.8257980227
   54      C      -0.1621300731    -4.6609960193     8.8102284512
   55      C      -0.1954383460    -5.1937292963    10.0750399088
   56      H      -0.1929232648    -4.5666110206    10.9575901919
   57      C      -0.1660411397    -6.9971026182     5.4076505599
   58      H      -0.1643467302    -7.5701476712     4.4886124064
   59      C      -0.2052647766    -7.6653517100     6.6100948970
   60      H      -0.2346323787    -8.7483012682     6.6253440103
   61      C      -0.2349130581    -6.6005848030    10.2184023358
   62      H      -0.2613737615    -7.0160937688    11.2177081451
   63      C      -0.2409677796    -7.4581362960     9.1423533213
   64      H      -0.2710834355    -8.5293064887     9.3015492848
   65      C       0.0190086908     1.6110688399     6.3783512204
   66      C       0.0455253580     2.7717339883     5.5780643064
   67      H       0.0594718966     2.6793733258     4.4953169391
   68      C       0.0511625781     4.0162848026     6.1511835665
   69      C       0.0331703864     4.1586803747     7.5698828009
   70      C       0.0057476978     3.0367313220     8.3669187840
   71      H      -0.0116719389     3.1359216826     9.4474809242
   72      C      -0.0021961671     1.7453663791     7.8013115432
   73      C       0.0692786867     5.3463065299     5.5543504675
   74      C       0.0839836302     5.8349789112     4.2716325599
   75      H       0.0852097269     5.1782494731     3.4096643119
   76      C       0.0658305678     6.2588579594     6.6279245306
   77      C       0.0781813869     7.6415974158     6.4720080877
   78      C       0.0449191610     5.5898546652     7.8705181074
   79      C       0.0381063949     6.3516922032     9.0119268182
   80      H       0.0214323400     5.9015490522     9.9965055134
   81      C       0.0965814112     7.2356527311     4.0847365706
   82      H       0.1075746111     7.6241098060     3.0738921526
   83      C       0.0943090136     8.1211789688     5.1387636362
   84      H       0.1037001004     9.1872699015     4.9467918778
   85      C       0.0530353677     7.7609310716     8.8860643818
   86      H       0.0486519440     8.3572071371     9.7895817565
   87      C       0.0715912177     8.4008247527     7.6676148887
   88      H       0.0815848193     9.4830437937     7.6239418722
   89      B      -0.0348577037     0.4915307837     8.6924574483
   90      C      -0.0501031973     0.6027095961    10.2696732781
   91      C      -1.2612155226     0.6149376270    10.9724516932
   92      C      -1.2683062703     0.6486215462    12.3617053120
   93      H      -2.2124857602     0.6381418243    12.8944634014
   94      C      -0.0775630458     0.6984896577    13.0736479865
   95      C       1.1277304444     0.7087180100    12.3832571157
   96      H       2.0595893481     0.7526193427    12.9355012878
   97      C       1.1476628276     0.6472591418    10.9951509668
   98      N      -0.0915828299     0.7309726596    14.4869672331
   99      C       0.6777243888    -0.1941822804    15.2029529583
  100      C       1.2619679177     0.1538472396    16.4222331243
  101      H       1.1199628673     1.1501384365    16.8207493574
  102      C       2.0254707018    -0.7673307826    17.1196556959
  103      H       2.4701718881    -0.4782531850    18.0633570148
  104      C       2.2417337068    -2.0404508224    16.6107345336
  105      H       2.8477410722    -2.7534164256    17.1537012980
  106      C       1.6718832184    -2.3843299113    15.3930803538
  107      H       1.8265088475    -3.3736242814    14.9812803833
  108      C       0.8894712147    -1.4783058386    14.6973754558
  109      H       0.4429557810    -1.7650425079    13.7541459318
  110      C      -0.9781769871     1.6022712497    15.1348647007
  111      C      -1.7115021040     1.1922412995    16.2485882933
  112      H      -1.5897035351     0.1878203286    16.6330419663
  113      C      -2.6040317029     2.0606318437    16.8563853315
  114      H      -3.1674311681     1.7224125340    17.7166979988
  115      C      -2.7974377336     3.3411404763    16.3584024505
  116      H      -3.5039752223     4.0119105834    16.8288183691
  117      C      -2.0751570135     3.7480402965    15.2449054121
  118      H      -2.2122540545     4.7438719271    14.8430173095
  119      C      -1.1671316823     2.8945698651    14.6422136523
  120      H      -0.6081292045     3.2231471115    13.7753562567
  121      C       2.4607840551     0.6328852281    10.2631209573
  122      H       3.3070572590     0.6882561148    10.9478036066
  123      H       2.5362703276     1.4701298257     9.5665408104
  124      H       2.5703500515    -0.2779044084     9.6701265566
  125      C      -2.5629629941     0.5633708385    10.2208129573
  126      H      -3.4190472650     0.6109507938    10.8936952473
  127      H      -2.6458767077     1.3926725884     9.5155437797
  128      H      -2.6482701152    -0.3547268740     9.6355335945
 ----------------------------------------------------------------
 Nuclear Repulsion Energy = 10761.5516781333 hartrees
 There are      255 alpha and      253 beta electrons
 Requested basis set is def2-mSVP
 There are 636 shells and 1244 basis functions

 Total QAlloc Memory Limit   8000 MB
 Mega-Array Size      1001 MB
 MEM_STATIC part      1024 MB
 Discretize the solute cavity surface with Lebedev spheres
	Using 302 Lebedev grid points for each H atom
	Using 302 Lebedev grid points for other atoms
	Atomic van der Waals radii will be scaled by 1.20
 Remove points where switching function is < 1.0e-08
 Keep 13538 surface tesserae and discard 25118 interior tesserae
 Molecular Surface Area = 1019.035 Angst**2
 A cutoff of  1.0D-11 yielded  54264 shell pairs
 There are    214748 function pairs (    236675 Cartesian)
 
 -------------------------------------------------------
 OpenMP Integral Computing Module                       
 Release: version 1.0, May 2013, Q-Chem Inc. Pittsburgh 
 -------------------------------------------------------
 Integral Job Info:
 Integral job number is                      11
 Integral operator is                         1
 short-range coefficients                     0
 long-range coefficients              100000000
 Omega coefficients                           0
 if combine SR and LR in K                    0
 Integral screening is                        0
 Integral computing path is                   2
 max size of driver memory is            800000
 size of driver memory is                593474
 size of scratch memory is              1809772
 max col of scratch BK array               1296
 max len of scratch array in speh3          155
 max len of scratch index in speh4           18
 max int batch size is                      520
 min int batch size is                       52
 fixed nKL is                                52
 max L of basis functions is                  2
 order of int derivative is                   0
 number of shells is                        636
 number of basis is                        1320
 number of cartesian basis is              1320
 number of contracted shell pairs         54264
 number of primitive shell pairs         113493
 maxK2 (contraction) of shell pair           25
 max number of K2 of shell pair               1
 max number of CS2 of shell pair          13091
 max number of PS2 of shell pair          20055
 mem total for path MDJ                 1056764
 -------------------------------------------------------
 Smallest overlap matrix eigenvalue = 1.98E-04

 Scale SEOQF with 1.000000e-01/1.000000e-02/1.000000e-03

 Standard Electronic Orientation quadrupole field applied
 Nucleus-field energy     =     0.0000000436 hartrees
 Guess from superposition of atomic densities
 Warning:  Energy on first SCF cycle will be non-variational
 SAD guess density has 508.000001 electrons

 -----------------------------------------------------------------------
  General SCF calculation program by
  Eric Jon Sundstrom, Paul Horn, Yuezhi Mao, Dmitri Zuev, Alec White,
  David Stuck, Shaama M.S., Shane Yost, Joonho Lee, David Small,
  Daniel Levine, Susi Lehtola, Hugh Burton, Evgeny Epifanovsky
 -----------------------------------------------------------------------
 Exchange:     0.4200 Hartree-Fock + 0.5800 PBEh-3c
 Correlation:  1.0000 PBEh-3c
 Using SG-1 standard quadrature grid
 Dispersion:   Grimme D3
 using 8 threads for integral computing
 -------------------------------------------------------
 OpenMP Integral computing Module                
 Release: version 2.0, May 2017, Q-Chem Inc. Pleasanton 
 -------------------------------------------------------
 -------------------------------------------------------
 OpenMP BLAS3 based DFT computing Module                
 Release: version 1.0, May 2013, Q-Chem Inc. Pittsburgh 
 -------------------------------------------------------
 A unrestricted SCF calculation will be
 performed using DIIS
 SCF converges when DIIS error is below 1.0e-08
 ---------------------------------------
  Cycle       Energy         DIIS error
 ---------------------------------------
 Using non-symmetric K matrix
    1   -2953.2861026490      1.22e-02  
    2   -2927.1290599083      8.56e-04  
    3   -2926.8803320505      1.02e-03  
    4   -2927.6459549387      4.19e-04  
    5   -2927.8047379851      7.32e-05  
    6   -2927.8076465306      6.05e-05  
    7   -2927.8110795708      1.64e-05  
    8   -2927.8114959058      8.55e-06  
    9   -2927.8117281298      4.43e-06  
   10   -2927.8118165269      2.84e-06  
   11   -2927.8118579164      1.54e-06  
   12   -2927.8118727792      1.07e-06  
   13   -2927.8118785113      6.25e-07  
   14   -2927.8118811617      4.80e-07  
   15   -2927.8118823403      2.80e-07  
   16   -2927.8118831282      1.96e-07  
   17   -2927.8118833852      1.08e-07  
   18   -2927.8118834822      5.72e-08  
   19   -2927.8118834981      3.73e-08  
   20   -2927.8118835055      2.30e-08  
   21   -2927.8118835099      1.75e-08  
   22   -2927.8118835124      9.75e-09  Convergence criterion met
 ---------------------------------------
 SCF time:   CPU 27878.68s  wall 3677.00s 
<S^2> =          2.070274444

************** Final PCM Free Energy Summary **************
 G_electrostatic  =      -0.03019328 hartree =     -18.94657188 kcal/mol
 G_cavitation     =       0.00000000 hartree =       0.00000000 kcal/mol
 G_dispersion     =       0.00000000 hartree =       0.00000000 kcal/mol
 G_repulsion      =       0.00000000 hartree =       0.00000000 kcal/mol
 --------------------------------------------------
 Non-electrostatic Free Energy =       0.00000000 hartree =       0.00000000 kcal/mol
 Total                         =      -0.03019328 hartree =     -18.94657188 kcal/mol
 --------------------------------------------------
 SCF Energy (H0 + V/2)                       =   -2927.81188351 
 Solute Internal Energy (H0)                 =   -2927.78169023 
 Total Free Energy (H0 + V/2 + non-elec)     =   -2927.81188351 hartree
                                             = -1837229.68621041 kcal/mol
***********************************************************

 SCF   energy in the final basis set =    -2927.8118835124
 Total energy in the final basis set =    -2927.8118835124
 
 --------------------------------------------------------------
 
                    Orbital Energies (a.u.)
 --------------------------------------------------------------
 
 Alpha MOs
 -- Occupied --
-14.771 -14.658 -10.548 -10.535 -10.535 -10.491 -10.491 -10.490
-10.490 -10.486 -10.486 -10.484 -10.484 -10.483 -10.483 -10.482
-10.482 -10.482 -10.482 -10.481 -10.481 -10.470 -10.466 -10.449
-10.449 -10.447 -10.447 -10.446 -10.445 -10.445 -10.445 -10.445
-10.445 -10.444 -10.444 -10.444 -10.443 -10.443 -10.443 -10.443
-10.442 -10.439 -10.439 -10.438 -10.438 -10.436 -10.436 -10.435
-10.435 -10.435 -10.434 -10.434 -10.434 -10.434 -10.433 -10.433
-10.433 -10.433 -10.432 -10.432 -10.432 -10.431 -10.431 -10.428
-10.427 -10.419 -10.419 -10.408 -10.408 -10.407 -10.406 -10.402
-10.401 -10.399  -6.900  -6.895  -1.161  -1.068  -1.004  -1.004
 -0.996  -0.996  -0.982  -0.951  -0.945  -0.939  -0.937  -0.926
 -0.917  -0.916  -0.908  -0.904  -0.892  -0.884  -0.879  -0.878
 -0.876  -0.854  -0.845  -0.843  -0.841  -0.833  -0.833  -0.831
 -0.830  -0.827  -0.826  -0.800  -0.797  -0.796  -0.792  -0.788
 -0.787  -0.781  -0.756  -0.748  -0.747  -0.746  -0.726  -0.718
 -0.714  -0.711  -0.709  -0.700  -0.695  -0.694  -0.679  -0.676
 -0.671  -0.670  -0.665  -0.660  -0.654  -0.645  -0.644  -0.632
 -0.629  -0.626  -0.624  -0.624  -0.603  -0.596  -0.592  -0.588
 -0.587  -0.577  -0.576  -0.574  -0.570  -0.565  -0.561  -0.558
 -0.556  -0.554  -0.550  -0.549  -0.538  -0.536  -0.532  -0.529
 -0.525  -0.524  -0.522  -0.521  -0.510  -0.509  -0.509  -0.504
 -0.503  -0.499  -0.499  -0.492  -0.488  -0.486  -0.485  -0.485
 -0.482  -0.476  -0.475  -0.473  -0.472  -0.472  -0.470  -0.470
 -0.469  -0.467  -0.466  -0.464  -0.462  -0.457  -0.456  -0.456
 -0.454  -0.452  -0.451  -0.447  -0.446  -0.444  -0.443  -0.439
 -0.437  -0.437  -0.436  -0.429  -0.425  -0.422  -0.421  -0.416
 -0.415  -0.412  -0.412  -0.408  -0.407  -0.404  -0.402  -0.400
 -0.396  -0.391  -0.386  -0.385  -0.381  -0.381  -0.380  -0.378
 -0.374  -0.370  -0.368  -0.354  -0.352  -0.350  -0.346  -0.344
 -0.339  -0.337  -0.330  -0.329  -0.317  -0.316  -0.315  -0.304
 -0.297  -0.293  -0.290  -0.285  -0.283  -0.281  -0.276  -0.267
 -0.266  -0.258  -0.250  -0.239  -0.235  -0.208  -0.146
 -- Virtual --
 -0.051  -0.038  -0.036  -0.030  -0.025  -0.017  -0.011   0.001
  0.011   0.012   0.015   0.017   0.020   0.024   0.036   0.037
  0.051   0.057   0.068   0.085   0.101   0.104   0.106   0.111
  0.118   0.129   0.137   0.141   0.147   0.151   0.153   0.156
  0.157   0.160   0.165   0.171   0.172   0.173   0.175   0.176
  0.177   0.179   0.180   0.181   0.182   0.182   0.186   0.191
  0.195   0.196   0.200   0.202   0.202   0.203   0.204   0.210
  0.210   0.210   0.212   0.214   0.216   0.218   0.219   0.221
  0.222   0.222   0.223   0.226   0.227   0.228   0.229   0.232
  0.234   0.237   0.238   0.240   0.244   0.245   0.245   0.248
  0.250   0.251   0.253   0.256   0.256   0.257   0.260   0.263
  0.264   0.264   0.268   0.268   0.268   0.275   0.280   0.282
  0.283   0.284   0.287   0.289   0.294   0.295   0.297   0.300
  0.300   0.302   0.303   0.305   0.309   0.315   0.316   0.319
  0.321   0.323   0.323   0.328   0.328   0.333   0.337   0.337
  0.338   0.340   0.341   0.342   0.346   0.347   0.350   0.352
  0.366   0.368   0.369   0.374   0.381   0.382   0.387   0.388
  0.396   0.403   0.406   0.410   0.411   0.419   0.421   0.423
  0.424   0.426   0.434   0.441   0.444   0.445   0.455   0.459
  0.461   0.463   0.464   0.473   0.474   0.476   0.476   0.481
  0.483   0.487   0.489   0.496   0.503   0.503   0.506   0.508
  0.509   0.513   0.515   0.515   0.520   0.528   0.531   0.531
  0.534   0.535   0.539   0.540   0.542   0.542   0.543   0.544
  0.547   0.548   0.549   0.550   0.553   0.554   0.555   0.558
  0.559   0.564   0.565   0.566   0.568   0.570   0.572   0.573
  0.574   0.575   0.578   0.579   0.579   0.580   0.582   0.586
  0.586   0.588   0.589   0.590   0.590   0.592   0.596   0.597
  0.599   0.600   0.602   0.604   0.605   0.607   0.607   0.609
  0.610   0.610   0.611   0.615   0.616   0.617   0.620   0.620
  0.621   0.622   0.623   0.624   0.625   0.628   0.629   0.630
  0.632   0.634   0.635   0.636   0.638   0.639   0.639   0.640
  0.641   0.643   0.645   0.647   0.651   0.652   0.653   0.656
  0.657   0.659   0.663   0.664   0.665   0.667   0.668   0.668
  0.670   0.671   0.672   0.674   0.675   0.679   0.680   0.681
  0.689   0.690   0.693   0.695   0.696   0.700   0.704   0.707
  0.710   0.715   0.716   0.716   0.719   0.722   0.723   0.727
  0.729   0.731   0.732   0.739   0.741   0.742   0.747   0.748
  0.754   0.755   0.756   0.760   0.768   0.768   0.770   0.772
  0.773   0.776   0.778   0.781   0.787   0.789   0.791   0.794
  0.795   0.798   0.800   0.806   0.809   0.815   0.818   0.820
  0.821   0.835   0.840   0.843   0.844   0.847   0.848   0.860
  0.868   0.869   0.873   0.878   0.881   0.883   0.887   0.894
  0.898   0.905   0.909   0.913   0.917   0.919   0.920   0.926
  0.926   0.928   0.930   0.930   0.933   0.934   0.936   0.938
  0.942   0.944   0.954   0.957   0.957   0.960   0.962   0.965
  0.967   0.968   0.969   0.971   0.971   0.974   0.978   0.979
  0.979   0.986   0.988   0.988   0.989   0.992   0.998   0.998
  1.001   1.001   1.004   1.007   1.009   1.013   1.014   1.017
  1.019   1.021   1.021   1.024   1.032   1.034   1.035   1.036
  1.038   1.042   1.045   1.050   1.051   1.052   1.052   1.055
  1.055   1.058   1.062   1.066   1.067   1.068   1.071   1.073
  1.077   1.082   1.083   1.086   1.086   1.088   1.088   1.091
  1.093   1.095   1.101   1.103   1.107   1.108   1.110   1.114
  1.116   1.123   1.126   1.126   1.128   1.129   1.133   1.139
  1.142   1.143   1.144   1.147   1.152   1.155   1.157   1.159
  1.160   1.161   1.165   1.167   1.172   1.177   1.180   1.181
  1.185   1.187   1.198   1.198   1.205   1.206   1.212   1.214
  1.218   1.221   1.222   1.226   1.230   1.232   1.241   1.245
  1.247   1.256   1.263   1.269   1.270   1.272   1.273   1.275
  1.279   1.283   1.283   1.288   1.291   1.296   1.298   1.300
  1.303   1.309   1.310   1.313   1.313   1.316   1.317   1.323
  1.329   1.330   1.334   1.341   1.341   1.346   1.355   1.361
  1.363   1.367   1.369   1.372   1.379   1.382   1.385   1.392
  1.394   1.395   1.397   1.399   1.409   1.415   1.419   1.422
  1.424   1.425   1.431   1.433   1.439   1.444   1.452   1.454
  1.457   1.457   1.458   1.466   1.473   1.476   1.481   1.485
  1.490   1.492   1.495   1.497   1.499   1.508   1.512   1.514
  1.517   1.520   1.523   1.523   1.527   1.528   1.533   1.533
  1.534   1.537   1.539   1.544   1.546   1.547   1.548   1.557
  1.557   1.559   1.562   1.563   1.565   1.567   1.568   1.573
  1.573   1.574   1.578   1.580   1.581   1.584   1.586   1.590
  1.599   1.601   1.603   1.608   1.610   1.618   1.620   1.626
  1.628   1.659   1.663   1.668   1.673   1.673   1.691   1.695
  1.706   1.710   1.715   1.720   1.720   1.731   1.752   1.762
  1.766   1.768   1.778   1.791   1.799   1.799   1.807   1.815
  1.816   1.818   1.823   1.827   1.827   1.828   1.832   1.833
  1.835   1.836   1.845   1.847   1.854   1.856   1.863   1.866
  1.869   1.873   1.881   1.882   1.892   1.902   1.903   1.910
  1.915   1.916   1.922   1.925   1.925   1.928   1.934   1.937
  1.938   1.941   1.946   1.948   1.949   1.950   1.957   1.964
  1.967   1.969   1.969   1.972   1.980   1.988   1.992   1.998
  1.999   2.001   2.003   2.011   2.014   2.016   2.020   2.028
  2.031   2.035   2.041   2.044   2.047   2.052   2.065   2.068
  2.072   2.074   2.077   2.079   2.085   2.086   2.088   2.099
  2.103   2.107   2.108   2.112   2.121   2.126   2.126   2.134
  2.135   2.153   2.155   2.156   2.158   2.160   2.162   2.165
  2.168   2.169   2.170   2.178   2.179   2.182   2.187   2.189
  2.195   2.198   2.201   2.206   2.209   2.210   2.212   2.214
  2.219   2.219   2.220   2.223   2.228   2.235   2.237   2.243
  2.244   2.246   2.248   2.249   2.251   2.257   2.259   2.269
  2.271   2.273   2.278   2.281   2.288   2.289   2.292   2.294
  2.297   2.298   2.301   2.305   2.312   2.313   2.318   2.323
  2.328   2.330   2.337   2.338   2.339   2.339   2.350   2.350
  2.355   2.361   2.362   2.369   2.369   2.376   2.376   2.376
  2.381   2.385   2.388   2.393   2.395   2.396   2.399   2.401
  2.402   2.405   2.415   2.421   2.423   2.423   2.426   2.429
  2.433   2.433   2.437   2.440   2.442   2.450   2.452   2.456
  2.462   2.469   2.469   2.470   2.488   2.491   2.492   2.498
  2.502   2.518   2.518   2.521   2.535   2.537   2.554   2.559
  2.575   2.581   2.589   2.593   2.597   2.610   2.619   2.620
  2.629   2.636   2.647   2.648   2.650   2.658   2.660   2.660
  2.662   2.668   2.682   2.690   2.695   2.696   2.698   2.700
  2.701   2.707   2.713   2.716   2.727   2.742   2.743   2.746
  2.747   2.748   2.748   2.752   2.752   2.758   2.762   2.763
  2.768   2.771   2.773   2.781   2.787   2.794   2.798   2.800
  2.803   2.805   2.806   2.807   2.807   2.818   2.818   2.822
  2.825   2.826   2.828   2.830   2.836   2.840   2.843   2.860
  2.864   2.869   2.870   2.872   2.874   2.878   2.890   2.891
  2.900   2.906   2.920   2.921   2.923   2.941   2.945   2.947
  2.958   2.964   2.969   2.973   2.997   3.008   3.012   3.021
  3.023   3.037   3.038   3.043   3.059   3.085   3.091   3.098
  3.104   3.105   3.156   3.165   3.244   3.266   3.276   3.278
  3.307   3.338   3.341   3.424   3.439   3.465   3.469   3.473
  3.492   3.506   3.507   3.510   3.514   3.523   3.570   3.685
  3.696   9.645   9.789  13.161  13.194  13.209  13.249  13.256
 13.284  13.415  13.519  13.526  13.540  13.541  13.568  13.629
 13.646  13.672  13.680  13.684  13.685  13.689  13.714  13.721
 13.746  13.756  13.809  13.810  13.820  13.855  13.880  13.902
 13.907  13.917  13.939  13.948  14.017  14.025  14.043  14.049
 14.056  14.112  14.120  14.136  14.137  14.147  14.157  14.162
 14.167  14.177  14.180  14.189  14.194  14.194  14.215  14.229
 14.253  14.283  14.287  14.329  14.332  14.351  14.358  14.522
 14.530  14.531  14.541  14.548  14.585  14.590  14.591  14.593
 14.596  14.597  14.618  19.589  19.699
 
 Beta MOs
 -- Occupied --
-14.762 -14.658 -10.548 -10.536 -10.536 -10.490 -10.490 -10.489
-10.489 -10.487 -10.487 -10.483 -10.483 -10.483 -10.483 -10.482
-10.482 -10.481 -10.481 -10.481 -10.481 -10.466 -10.465 -10.450
-10.449 -10.447 -10.446 -10.446 -10.446 -10.445 -10.445 -10.445
-10.444 -10.444 -10.444 -10.444 -10.444 -10.442 -10.442 -10.442
-10.442 -10.439 -10.439 -10.438 -10.438 -10.436 -10.435 -10.435
-10.435 -10.434 -10.434 -10.434 -10.433 -10.433 -10.433 -10.433
-10.433 -10.432 -10.432 -10.432 -10.431 -10.431 -10.431 -10.428
-10.427 -10.419 -10.419 -10.408 -10.408 -10.406 -10.406 -10.401
-10.400 -10.399  -6.897  -6.892  -1.147  -1.068  -1.002  -1.000
 -0.996  -0.995  -0.977  -0.951  -0.945  -0.937  -0.935  -0.926
 -0.916  -0.915  -0.907  -0.899  -0.891  -0.883  -0.878  -0.877
 -0.876  -0.854  -0.845  -0.841  -0.836  -0.832  -0.831  -0.830
 -0.829  -0.827  -0.826  -0.797  -0.794  -0.793  -0.791  -0.786
 -0.783  -0.779  -0.751  -0.748  -0.746  -0.744  -0.723  -0.717
 -0.713  -0.709  -0.708  -0.700  -0.695  -0.694  -0.677  -0.674
 -0.671  -0.670  -0.664  -0.660  -0.651  -0.643  -0.642  -0.630
 -0.628  -0.626  -0.624  -0.624  -0.601  -0.596  -0.589  -0.583
 -0.577  -0.576  -0.575  -0.574  -0.568  -0.564  -0.559  -0.557
 -0.555  -0.553  -0.549  -0.547  -0.537  -0.535  -0.530  -0.528
 -0.524  -0.522  -0.521  -0.520  -0.509  -0.509  -0.508  -0.501
 -0.500  -0.498  -0.494  -0.491  -0.486  -0.485  -0.484  -0.481
 -0.476  -0.475  -0.473  -0.472  -0.472  -0.471  -0.469  -0.469
 -0.466  -0.465  -0.465  -0.463  -0.461  -0.456  -0.455  -0.454
 -0.451  -0.451  -0.448  -0.446  -0.446  -0.443  -0.442  -0.437
 -0.436  -0.434  -0.433  -0.429  -0.424  -0.422  -0.419  -0.416
 -0.412  -0.411  -0.410  -0.407  -0.404  -0.401  -0.400  -0.394
 -0.391  -0.386  -0.385  -0.381  -0.378  -0.378  -0.378  -0.377
 -0.373  -0.369  -0.367  -0.351  -0.346  -0.345  -0.343  -0.342
 -0.334  -0.330  -0.329  -0.320  -0.315  -0.310  -0.300  -0.297
 -0.293  -0.293  -0.290  -0.284  -0.280  -0.279  -0.267  -0.258
 -0.255  -0.242  -0.236  -0.227  -0.208
 -- Virtual --
 -0.160  -0.062  -0.039  -0.032  -0.027  -0.023  -0.011  -0.007
 -0.005   0.011   0.014   0.015   0.018   0.022   0.024   0.030
  0.037   0.037   0.052   0.068   0.069   0.092   0.102   0.112
  0.113   0.115   0.120   0.132   0.142   0.147   0.149   0.152
  0.155   0.157   0.158   0.160   0.166   0.172   0.174   0.174
  0.176   0.177   0.180   0.181   0.182   0.184   0.184   0.186
  0.188   0.193   0.196   0.196   0.200   0.203   0.203   0.204
  0.206   0.210   0.211   0.211   0.212   0.214   0.216   0.219
  0.221   0.222   0.222   0.223   0.225   0.227   0.227   0.229
  0.230   0.233   0.234   0.239   0.240   0.241   0.245   0.247
  0.248   0.249   0.250   0.252   0.253   0.256   0.259   0.260
  0.262   0.264   0.264   0.265   0.268   0.269   0.269   0.276
  0.282   0.284   0.285   0.285   0.289   0.290   0.295   0.296
  0.298   0.300   0.300   0.303   0.304   0.307   0.309   0.315
  0.319   0.321   0.322   0.324   0.324   0.328   0.329   0.336
  0.337   0.338   0.339   0.342   0.342   0.344   0.346   0.349
  0.354   0.355   0.366   0.369   0.370   0.377   0.383   0.385
  0.389   0.390   0.400   0.405   0.408   0.412   0.414   0.420
  0.424   0.425   0.427   0.427   0.436   0.443   0.446   0.448
  0.456   0.460   0.463   0.466   0.468   0.475   0.476   0.477
  0.478   0.483   0.484   0.490   0.496   0.499   0.504   0.505
  0.508   0.509   0.510   0.514   0.518   0.519   0.523   0.530
  0.533   0.535   0.537   0.537   0.540   0.543   0.544   0.545
  0.545   0.545   0.548   0.549   0.551   0.552   0.554   0.555
  0.556   0.559   0.560   0.566   0.566   0.567   0.570   0.571
  0.573   0.574   0.575   0.576   0.579   0.580   0.580   0.580
  0.583   0.586   0.587   0.589   0.589   0.590   0.591   0.593
  0.597   0.598   0.600   0.602   0.604   0.605   0.606   0.607
  0.608   0.611   0.611   0.612   0.613   0.615   0.618   0.618
  0.621   0.621   0.622   0.623   0.624   0.626   0.626   0.628
  0.630   0.631   0.633   0.634   0.636   0.637   0.638   0.640
  0.641   0.642   0.642   0.644   0.646   0.648   0.652   0.654
  0.655   0.657   0.659   0.659   0.664   0.665   0.666   0.668
  0.669   0.670   0.671   0.672   0.673   0.676   0.676   0.680
  0.681   0.683   0.690   0.691   0.695   0.696   0.697   0.701
  0.704   0.708   0.710   0.715   0.716   0.717   0.719   0.722
  0.723   0.728   0.730   0.732   0.733   0.740   0.742   0.743
  0.748   0.749   0.756   0.757   0.758   0.760   0.770   0.770
  0.771   0.773   0.774   0.777   0.779   0.782   0.787   0.791
  0.793   0.795   0.796   0.801   0.805   0.806   0.809   0.815
  0.819   0.821   0.823   0.838   0.843   0.845   0.846   0.849
  0.849   0.862   0.868   0.871   0.877   0.879   0.883   0.886
  0.891   0.896   0.899   0.906   0.911   0.914   0.917   0.920
  0.921   0.927   0.928   0.929   0.930   0.932   0.934   0.936
  0.937   0.939   0.944   0.945   0.954   0.957   0.958   0.960
  0.963   0.965   0.967   0.968   0.969   0.971   0.972   0.974
  0.978   0.980   0.980   0.986   0.988   0.989   0.990   0.993
  0.998   0.999   1.001   1.002   1.004   1.008   1.010   1.013
  1.014   1.017   1.019   1.021   1.021   1.024   1.034   1.035
  1.036   1.038   1.039   1.042   1.046   1.051   1.052   1.053
  1.053   1.055   1.055   1.059   1.063   1.066   1.067   1.068
  1.072   1.074   1.077   1.082   1.083   1.086   1.087   1.088
  1.089   1.092   1.094   1.096   1.102   1.103   1.107   1.109
  1.110   1.114   1.116   1.124   1.126   1.127   1.129   1.130
  1.134   1.139   1.143   1.144   1.145   1.148   1.153   1.156
  1.158   1.159   1.161   1.162   1.165   1.169   1.174   1.178
  1.181   1.182   1.187   1.188   1.199   1.199   1.205   1.208
  1.214   1.215   1.219   1.223   1.223   1.228   1.231   1.235
  1.243   1.247   1.249   1.258   1.264   1.270   1.272   1.273
  1.274   1.277   1.280   1.284   1.285   1.289   1.293   1.298
  1.299   1.301   1.304   1.310   1.312   1.315   1.316   1.317
  1.318   1.325   1.330   1.332   1.335   1.342   1.343   1.346
  1.358   1.362   1.364   1.368   1.373   1.376   1.381   1.383
  1.388   1.395   1.396   1.397   1.399   1.402   1.411   1.418
  1.421   1.424   1.425   1.426   1.433   1.434   1.440   1.445
  1.454   1.455   1.458   1.458   1.459   1.466   1.476   1.477
  1.483   1.488   1.491   1.496   1.497   1.500   1.505   1.510
  1.513   1.518   1.520   1.520   1.524   1.525   1.528   1.528
  1.534   1.535   1.535   1.539   1.541   1.545   1.548   1.549
  1.549   1.557   1.558   1.560   1.564   1.564   1.566   1.569
  1.570   1.574   1.574   1.576   1.579   1.580   1.582   1.586
  1.588   1.591   1.600   1.603   1.605   1.609   1.611   1.619
  1.620   1.628   1.630   1.661   1.665   1.669   1.675   1.679
  1.696   1.698   1.710   1.715   1.719   1.721   1.723   1.735
  1.752   1.762   1.766   1.770   1.782   1.791   1.801   1.802
  1.809   1.817   1.820   1.821   1.824   1.827   1.828   1.829
  1.833   1.835   1.836   1.837   1.847   1.848   1.857   1.858
  1.863   1.868   1.872   1.874   1.883   1.887   1.893   1.902
  1.903   1.914   1.918   1.919   1.924   1.926   1.928   1.930
  1.936   1.939   1.940   1.946   1.947   1.950   1.954   1.955
  1.959   1.966   1.969   1.972   1.973   1.975   1.981   1.988
  1.994   1.999   2.000   2.002   2.004   2.011   2.016   2.016
  2.021   2.028   2.032   2.036   2.042   2.044   2.049   2.058
  2.066   2.070   2.074   2.075   2.078   2.080   2.086   2.087
  2.089   2.099   2.104   2.109   2.109   2.114   2.121   2.127
  2.127   2.134   2.136   2.154   2.155   2.157   2.160   2.161
  2.163   2.166   2.169   2.170   2.172   2.180   2.181   2.184
  2.188   2.190   2.197   2.199   2.201   2.207   2.210   2.212
  2.215   2.216   2.219   2.219   2.220   2.223   2.231   2.235
  2.240   2.245   2.246   2.247   2.249   2.250   2.252   2.258
  2.261   2.270   2.273   2.275   2.279   2.283   2.290   2.291
  2.294   2.296   2.300   2.301   2.301   2.307   2.313   2.318
  2.321   2.325   2.328   2.332   2.339   2.339   2.340   2.340
  2.351   2.352   2.358   2.362   2.364   2.369   2.370   2.376
  2.377   2.378   2.381   2.386   2.390   2.395   2.396   2.398
  2.402   2.402   2.403   2.406   2.417   2.423   2.424   2.425
  2.428   2.429   2.434   2.435   2.437   2.443   2.444   2.453
  2.454   2.457   2.464   2.469   2.471   2.473   2.489   2.493
  2.494   2.502   2.505   2.519   2.519   2.522   2.537   2.539
  2.557   2.563   2.577   2.583   2.591   2.599   2.600   2.613
  2.620   2.621   2.631   2.639   2.648   2.650   2.652   2.658
  2.660   2.660   2.662   2.668   2.684   2.692   2.696   2.699
  2.700   2.700   2.701   2.710   2.714   2.718   2.727   2.742
  2.745   2.746   2.748   2.749   2.750   2.753   2.755   2.760
  2.762   2.764   2.768   2.771   2.774   2.782   2.788   2.794
  2.798   2.801   2.804   2.805   2.807   2.807   2.808   2.818
  2.820   2.822   2.825   2.826   2.828   2.831   2.837   2.840
  2.845   2.860   2.866   2.869   2.872   2.873   2.875   2.879
  2.891   2.893   2.901   2.907   2.921   2.924   2.924   2.941
  2.945   2.947   2.960   2.965   2.971   2.974   2.997   3.010
  3.015   3.021   3.023   3.038   3.039   3.045   3.061   3.088
  3.092   3.098   3.105   3.106   3.158   3.165   3.247   3.267
  3.276   3.278   3.309   3.338   3.341   3.424   3.439   3.465
  3.470   3.473   3.493   3.506   3.507   3.511   3.515   3.523
  3.570   3.685   3.697   9.649   9.793  13.161  13.195  13.210
 13.249  13.256  13.284  13.417  13.520  13.526  13.540  13.541
 13.568  13.629  13.646  13.673  13.680  13.684  13.685  13.689
 13.714  13.721  13.746  13.756  13.809  13.810  13.821  13.856
 13.880  13.903  13.907  13.918  13.939  13.949  14.017  14.026
 14.044  14.050  14.057  14.113  14.121  14.136  14.138  14.147
 14.157  14.163  14.170  14.177  14.180  14.189  14.194  14.195
 14.215  14.229  14.254  14.283  14.287  14.329  14.332  14.352
 14.359  14.523  14.531  14.532  14.541  14.548  14.586  14.591
 14.591  14.593  14.596  14.597  14.618  19.601  19.699
 --------------------------------------------------------------
 
          Ground-State Mulliken Net Atomic Charges

     Atom                 Charge (a.u.)    Spin (a.u.)
  --------------------------------------------------------
      1 N                    -0.586014       0.339770
      2 C                     0.346401       0.039802
      3 C                    -0.360226       0.150374
      4 H                     0.281598      -0.007890
      5 C                     0.056799      -0.112360
      6 C                    -0.361616       0.150059
      7 H                     0.281474      -0.007904
      8 C                     0.055021      -0.111785
      9 C                     0.250542      -0.066877
     10 C                    -0.255112       0.086656
     11 H                     0.281018      -0.004493
     12 C                    -0.229935      -0.059583
     13 H                     0.262633       0.003336
     14 C                    -0.224030       0.093968
     15 H                     0.260107      -0.005179
     16 C                    -0.228494      -0.054982
     17 H                     0.260548       0.002866
     18 C                    -0.255908       0.082250
     19 H                     0.275230      -0.004332
     20 C                     0.246438      -0.066451
     21 C                    -0.255183       0.081744
     22 H                     0.275016      -0.004308
     23 C                    -0.228843      -0.054655
     24 H                     0.260411       0.002840
     25 C                    -0.223767       0.093802
     26 H                     0.260230      -0.005169
     27 C                    -0.230151      -0.059540
     28 H                     0.263202       0.003350
     29 C                    -0.252174       0.086722
     30 H                     0.280758      -0.004518
     31 C                    -0.142014       0.376413
     32 C                    -0.754309       0.009086
     33 H                     0.240697       0.001116
     34 H                     0.273489      -0.004106
     35 H                     0.271036      -0.002983
     36 C                    -0.752955       0.009380
     37 H                     0.240530       0.001064
     38 H                     0.270859      -0.004076
     39 H                     0.272210      -0.002994
     40 B                     0.554505       0.342237
     41 C                    -0.131958       0.013329
     42 C                    -0.405961      -0.003641
     43 H                     0.193652      -0.001791
     44 C                     0.068739       0.028706
     45 C                     0.086388       0.100610
     46 C                    -0.404023      -0.062511
     47 H                     0.224363       0.002623
     48 C                    -0.145908       0.070337
     49 C                     0.189388      -0.041209
     50 C                    -0.400636       0.065554
     51 H                     0.212546      -0.003902
     52 C                    -0.077094       0.023132
     53 C                     0.236787      -0.037411
     54 C                     0.187383      -0.058657
     55 C                    -0.402149       0.086859
     56 H                     0.226972      -0.005113
     57 C                    -0.217714      -0.043918
     58 H                     0.227950       0.002190
     59 C                    -0.353191       0.061418
     60 H                     0.226721      -0.003598
     61 C                    -0.216188      -0.053528
     62 H                     0.232490       0.002596
     63 C                    -0.356647       0.078868
     64 H                     0.226565      -0.004683
     65 C                    -0.131030       0.015859
     66 C                    -0.401272      -0.006495
     67 H                     0.191847      -0.001947
     68 C                     0.069215       0.031849
     69 C                     0.088245       0.099819
     70 C                    -0.409153      -0.061816
     71 H                     0.222431       0.002581
     72 C                    -0.146212       0.069330
     73 C                     0.187372      -0.042446
     74 C                    -0.398024       0.067677
     75 H                     0.210047      -0.004031
     76 C                    -0.076941       0.023468
     77 C                     0.238373      -0.038098
     78 C                     0.186661      -0.058890
     79 C                    -0.403660       0.087606
     80 H                     0.228084      -0.005152
     81 C                    -0.218666      -0.045169
     82 H                     0.227128       0.002250
     83 C                    -0.353833       0.063716
     84 H                     0.226580      -0.003739
     85 C                    -0.215445      -0.054183
     86 H                     0.232662       0.002628
     87 C                    -0.357931       0.079762
     88 H                     0.226463      -0.004737
     89 B                     0.587845       0.267130
     90 C                    -0.189675      -0.023043
     91 C                     0.040831       0.003058
     92 C                    -0.358647      -0.000776
     93 H                     0.232741       0.000333
     94 C                     0.274783       0.000660
     95 C                    -0.357779      -0.000802
     96 H                     0.232182       0.000329
     97 C                     0.040188       0.002969
     98 N                    -0.671363       0.000046
     99 C                     0.309535      -0.000023
    100 C                    -0.294469       0.000044
    101 H                     0.252786      -0.000002
    102 C                    -0.228815      -0.000033
    103 H                     0.230820       0.000002
    104 C                    -0.257703       0.000049
    105 H                     0.227470      -0.000003
    106 C                    -0.226835      -0.000034
    107 H                     0.231423       0.000002
    108 C                    -0.296452       0.000045
    109 H                     0.255283      -0.000002
    110 C                     0.300211      -0.000027
    111 C                    -0.294972       0.000045
    112 H                     0.253184      -0.000002
    113 C                    -0.229374      -0.000034
    114 H                     0.231403       0.000002
    115 C                    -0.256256       0.000050
    116 H                     0.228114      -0.000003
    117 C                    -0.227064      -0.000035
    118 H                     0.231869       0.000002
    119 C                    -0.288209       0.000044
    120 H                     0.254189      -0.000002
    121 C                    -0.759008       0.000679
    122 H                     0.233098       0.001422
    123 H                     0.245610      -0.000722
    124 H                     0.245895      -0.000729
    125 C                    -0.758546       0.000603
    126 H                     0.233293       0.001428
    127 H                     0.245251      -0.000748
    128 H                     0.245732      -0.000668
  --------------------------------------------------------
  Sum of atomic charges =    -0.000000
  Sum of spin   charges =     2.000000

 -----------------------------------------------------------------
                    Cartesian Multipole Moments
 -----------------------------------------------------------------
    Charge (ESU x 10^10)
                -0.0000
    Dipole Moment (Debye)
         X      -0.0242      Y      -1.3307      Z     -26.6216
       Tot      26.6548
    Quadrupole Moments (Debye-Ang)
        XX    -422.2767     XY       7.3595     YY    -431.7229
        XZ      -1.5473     YZ      -9.2266     ZZ    -620.8456
    Octopole Moments (Debye-Ang^2)
       XXX      76.3437    XXY    -151.9230    XYY      17.7601
       YYY    -457.5502    XXZ   -3227.8055    XYZ     -76.9500
       YYZ   -3151.5759    XZZ      -5.6330    YZZ    -229.1503
       ZZZ  -11086.5369
    Hexadecapole Moments (Debye-Ang^3)
      XXXX   -5523.0334   XXXY      -5.1193   XXYY   -7474.0522
      XYYY     -33.9545   YYYY  -33039.7927   XXXZ     931.0043
      XXYZ   -1062.3912   XYYZ     203.2512   YYYZ   -3494.3652
      XXZZ  -36456.8818   XYZZ   -1103.9976   YYZZ  -40730.4769
      XZZZ     496.9214   YZZZ   -4564.6859   ZZZZ -228533.0053
 -----------------------------------------------------------------
 Calculating analytic gradient of the SCF energy
 -6.202230453233572E-004 -6.202188394698725E-004
 -6.202224197886965E-004 -6.202195596923344E-004
 -6.202029960228524E-004 -6.202389696717019E-004
 -6.202230098164067E-004 -6.202189119890697E-004
 -6.202190190294138E-004 -6.202229257787950E-004
 -6.202607791457496E-004 -6.201811378080559E-004
 -6.202251439725953E-004 -6.202167452426891E-004
 -6.202068742405014E-004 -6.202350608101606E-004
 -6.202009301239066E-004 -6.202410118714827E-004
 -6.202272461368557E-004 -6.202146388549484E-004
 -6.202093994314173E-004 -6.202325247634805E-004
 -6.202373676052656E-004 -6.202045684558032E-004
 -6.202478549086325E-004 -6.201940487873128E-004
 -6.202156056132991E-004 -6.202263214511479E-004
 -6.202605617221527E-004 -6.201813663057866E-004
 -6.202157188134394E-004 -6.202261720493217E-004
 -6.202315256734642E-004 -6.202104098884258E-004
 -6.202017297645381E-004 -6.202402117021075E-004
 -6.202144289476510E-004 -6.202274566950791E-004
 -6.202367476754769E-004 -6.202051763049878E-004
 -6.202383197646335E-004 -6.202036151490609E-004
 -6.201947704267318E-004 -6.202471334328441E-004
 -6.202282702376531E-004 -6.202136570690554E-004
 -6.202612066167522E-004 -6.201807215490100E-004
 -6.202278929835992E-004 -6.202140228901315E-004
 -6.202057768204379E-004 -6.202361612339158E-004
 -6.202284886521133E-004 -6.202134668950424E-004
 -6.202413838883391E-004 -6.202005251455376E-004
 -6.202176398793796E-004 -6.202242719862357E-004
 -6.202292656655005E-004 -6.202127077501674E-004
 -6.202431172997372E-004 -6.201988087067284E-004
 -6.201999608016524E-004 -6.202419225824870E-004
 -6.202220638902898E-004 -6.202198848585830E-004
 -6.202123787686908E-004 -6.202295445250236E-004
 -6.201966568177697E-004 -6.202452589241834E-004
 -6.202313445809949E-004 -6.202105978662511E-004
 -6.202329654715475E-004 -6.202089501211766E-004
 -6.202302818746373E-004 -6.202116324786445E-004
 -6.202291805557798E-004 -6.202127150169392E-004
 -6.202324269779792E-004 -6.202094807849892E-004
 -6.202470115832457E-004 -6.201949187846009E-004
 -6.202224428807794E-004 -6.202195155350813E-004
 -6.202171986489860E-004 -6.202247183377262E-004
 -6.202203602622339E-004 -6.202215737598440E-004
 -6.202261927945007E-004 -6.202157642219394E-004
 -6.202090948939618E-004 -6.202328206186359E-004
 -6.202116992375660E-004 -6.202302083147009E-004
 -6.202281350924335E-004 -6.202138210667964E-004
 -6.202272998433517E-004 -6.202146214961045E-004
 -6.202358432247477E-004 -6.202060507486442E-004
 -6.202286664984648E-004 -6.202132713889573E-004
 -6.202227395472687E-004 -6.202191557248478E-004
 -6.202625765150690E-004 -6.201793531978617E-004
 -6.202115301537334E-004 -6.202304115806543E-004
 -6.202186848848857E-004 -6.202232194691327E-004
 -6.202316931711117E-004 -6.202102122152877E-004
 -6.202300844453103E-004 -6.202118095376070E-004
 -6.202104249683182E-004 -6.202314948692682E-004
 -6.202399665471053E-004 -6.202019729392604E-004
 -6.202342282231127E-004 -6.202077282381758E-004
 -6.202247570504391E-004 -6.202171445823876E-004
 -6.201816231610899E-004 -6.202603067416527E-004
 -6.202051289961060E-004 -6.202368216440987E-004
 -6.202224189974110E-004 -6.202194845404441E-004
 -6.202090301498125E-004 -6.202328740751464E-004
 -6.202317258977977E-004 -6.202101764259024E-004
 -6.202281194438946E-004 -6.202138000816767E-004
 -6.202315941151304E-004 -6.202103132941758E-004
 -6.202325654382210E-004 -6.202093870328376E-004
 -6.202159895878663E-004 -6.202259333984692E-004
 -6.202054538923697E-004 -6.202364451216527E-004
 -6.202257040146001E-004 -6.202162283954047E-004
 -6.202124280309944E-004 -6.202294858821921E-004
 -6.201935455594252E-004 -6.202483842287849E-004
 -6.202174297489726E-004 -6.202245387691884E-004
 -6.202237844916031E-004 -6.202181363159730E-004
 -6.202229030013458E-004 -6.202190257589250E-004
 -6.202274688303272E-004 -6.202144901358871E-004
 -6.202248156805225E-004 -6.202171115003312E-004
 -6.202477976066739E-004 -6.201941191246177E-004
 -6.202376088621696E-004 -6.202043347267695E-004
 -6.202106138672295E-004 -6.202312996437810E-004
 -6.202124989999497E-004 -6.202294117110448E-004
 -6.202282054665449E-004 -6.202136928901630E-004
 -6.202025140901679E-004 -6.202393998878769E-004
 -6.202248885823265E-004 -6.202170226529586E-004
 -6.202281525222764E-004 -6.202138193729046E-004
 -6.201976444366585E-004 -6.202442845772352E-004
 -6.202404296871848E-004 -6.202014572041539E-004
 -6.202235784012003E-004 -6.202183714460458E-004
 -6.202203566862868E-004 -6.202215766831280E-004
 -6.202189725087642E-004 -6.202229376566340E-004
 -6.201936461838368E-004 -6.202482799696356E-004
 -6.202348496091203E-004 -6.202070434833884E-004
 -6.202261757586115E-004 -6.202157291630455E-004
 -6.202258667820458E-004 -6.202160839883308E-004
 -6.202262179091780E-004 -6.202156652976746E-004
 -6.202251070592562E-004 -6.202168115188792E-004
 -6.202331458446936E-004 -6.202087997013729E-004
 -6.202215204695281E-004 -6.202203931690073E-004
 -6.202329002596539E-004 -6.202090073281020E-004
 -6.202240946152428E-004 -6.202178409729593E-004
 -6.202219128036470E-004 -6.202200009804089E-004
 -6.202084663622659E-004 -6.202334389916498E-004
 -6.202273358412257E-004 -6.202145968857562E-004
 -6.202056262210382E-004 -6.202362669410739E-004
 -6.202227455682426E-004 -6.202191603132643E-004
 -6.202263905369995E-004 -6.202155599483644E-004
 -6.202156054189184E-004 -6.202262790308955E-004
 -6.202214717490306E-004 -6.202204474167885E-004
 -6.202319325181121E-004 -6.202100121147940E-004
 -6.202191453765074E-004 -6.202227694003503E-004
 -6.202119973437646E-004 -6.202299116998983E-004
 -6.202252283677489E-004 -6.202167113948906E-004
 -6.202203709609278E-004 -6.202215400911659E-004
 -6.202356173798349E-004 -6.202062861962635E-004
 -6.202257724553204E-004 -6.202161544392083E-004
 -6.202219046201194E-004 -6.202201091715503E-004
 -6.202264263290032E-004 -6.202154961524419E-004
 -6.202201875208385E-004 -6.202217455280058E-004
 -6.202224113307191E-004 -6.202196338355234E-004
 -6.202085950411056E-004 -6.202333146900031E-004
 -6.201967966823295E-004 -6.202451305352019E-004
 -6.202220745838513E-004 -6.202199763511081E-004
 -6.202349322283037E-004 -6.202069709160741E-004
 -6.202261803529343E-004 -6.202157463166287E-004
 -6.202236977253974E-004 -6.202182942709450E-004
 -6.202209557684579E-004 -6.202209678600436E-004
 -6.201967294052424E-004 -6.202451888414371E-004
 -6.202230160676040E-004 -6.202190273667689E-004
 -6.202309122839204E-004 -6.202110005655627E-004
 -6.202011252248583E-004 -6.202407957218791E-004
 -6.202211029551311E-004 -6.202209394755980E-004
 -6.202398486281200E-004 -6.202020666175818E-004
 -6.202422478821676E-004 -6.201996605422370E-004
 -6.202217068680041E-004 -6.202203444324934E-004
 -6.202254907528710E-004 -6.202164112638653E-004
 -6.202188972705981E-004 -6.202230289071839E-004
 -6.202191166531059E-004 -6.202228780379011E-004
 -6.202274593093371E-004 -6.202144607344609E-004
 -6.202409717279094E-004 -6.202009474577855E-004
 -6.202217650332617E-004 -6.202202825356674E-004
 -6.202199541563508E-004 -6.202219585423554E-004
 -6.202490585187642E-004 -6.201928647275693E-004
 -6.202219789093658E-004 -6.202200530633874E-004
 -6.202335315937008E-004 -6.202083937742383E-004
 -6.202087786340245E-004 -6.202331141918590E-004
 -6.202226147059656E-004 -6.202194191118000E-004
 -6.202464964702251E-004 -6.201954086627965E-004
 -6.202023308617568E-004 -6.202395940956637E-004
 -6.202254697398845E-004 -6.202164954531179E-004
 -6.202285732997474E-004 -6.202133467578750E-004
 -6.202101788807156E-004 -6.202317325233996E-004
 -6.202212571163888E-004 -6.202207813780406E-004
 -6.202365947660346E-004 -6.202053320720253E-004
 -6.202201002310283E-004 -6.202218304291986E-004
 -6.202199050344062E-004 -6.202220993315948E-004
 -6.201892256719684E-004 -6.202527036492819E-004
 -6.202255163890656E-004 -6.202163757604739E-004
 -6.202207538162464E-004 -6.202212812143180E-004
 -6.202353724879148E-004 -6.202065512250829E-004
 -6.202305927642857E-004 -6.202113047986539E-004
 -6.202193408705831E-004 -6.202226931824301E-004
 -6.202508297534524E-004 -6.201910804113103E-004
 -6.202377852380746E-004 -6.202041361726703E-004
 -6.202161010153390E-004 -6.202258665857981E-004
 -6.202317463666595E-004 -6.202101739206629E-004
 -6.202262627915538E-004 -6.202156510445269E-004
 -6.202204008793954E-004 -6.202216047393210E-004
 -6.201957836403604E-004 -6.202461583251236E-004
 -6.202111583842482E-004 -6.202307155601584E-004
 -6.202219665355811E-004 -6.202199738268981E-004
 -6.202330648199800E-004 -6.202088541574173E-004
 -6.202191959691939E-004 -6.202226907905179E-004
 -6.202210331525991E-004 -6.202209778408528E-004
 -6.202401110811752E-004 -6.202017824445150E-004
 -6.202217201690833E-004 -6.202201882325803E-004
 -6.202201193061422E-004 -6.202218464332886E-004
 -6.202038039221722E-004 -6.202380712267852E-004
 -6.202240532502218E-004 -6.202178910027374E-004
 -6.202192522796992E-004 -6.202227593248983E-004
 -6.202004085450109E-004 -6.202415302372766E-004
 -6.202357750785579E-004 -6.202061014141804E-004
 -6.202194248167331E-004 -6.202225174657660E-004
 -6.202314338406965E-004 -6.202104798078704E-004
 -6.202216690565755E-004 -6.202202164823147E-004
 -6.202219476072055E-004 -6.202200664681459E-004
 -6.202389919402045E-004 -6.202029104750737E-004
 -6.202120062968726E-004 -6.202299094737587E-004
 -6.202208977183020E-004 -6.202210691045362E-004
 -6.202034299661981E-004 -6.202384498326831E-004
 -6.202223562546261E-004 -6.202195833981756E-004
 -6.202218865539701E-004 -6.202201597779478E-004
 -6.202218762615185E-004 -6.202200336738721E-004
 -6.201927289190907E-004 -6.202491949086111E-004
 -6.202209140966773E-004 -6.202211371406935E-004
 -6.202148760382594E-004 -6.202270263986495E-004
 -6.202251888060033E-004 -6.202167394872992E-004
 -6.202197617624666E-004 -6.202222319597635E-004
 -6.202142039869479E-004 -6.202277194863010E-004
 -6.201981704273993E-004 -6.202437490414159E-004
 -6.202203455006205E-004 -6.202216970665550E-004
 -6.202032053805184E-004 -6.202387112390000E-004
 -6.201990557639343E-004 -6.202428537856872E-004
 -6.202206987494272E-004 -6.202213455926924E-004
 -6.202095454809151E-004 -6.202323677163810E-004
 -6.202416081002798E-004 -6.202003079182999E-004
 -6.202197921393015E-004 -6.202222589601832E-004
 -6.202087598933690E-004 -6.202331450084919E-004
 -6.202179468540466E-004 -6.202239799894231E-004
 -6.202212997496885E-004 -6.202206932072913E-004
 -6.202192406535816E-004 -6.202226811755006E-004
 -6.202440204004352E-004 -6.201978983505614E-004
 -6.202204749022930E-004 -6.202215723857043E-004
 -6.202320634173584E-004 -6.202098472566519E-004
 -6.202454967650625E-004 -6.201964290851505E-004
 -6.202204673315469E-004 -6.202215667736381E-004
 -6.202056082706722E-004 -6.202363126632170E-004
 -6.202098173026628E-004 -6.202320776307581E-004
 -6.202187679735810E-004 -6.202232665009144E-004
 -6.201916735592848E-004 -6.202502391654674E-004
 -6.202060113661777E-004 -6.202359116294105E-004
 -6.202164821527398E-004 -6.202254860592620E-004
 -6.202094096549800E-004 -6.202325140628070E-004
 -6.202134515871886E-004 -6.202284647858631E-004
 -6.202208374259385E-004 -6.202212017349336E-004
 -6.202060046327195E-004 -6.202359214400522E-004
 -6.202223125875008E-004 -6.202196180565763E-004
 -6.202211722117602E-004 -6.202208313821619E-004
 -6.202528666879441E-004 -6.201890615878245E-004
 -6.202143929063979E-004 -6.202275006720938E-004
 -6.202207269158821E-004 -6.202213066264873E-004
 -6.202093061164255E-004 -6.202326206604451E-004
 -6.202321033042416E-004 -6.202097903846732E-004
 -6.202209432758721E-004 -6.202210900107403E-004
 -6.201952528059100E-004 -6.202466529756833E-004
 -6.202418761474452E-004 -6.202000494411123E-004
 -6.202248156796632E-004 -6.202171488417985E-004
 -6.202146790013271E-004 -6.202272385076425E-004
 -6.202289233814417E-004 -6.202129895806649E-004
 -6.202203846598714E-004 -6.202216244480726E-004
 -6.202403217394503E-004 -6.202016135068558E-004
 -6.202020560060680E-004 -6.202398203158204E-004
 -6.202192946260760E-004 -6.202226452047878E-004
 -6.202093689937400E-004 -6.202325395771622E-004
 -6.202217234569850E-004 -6.202201643782421E-004
 -6.202210009849997E-004 -6.202210125218511E-004
 -6.202035009461017E-004 -6.202384005766594E-004
 -6.202315304178098E-004 -6.202103796002120E-004
 -6.202212835415625E-004 -6.202206829108281E-004
 -6.202381230958951E-004 -6.202037584763469E-004
 -6.202191439318808E-004 -6.202227947019113E-004
 -6.202211395021448E-004 -6.202208683946802E-004
 -6.202463103430756E-004 -6.201956324315548E-004
 -6.202289832782857E-004 -6.202128892401102E-004
 -6.202217406362679E-004 -6.202202008667906E-004
 -6.202100710278492E-004 -6.202318487669353E-004
 -6.202229251104468E-004 -6.202189600678928E-004
 -6.202202960929850E-004 -6.202217150311999E-004
 -6.202021279112518E-004 -6.202397664801144E-004
 -6.202199694895723E-004 -6.202219419518816E-004
 -6.202208075339952E-004 -6.202211579079824E-004
 -6.202378644287111E-004 -6.202040101411446E-004
 -6.202174352109713E-004 -6.202245087458530E-004
 -6.202211049213835E-004 -6.202209099001171E-004
 -6.202171146486747E-004 -6.202248082729050E-004
 -6.202243939023875E-004 -6.202175359421889E-004
 -6.202205143745839E-004 -6.202214170800937E-004
 -6.202230319133159E-004 -6.202188724786811E-004
 -6.202483034187600E-004 -6.201936229114812E-004
 -6.201916247410444E-004 -6.202502774585995E-004
 -6.202162442191210E-004 -6.202256751859293E-004
 -6.201802457919185E-004 -6.202616838647791E-004
 -6.202121954193440E-004 -6.202296894290046E-004
 -6.202102743599751E-004 -6.202316501607658E-004
 -6.202435825199078E-004 -6.201983591794235E-004
 -6.202126253846896E-004 -6.202292579392364E-004
 -6.202057431612249E-004 -6.202361749191677E-004
 -6.202062447049069E-004 -6.202356911526940E-004
 -6.202239669241874E-004 -6.202179626405936E-004
 -6.202218085142331E-004 -6.202201153159167E-004
 -6.201796582230775E-004 -6.202622549869530E-004
 -6.202284576263438E-004 -6.202134241470896E-004
 -6.202335380544448E-004 -6.202083864865761E-004
 -6.202459166524068E-004 -6.201960256733686E-004
 -6.202280781524597E-004 -6.202138034181937E-004
 -6.202301322726394E-004 -6.202117852987982E-004
 -6.202077366449442E-004 -6.202342001017884E-004
 -6.202485732391432E-004 -6.201933291811430E-004
 -6.202228495598387E-004 -6.202190712818293E-004
 -6.201817562373890E-004 -6.202601734169605E-004
 -6.202249926997482E-004 -6.202169234083911E-004
 -6.202233500400056E-004 -6.202186067191367E-004
 -6.202329682051592E-004 -6.202089890069113E-004
 -6.202087246975494E-004 -6.202332155562713E-004
 -6.202100439718887E-004 -6.202318950042674E-004
 -6.201994158431492E-004 -6.202425347956738E-004
 -6.202376927464894E-004 -6.202042397854716E-004
 -6.202477432178064E-004 -6.201941690212027E-004
 -6.202460520841211E-004 -6.201959024918589E-004
 -6.202262399044097E-004 -6.202156758273867E-004
 -6.202373213897769E-004 -6.202045686874090E-004
 -6.202118306419773E-004 -6.202300847237838E-004
 -6.202220289171200E-004 -6.202199088618733E-004
 -6.202136536829230E-004 -6.202282639989405E-004
 -6.202035270092023E-004 -6.202384080814873E-004
 -6.202243414124447E-004 -6.202175817292963E-004
 -6.202368580988086E-004 -6.202050670583080E-004
 -6.202237730958537E-004 -6.202181419457148E-004
 -6.202240477071783E-004 -6.202178981777546E-004
 -6.202433132909203E-004 -6.201985960663205E-004
 -6.202318173993182E-004 -6.202101555045798E-004
 -6.202236789582914E-004 -6.202182567808277E-004
 -6.202172699375010E-004 -6.202246470419260E-004
 -6.202130966058631E-004 -6.202288598684338E-004
 -6.202154937574451E-004 -6.202264535644392E-004
 -6.201990316894554E-004 -6.202428912876163E-004
 -6.201938957724744E-004 -6.202480410805922E-004
 -6.202158773791005E-004 -6.202260500358120E-004
 -6.202292997278532E-004 -6.202126063956623E-004
 -6.202160334775860E-004 -6.202258714793479E-004
 -6.202076533945019E-004 -6.202342900889680E-004
 -6.202188989485872E-004 -6.202230070133442E-004
 -6.202135020059738E-004 -6.202284619967813E-004
 -6.201917543021090E-004 -6.202501796824829E-004
 -6.202088153790773E-004 -6.202330915240700E-004
 -6.202115795517516E-004 -6.202303598972231E-004
 -6.202336524630851E-004 -6.202082677345656E-004
 -6.202343394686351E-004 -6.202075983845063E-004
 -6.202087843126375E-004 -6.202331753589736E-004
 -6.202068004430511E-004 -6.202351075610491E-004
 -6.201887601160152E-004 -6.202531606003429E-004
 -6.202381531273483E-004 -6.202037989889032E-004
 -6.202147383559266E-004 -6.202271718118183E-004
 -6.202070973576285E-004 -6.202348004755975E-004
 -6.202114916719698E-004 -6.202304146638025E-004
 -6.202158665473852E-004 -6.202260520036785E-004
 -6.202301597964575E-004 -6.202117559512525E-004
 -6.202073120198094E-004 -6.202346381494131E-004
 -6.202184281681427E-004 -6.202234817067040E-004
 -6.202036679333934E-004 -6.202382462904670E-004
 -6.202168744802918E-004 -6.202250580594057E-004
 -6.202199666828246E-004 -6.202219544326336E-004
 -6.201957656365316E-004 -6.202461539973622E-004
 -6.202254195088737E-004 -6.202165529680345E-004
 -6.202162879013635E-004 -6.202256393951341E-004
 -6.202219684588638E-004 -6.202199574737935E-004
 -6.202120353438971E-004 -6.202299223182728E-004
 -6.202251678163644E-004 -6.202167563453870E-004
 -6.202419554858775E-004 -6.201999642632651E-004
 -6.202004924471021E-004 -6.202414497641714E-004
 -6.202274796412859E-004 -6.202144429808479E-004
 -6.202106689555594E-004 -6.202312382602310E-004
 -6.202156956086598E-004 -6.202262069073661E-004
 -6.202382033640076E-004 -6.202037146378187E-004
 -6.202237713004918E-004 -6.202181334584395E-004
 -6.202140926685230E-004 -6.202278811858772E-004
 -6.202507400002340E-004 -6.201911712929887E-004
 -6.202339489498135E-004 -6.202079511695758E-004
 -6.202195847414513E-004 -6.202223670389082E-004
 -6.202042152404281E-004 -6.202376757613788E-004
 -6.202171300681336E-004 -6.202247742342326E-004
 -6.202177674645048E-004 -6.202241826533171E-004
 -6.202128761565168E-004 -6.202290075358759E-004
 -6.202191140858592E-004 -6.202228034115932E-004
 -6.202104713682383E-004 -6.202314743712823E-004
 -6.202185812135765E-004 -6.202233359590881E-004
 -6.202294388558918E-004 -6.202124735295866E-004
 -6.202157772280785E-004 -6.202261651971370E-004
 -6.202194819773021E-004 -6.202224305986340E-004
 -6.202062531619408E-004 -6.202356498968789E-004
 -6.202163646451395E-004 -6.202255615940567E-004
 -6.202385982916602E-004 -6.202032927513091E-004
 -6.202174662004962E-004 -6.202244397455436E-004
 -6.202183868594607E-004 -6.202235622146616E-004
 -6.202283938304961E-004 -6.202134902019994E-004
 -6.202181299244648E-004 -6.202237874209700E-004
 -6.202112210261428E-004 -6.202307267449736E-004
 -6.202228830914008E-004 -6.202190321376794E-004
 -6.202334317931413E-004 -6.202084729298816E-004
 -6.202148883110364E-004 -6.202270436404294E-004
 -6.202226802131525E-004 -6.202192335181711E-004
 -6.202104201557565E-004 -6.202314928119097E-004
 -6.202183228264594E-004 -6.202236129881882E-004
 Gradient of SCF Energy
            1           2           3           4           5           6
    1   0.0000354  -0.0003120  -0.0033600   0.0049720   0.0005817   0.0027317
    2  -0.0000692  -0.0003697   0.0014842  -0.0002100  -0.0003916  -0.0016243
    3  -0.0011730  -0.0008220   0.0020386  -0.0035282   0.0023130   0.0026269
            7           8           9          10          11          12
    1  -0.0049983  -0.0010036   0.0020393  -0.0019777   0.0025407   0.0006954
    2   0.0000173   0.0000536   0.0010596   0.0031933  -0.0042161   0.0028607
    3  -0.0035408   0.0025020   0.0018062  -0.0012933   0.0051910  -0.0015258
           13          14          15          16          17          18
    1  -0.0026806   0.0026915  -0.0054926   0.0007881  -0.0028126   0.0006766
    2  -0.0064943   0.0013598  -0.0026690  -0.0024440   0.0040441  -0.0041820
    3   0.0014413   0.0020286  -0.0040517   0.0023655  -0.0058640   0.0007808
           19          20          21          22          23          24
    1   0.0026826  -0.0028332  -0.0005053  -0.0026395  -0.0007467   0.0029416
    2   0.0071776  -0.0011846   0.0041414  -0.0069619   0.0024266  -0.0039745
    3  -0.0023258   0.0021774   0.0007966  -0.0023905   0.0024984  -0.0059162
           25          26          27          28          29          30
    1  -0.0024234   0.0054950  -0.0004425   0.0026417   0.0022877  -0.0025375
    2  -0.0013040   0.0026937  -0.0025779   0.0063406  -0.0029358   0.0041012
    3   0.0019710  -0.0039826  -0.0015715   0.0015132  -0.0009130   0.0049619
           31          32          33          34          35          36
    1  -0.0002528   0.0032585  -0.0020994  -0.0003320  -0.0002945  -0.0029037
    2   0.0003397   0.0001790  -0.0000366  -0.0002016  -0.0000328   0.0000817
    3   0.0024695   0.0030004  -0.0023463  -0.0008160  -0.0008385   0.0029706
           37          38          39          40          41          42
    1   0.0020518   0.0004373   0.0004768   0.0000561   0.0000079   0.0001100
    2  -0.0001244  -0.0000418  -0.0000641  -0.0003122  -0.0002515  -0.0016170
    3  -0.0024297  -0.0007826  -0.0008457  -0.0011110   0.0019372   0.0021404
           43          44          45          46          47          48
    1   0.0001029   0.0000351   0.0002946  -0.0001875   0.0000092   0.0000162
    2  -0.0002786   0.0032847   0.0041955   0.0000440  -0.0008420  -0.0001912
    3  -0.0000794   0.0021368  -0.0020240   0.0013020  -0.0045674   0.0007116
           49          50          51          52          53          54
    1  -0.0001768  -0.0000189   0.0000512  -0.0000492  -0.0001586  -0.0002558
    2  -0.0036898  -0.0003451  -0.0000754   0.0001211  -0.0008613  -0.0038406
    3  -0.0018369   0.0033114  -0.0007114  -0.0003310   0.0003379   0.0020740
           55          56          57          58          59          60
    1   0.0001460  -0.0000293  -0.0000824  -0.0000005   0.0001848  -0.0000197
    2   0.0009470  -0.0013314   0.0007454  -0.0001994   0.0026836   0.0001838
    3  -0.0017014  -0.0016551   0.0027916  -0.0006846  -0.0006426  -0.0002186
           61          62          63          64          65          66
    1   0.0000811   0.0000131   0.0001260   0.0000541   0.0000521   0.0001866
    2   0.0004329   0.0002341   0.0034733   0.0006365   0.0004823   0.0018704
    3  -0.0016247  -0.0008697   0.0015235  -0.0001356   0.0023745   0.0021286
           67          68          69          70          71          72
    1   0.0000688   0.0000878  -0.0000054  -0.0001734   0.0000875  -0.0000863
    2  -0.0001718  -0.0034892  -0.0060245   0.0000059   0.0003941   0.0009381
    3  -0.0001559   0.0025900  -0.0017670   0.0010338  -0.0045707   0.0010994
           73          74          75          76          77          78
    1  -0.0000359  -0.0001758   0.0000864   0.0000252   0.0000306   0.0001587
    2   0.0020731   0.0011364  -0.0003594  -0.0016927   0.0009677   0.0045519
    3  -0.0019915   0.0030405  -0.0010311   0.0006633  -0.0000864   0.0016729
           79          80          81          82          83          84
    1   0.0000052  -0.0000190  -0.0000381   0.0000345  -0.0000399  -0.0000128
    2  -0.0003627   0.0011433  -0.0000433   0.0003013  -0.0025361   0.0000257
    3  -0.0017600  -0.0018127   0.0029265  -0.0009225  -0.0002074  -0.0002067
           85          86          87          88          89          90
    1   0.0000955   0.0000100  -0.0001374   0.0000141  -0.0000510  -0.0003062
    2   0.0001193  -0.0003162  -0.0022532  -0.0004089   0.0003920  -0.0004474
    3  -0.0015399  -0.0006458   0.0018145  -0.0000130  -0.0032026   0.0021361
           91          92          93          94          95          96
    1   0.0045497   0.0001103   0.0027213  -0.0001402  -0.0004669  -0.0028048
    2   0.0008206  -0.0016887  -0.0001703  -0.0003295   0.0015554  -0.0001584
    3   0.0041626   0.0001240  -0.0019554  -0.0038328  -0.0001441  -0.0018575
           97          98          99         100         101         102
    1  -0.0042542   0.0001375   0.0006914   0.0012720   0.0007099  -0.0011362
    2   0.0001271  -0.0000492  -0.0015889  -0.0004423  -0.0022892  -0.0005632
    3   0.0043650   0.0003075   0.0009531  -0.0006227  -0.0005866  -0.0018574
          103         104         105         106         107         108
    1  -0.0004778  -0.0011081  -0.0006364  -0.0003151  -0.0001418  -0.0006044
    2  -0.0003471   0.0013065   0.0007251   0.0021609   0.0012260  -0.0000612
    3  -0.0009356  -0.0011300  -0.0005727   0.0002059   0.0005925   0.0007610
          109         110         111         112         113         114
    1   0.0014011  -0.0008259  -0.0009801  -0.0006074   0.0011469   0.0004911
    2   0.0003607   0.0014984   0.0000568   0.0024210   0.0006945   0.0004226
    3   0.0030544   0.0007976  -0.0009898  -0.0007278  -0.0016755  -0.0008174
          115         116         117         118         119         120
    1   0.0013749   0.0006484   0.0004075   0.0000629   0.0007436  -0.0016023
    2  -0.0013932  -0.0006153  -0.0019624  -0.0010882   0.0003669  -0.0004255
    3  -0.0010219  -0.0004397   0.0005114   0.0005048   0.0012481   0.0025234
          121         122         123         124         125         126
    1   0.0023477  -0.0017619   0.0003075   0.0003302  -0.0023075   0.0019444
    2   0.0001803  -0.0001425  -0.0026920   0.0029230   0.0000227  -0.0001062
    3  -0.0032098  -0.0013606   0.0022181   0.0017706  -0.0032065  -0.0013407
          127         128
    1  -0.0003366  -0.0004397
    2  -0.0026718   0.0030305
    3   0.0022442   0.0018044
 Max gradient component =       7.178E-03
 RMS gradient           =       2.013E-03
 Computing fast IEFPCM-SWIG gradient.
 Updating gradient with PCM contributions...
 -- total gradient after adding PCM contribution --
---------------------------------------------------
  Atom         X              Y              Z     
---------------------------------------------------
   1       0.000024      -0.000071       0.000241
   2      -0.000277      -0.000279      -0.001053
   3      -0.000660      -0.000048       0.000038
   4       0.000094       0.000009      -0.000137
   5       0.000170      -0.000239      -0.000770
   6       0.000056      -0.000152       0.000583
   7      -0.000141       0.000047      -0.000177
   8      -0.000629      -0.000334      -0.000585
   9      -0.000562       0.000044       0.000124
  10       0.000071       0.000112      -0.000292
  11      -0.000018      -0.000132       0.000009
  12      -0.000250       0.000210      -0.000240
  13      -0.000021       0.000005      -0.000060
  14       0.000278       0.000107       0.000106
  15      -0.000001       0.000021      -0.000073
  16       0.000125      -0.000171      -0.000087
  17      -0.000017       0.000007      -0.000032
  18       0.000399      -0.000312       0.000374
  19      -0.000098       0.000170      -0.000176
  20      -0.000245      -0.000185       0.000484
  21      -0.000243       0.000231       0.000340
  22       0.000136       0.000098      -0.000157
  23      -0.000079       0.000144       0.000028
  24       0.000101       0.000011      -0.000054
  25      -0.000013      -0.000057       0.000047
  26       0.000033      -0.000026      -0.000066
  27       0.000478      -0.000007      -0.000303
  28       0.000073      -0.000022      -0.000006
  29       0.000210       0.000015      -0.000036
  30       0.000020       0.000184      -0.000058
  31      -0.000245       0.000210       0.000614
  32       0.000104      -0.000118      -0.000085
  33       0.000103       0.000068      -0.000089
  34       0.000085      -0.000035      -0.000033
  35       0.000117       0.000010      -0.000093
  36       0.000322      -0.000094      -0.000015
  37      -0.000186       0.000037      -0.000133
  38       0.000027       0.000011      -0.000080
  39       0.000038      -0.000054      -0.000156
  40       0.000046      -0.000169       0.000359
  41       0.000109      -0.000160      -0.000188
  42       0.000137      -0.000223       0.000081
  43       0.000118      -0.000352      -0.000270
  44      -0.000002      -0.000485       0.000431
  45       0.000155      -0.000499       0.000321
  46      -0.000182       0.000100      -0.000169
  47      -0.000039       0.000149      -0.000267
  48      -0.000016       0.000313       0.000132
  49      -0.000106      -0.000638      -0.001036
  50       0.000004      -0.000204      -0.000087
  51       0.000070      -0.000051      -0.000117
  52      -0.000084      -0.000891      -0.000275
  53      -0.000118       0.000254       0.000212
  54      -0.000125      -0.000086      -0.000121
  55       0.000130       0.000362       0.000267
  56      -0.000033       0.000129      -0.000068
  57      -0.000092       0.000169       0.000215
  58       0.000009       0.000039      -0.000057
  59       0.000128       0.000353       0.000085
  60      -0.000023       0.000054      -0.000060
  61       0.000053       0.000398       0.000169
  62      -0.000011      -0.000016      -0.000055
  63       0.000067       0.000786       0.000359
  64       0.000038       0.000068      -0.000003
  65       0.000079      -0.000026       0.000296
  66       0.000218       0.000289       0.000243
  67       0.000056      -0.000154      -0.000236
  68       0.000113      -0.000220       0.000340
  69       0.000054      -0.000998      -0.000234
  70      -0.000117      -0.000242      -0.000485
  71       0.000006       0.000206      -0.000244
  72      -0.000085       0.000417       0.000500
  73      -0.000066      -0.000634      -0.000755
  74      -0.000096       0.000190      -0.000483
  75       0.000040      -0.000066      -0.000116
  76       0.000043      -0.000727       0.000548
  77       0.000009      -0.000064       0.000008
  78       0.000121       0.000594       0.000215
  79      -0.000017       0.000570       0.000141
  80      -0.000043       0.000037      -0.000088
  81       0.000003       0.000079       0.000151
  82       0.000007       0.000115      -0.000008
  83      -0.000008      -0.000124      -0.000052
  84      -0.000020       0.000040      -0.000031
  85       0.000099       0.000526       0.000177
  86       0.000009       0.000009       0.000003
  87      -0.000112       0.000176       0.000240
  88       0.000017       0.000053       0.000014
  89      -0.000075       0.000658       0.000272
  90      -0.000270      -0.000347       0.000484
  91       0.000358       0.000204       0.000334
  92       0.000290      -0.000177       0.000422
  93      -0.000140      -0.000014      -0.000126
  94      -0.000254      -0.000182      -0.000323
[...]
  0.608   0.611   0.612   0.613   0.613   0.615   0.618   0.618
  0.621   0.621   0.623   0.623   0.625   0.625   0.627   0.628
  0.629   0.632   0.633   0.634   0.637   0.638   0.639   0.640
  0.641   0.642   0.642   0.644   0.647   0.648   0.652   0.654
  0.655   0.656   0.659   0.660   0.664   0.665   0.665   0.668
  0.669   0.671   0.671   0.672   0.673   0.676   0.676   0.680
  0.681   0.683   0.690   0.692   0.695   0.696   0.698   0.701
  0.704   0.707   0.710   0.716   0.716   0.717   0.718   0.722
  0.722   0.729   0.730   0.732   0.734   0.739   0.741   0.744
  0.747   0.749   0.756   0.758   0.758   0.761   0.769   0.771
  0.772   0.773   0.774   0.777   0.779   0.783   0.788   0.791
  0.793   0.794   0.797   0.800   0.805   0.809   0.810   0.815
  0.818   0.824   0.827   0.839   0.841   0.844   0.847   0.849
  0.851   0.860   0.868   0.872   0.877   0.880   0.883   0.886
  0.891   0.897   0.899   0.906   0.910   0.912   0.917   0.919
  0.922   0.927   0.928   0.929   0.930   0.933   0.934   0.936
  0.938   0.939   0.946   0.948   0.954   0.957   0.959   0.960
  0.964   0.965   0.968   0.968   0.969   0.971   0.973   0.973
  0.978   0.980   0.983   0.988   0.989   0.989   0.990   0.995
  0.998   0.999   1.002   1.003   1.005   1.009   1.010   1.014
  1.015   1.018   1.019   1.021   1.022   1.025   1.033   1.034
  1.035   1.038   1.039   1.043   1.047   1.051   1.051   1.053
  1.054   1.055   1.056   1.059   1.062   1.066   1.067   1.069
  1.071   1.072   1.078   1.082   1.083   1.086   1.087   1.087
  1.089   1.092   1.094   1.096   1.101   1.102   1.107   1.109
  1.111   1.114   1.117   1.122   1.124   1.127   1.130   1.131
  1.133   1.139   1.143   1.143   1.146   1.149   1.153   1.155
  1.159   1.160   1.161   1.162   1.166   1.169   1.174   1.179
  1.180   1.183   1.187   1.189   1.198   1.200   1.205   1.210
  1.215   1.217   1.219   1.222   1.223   1.228   1.231   1.233
  1.242   1.248   1.251   1.258   1.264   1.271   1.271   1.274
  1.275   1.277   1.280   1.284   1.287   1.291   1.293   1.295
  1.300   1.302   1.304   1.310   1.313   1.315   1.316   1.317
  1.318   1.325   1.330   1.333   1.335   1.343   1.343   1.346
  1.358   1.362   1.363   1.369   1.372   1.378   1.382   1.384
  1.387   1.395   1.396   1.397   1.399   1.403   1.411   1.418
  1.422   1.425   1.425   1.428   1.434   1.435   1.439   1.446
  1.453   1.457   1.458   1.459   1.459   1.466   1.475   1.477
  1.482   1.490   1.491   1.493   1.499   1.500   1.504   1.511
  1.514   1.518   1.520   1.521   1.524   1.525   1.528   1.528
  1.534   1.535   1.535   1.536   1.540   1.545   1.545   1.549
  1.549   1.557   1.558   1.561   1.564   1.564   1.566   1.569
  1.570   1.573   1.574   1.577   1.579   1.581   1.582   1.587
  1.589   1.594   1.601   1.604   1.607   1.610   1.611   1.619
  1.620   1.628   1.631   1.661   1.665   1.668   1.678   1.680
  1.698   1.699   1.711   1.715   1.717   1.721   1.728   1.737
  1.753   1.763   1.767   1.770   1.783   1.794   1.802   1.803
  1.811   1.818   1.820   1.821   1.824   1.828   1.828   1.830
  1.832   1.835   1.835   1.838   1.848   1.848   1.858   1.859
  1.864   1.869   1.872   1.875   1.884   1.887   1.892   1.903
  1.903   1.913   1.916   1.920   1.924   1.926   1.928   1.931
  1.936   1.940   1.940   1.946   1.947   1.950   1.954   1.955
  1.960   1.965   1.970   1.972   1.973   1.977   1.982   1.988
  1.995   1.998   2.000   2.001   2.004   2.012   2.016   2.017
  2.020   2.027   2.032   2.036   2.042   2.044   2.049   2.058
  2.068   2.070   2.074   2.076   2.078   2.080   2.086   2.087
  2.089   2.099   2.104   2.109   2.111   2.114   2.122   2.125
  2.128   2.135   2.136   2.154   2.155   2.158   2.160   2.162
  2.164   2.166   2.169   2.170   2.173   2.180   2.181   2.184
  2.188   2.190   2.196   2.200   2.202   2.207   2.210   2.211
  2.215   2.217   2.218   2.219   2.220   2.224   2.232   2.235
  2.240   2.244   2.246   2.247   2.249   2.250   2.252   2.258
  2.261   2.270   2.274   2.275   2.280   2.284   2.289   2.293
  2.294   2.295   2.300   2.300   2.301   2.307   2.312   2.319
  2.321   2.326   2.328   2.332   2.338   2.339   2.340   2.340
  2.351   2.352   2.358   2.362   2.364   2.369   2.371   2.376
  2.377   2.377   2.381   2.385   2.388   2.394   2.395   2.399
  2.402   2.403   2.406   2.407   2.417   2.423   2.424   2.425
  2.430   2.431   2.434   2.436   2.437   2.443   2.445   2.453
  2.455   2.457   2.463   2.469   2.471   2.474   2.489   2.491
  2.494   2.502   2.504   2.518   2.519   2.523   2.536   2.539
  2.556   2.564   2.578   2.583   2.591   2.600   2.602   2.615
  2.620   2.622   2.631   2.641   2.649   2.651   2.652   2.657
  2.660   2.661   2.662   2.669   2.685   2.693   2.696   2.699
  2.700   2.700   2.702   2.711   2.714   2.718   2.727   2.742
  2.746   2.746   2.748   2.749   2.750   2.753   2.756   2.760
  2.762   2.765   2.768   2.772   2.773   2.783   2.789   2.794
  2.798   2.801   2.804   2.805   2.806   2.807   2.809   2.819
  2.820   2.822   2.825   2.827   2.828   2.831   2.836   2.841
  2.846   2.861   2.868   2.869   2.872   2.874   2.875   2.879
  2.892   2.893   2.901   2.906   2.922   2.924   2.926   2.942
  2.943   2.947   2.959   2.966   2.971   2.974   2.997   3.010
  3.015   3.021   3.024   3.037   3.039   3.047   3.062   3.088
  3.092   3.098   3.105   3.107   3.160   3.167   3.247   3.267
  3.275   3.279   3.309   3.338   3.343   3.424   3.440   3.466
  3.471   3.474   3.493   3.507   3.509   3.512   3.516   3.523
  3.570   3.685   3.697   9.653   9.796  13.161  13.195  13.210
 13.250  13.256  13.284  13.418  13.520  13.526  13.540  13.541
 13.568  13.629  13.646  13.673  13.682  13.684  13.686  13.689
 13.714  13.720  13.747  13.756  13.809  13.810  13.821  13.856
 13.881  13.903  13.907  13.919  13.941  13.950  14.018  14.026
 14.044  14.050  14.057  14.113  14.120  14.137  14.139  14.147
 14.157  14.163  14.172  14.178  14.181  14.189  14.194  14.195
 14.216  14.230  14.254  14.283  14.288  14.329  14.332  14.353
 14.361  14.524  14.531  14.532  14.541  14.549  14.586  14.591
 14.591  14.593  14.595  14.599  14.617  19.601  19.699
 --------------------------------------------------------------
 
          Ground-State Mulliken Net Atomic Charges

     Atom                 Charge (a.u.)    Spin (a.u.)
  --------------------------------------------------------
      1 N                    -0.585477       0.338479
      2 C                     0.345397       0.041631
      3 C                    -0.358153       0.147152
      4 H                     0.280845      -0.007783
      5 C                     0.058148      -0.108005
      6 C                    -0.363770       0.151976
      7 H                     0.282915      -0.007936
      8 C                     0.057482      -0.113992
      9 C                     0.240326      -0.065331
     10 C                    -0.250617       0.085007
     11 H                     0.280638      -0.004410
     12 C                    -0.229979      -0.058330
     13 H                     0.263642       0.003280
     14 C                    -0.223676       0.091725
     15 H                     0.260156      -0.005055
     16 C                    -0.229565      -0.053218
     17 H                     0.260226       0.002786
     18 C                    -0.252274       0.079954
     19 H                     0.274132      -0.004236
     20 C                     0.254014      -0.067279
     21 C                    -0.256149       0.082562
     22 H                     0.275219      -0.004341
     23 C                    -0.228783      -0.055289
     24 H                     0.260504       0.002876
     25 C                    -0.224044       0.094177
     26 H                     0.259847      -0.005191
     27 C                    -0.230572      -0.059683
     28 H                     0.262285       0.003346
     29 C                    -0.256696       0.086783
     30 H                     0.281113      -0.004512
     31 C                    -0.142852       0.376952
     32 C                    -0.754517       0.009463
     33 H                     0.240880       0.001136
     34 H                     0.270800      -0.004138
     35 H                     0.273686      -0.003092
     36 C                    -0.753772       0.008797
     37 H                     0.240671       0.001119
     38 H                     0.273759      -0.003834
     39 H                     0.270060      -0.002882
     40 B                     0.552013       0.341693
     41 C                    -0.129022       0.018270
     42 C                    -0.397841      -0.007667
     43 H                     0.191608      -0.002143
     44 C                     0.068627       0.032556
     45 C                     0.084763       0.100546
     46 C                    -0.408804      -0.062729
     47 H                     0.222878       0.002623
     48 C                    -0.146391       0.070416
     49 C                     0.188785      -0.042834
     50 C                    -0.399488       0.068513
     51 H                     0.208200      -0.004090
     52 C                    -0.077305       0.023777
     53 C                     0.235990      -0.038582
     54 C                     0.188247      -0.059282
     55 C                    -0.404353       0.088372
     56 H                     0.227996      -0.005201
     57 C                    -0.218120      -0.045628
     58 H                     0.226773       0.002272
     59 C                    -0.352863       0.064246
     60 H                     0.226740      -0.003768
     61 C                    -0.215405      -0.054548
     62 H                     0.232716       0.002645
     63 C                    -0.356437       0.080200
     64 H                     0.226598      -0.004759
     65 C                    -0.130469       0.011665
     66 C                    -0.408403      -0.002904
     67 H                     0.194408      -0.001584
     68 C                     0.071467       0.027928
     69 C                     0.087420       0.099881
     70 C                    -0.403963      -0.062159
     71 H                     0.223831       0.002621
     72 C                    -0.144444       0.069954
     73 C                     0.184766      -0.040711
     74 C                    -0.398678       0.064786
     75 H                     0.213810      -0.003848
     76 C                    -0.076028       0.022834
     77 C                     0.239872      -0.037014
     78 C                     0.185937      -0.058297
     79 C                    -0.401727       0.086238
     80 H                     0.226927      -0.005074
     81 C                    -0.218666      -0.043477
     82 H                     0.228247       0.002167
     83 C                    -0.354119       0.061013
     84 H                     0.226577      -0.003578
     85 C                    -0.216258      -0.053304
     86 H                     0.232302       0.002586
     87 C                    -0.357827       0.078556
     88 H                     0.226404      -0.004667
     89 B                     0.585811       0.266548
     90 C                    -0.188921      -0.023027
     91 C                     0.041359       0.003050
     92 C                    -0.361267      -0.000811
     93 H                     0.232917       0.000335
     94 C                     0.276389       0.000709
     95 C                    -0.359183      -0.000851
     96 H                     0.232363       0.000340
     97 C                     0.041357       0.003133
     98 N                    -0.672181       0.000049
     99 C                     0.310277      -0.000025
    100 C                    -0.296474       0.000044
    101 H                     0.252934      -0.000002
    102 C                    -0.228426      -0.000033
    103 H                     0.231005       0.000002
    104 C                    -0.257731       0.000049
    105 H                     0.227559      -0.000003
    106 C                    -0.227023      -0.000034
    107 H                     0.231505       0.000002
    108 C                    -0.295637       0.000044
    109 H                     0.254965      -0.000002
    110 C                     0.300196      -0.000025
    111 C                    -0.293309       0.000045
    112 H                     0.252876      -0.000002
    113 C                    -0.229267      -0.000034
    114 H                     0.231161       0.000002
    115 C                    -0.256549       0.000050
    116 H                     0.228035      -0.000003
    117 C                    -0.226933      -0.000036
    118 H                     0.231960       0.000002
    119 C                    -0.288750       0.000045
    120 H                     0.254394      -0.000002
    121 C                    -0.758646       0.000681
    122 H                     0.233013       0.001423
    123 H                     0.247156      -0.000756
    124 H                     0.244218      -0.000667
    125 C                    -0.759328       0.000621
    126 H                     0.233344       0.001421
    127 H                     0.246796      -0.000849
    128 H                     0.244892      -0.000606
  --------------------------------------------------------
  Sum of atomic charges =    -0.000000
  Sum of spin   charges =     2.000000

 -----------------------------------------------------------------
                    Cartesian Multipole Moments
 -----------------------------------------------------------------
    Charge (ESU x 10^10)
                -0.0000
    Dipole Moment (Debye)
         X      -0.2872      Y      -2.0940      Z     -26.3562
       Tot      26.4408
    Quadrupole Moments (Debye-Ang)
        XX    -421.2053     XY       6.5825     YY    -432.6416
        XZ      -3.0395     YZ     -10.8354     ZZ    -620.0845
    Octopole Moments (Debye-Ang^2)
       XXX      61.6405    XXY    -165.9118    XYY      -0.5442
       YYY    -474.1516    XXZ   -3223.9178    XYZ     -74.3332
       YYZ   -3156.6703    XZZ      29.6744    YZZ    -271.0282
       ZZZ  -11065.9518
    Hexadecapole Moments (Debye-Ang^3)
      XXXX   -5645.4146   XXXY     100.9655   XXYY   -7557.4744
      XYYY      33.7256   YYYY  -33457.6972   XXXZ     896.5923
      XXYZ   -1921.0420   XYYZ     119.9208   YYYZ   -6065.2302
      XXZZ  -36282.4489   XYZZ   -1078.5821   YYZZ  -40703.9247
      XZZZ    1141.9237   YZZZ   -7211.3803   ZZZZ -227256.4449
 -----------------------------------------------------------------
Archival summary:
1\1\ctcp033\OPT\ProcedureUnspecified\BasisUnspecified\272252(3)\mewes\MonOct2923:44:272018MonOct2923:44:272018\0\\#,OPT,ProcedureUnspecified,BasisUnspecified,\\0,3\N\C,1,1.36421\C,2,1.4126,1,119.655\H,3,1.08232,2,119.537,1,-4.87251,0\C,3,1.37104,2,120.491,1,177.011,0\C,2,1.4128,1,120.698,3,179.128,0\H,6,1.0824,2,119.77,1,-0.668037,0\C,6,1.37288,2,120.099,1,-176.574,0\C,1,1.41349,2,121.949,3,154.914,0\C,9,1.39217,1,119.946,2,-48.0901,0\H,10,1.0824,9,120.25,1,0.0910094,0\C,10,1.38454,9,119.303,1,-178.519,0\H,12,1.08136,10,119.509,9,179.491,0\C,12,1.38809,10,120.273,9,0.311902,0\H,14,1.08164,12,119.981,10,179.802,0\C,14,1.38922,12,120.069,10,0.0995614,0\H,16,1.08153,14,120.195,12,-179.769,0\C,16,1.38291,14,120.265,12,-0.0626507,0\H,18,1.08231,16,120.395,14,-179.598,0\C,1,1.4151,2,120.804,3,-25.5802,0\C,20,1.39254,1,119.54,2,132.978,0\H,21,1.08241,20,120.327,1,-1.26873,0\C,21,1.38352,20,119.366,1,179.686,0\H,23,1.08158,21,119.532,20,179.167,0\C,23,1.389,21,120.328,20,-0.415776,0\H,25,1.08172,23,120.003,21,-179.953,0\C,25,1.38792,23,120.015,21,-0.209546,0\H,27,1.08155,25,120.24,23,-179.135,0\C,27,1.3843,25,120.264,23,0.268939,0\H,29,1.08257,27,120.239,25,-178.705,0\C,5,1.41943,3,120.105,2,-0.829083,0\C,8,1.49634,6,120.37,2,177.441,0\H,32,1.08925,8,111.859,6,4.71868,0\H,32,1.09095,8,110.7,6,125.804,0\H,32,1.09117,8,110.73,6,-116.258,0\C,5,1.49734,3,120.248,2,179.77,0\H,36,1.08944,5,111.71,3,-1.77598,0\H,36,1.09057,5,111.034,3,-123.012,0\H,36,1.09139,5,110.599,3,118.905,0\B,31,1.57661,5,119.832,3,-172.931,0\C,40,1.52301,31,121.179,5,-89.6952,0\C,41,1.41067,40,121.202,31,-0.664655,0\H,42,1.08685,41,119.725,40,-0.778147,0\C,42,1.37101,41,120.594,40,179.059,0\C,44,1.42567,42,120.281,41,0.142781,0\C,45,1.37636,44,119.895,42,-0.0521952,0\H,46,1.08525,45,120.042,44,-179.833,0\C,46,1.40973,45,120.898,44,-0.0315122,0\C,44,1.45885,42,131.438,41,-179.585,0\C,49,1.37225,44,134.98,42,-0.0535883,0\H,50,1.0835,49,121.805,44,-0.0878689,0\C,49,1.40835,44,106.276,42,179.789,0\C,52,1.3906,49,124.024,44,-179.894,0\C,52,1.41129,49,111.253,44,0.00781996,0\C,54,1.37161,52,118.128,49,-179.969,0\H,55,1.08302,54,121.721,52,-179.956,0\C,50,1.41308,49,118.451,44,179.858,0\H,57,1.08287,50,118.554,49,-179.981,0\C,57,1.37675,50,122.449,49,-0.0126811,0\H,59,1.08318,57,119.835,50,-179.982,0\C,55,1.41459,54,118.465,52,0.0246933,0\H,61,1.08256,55,118.323,54,-179.975,0\C,61,1.37661,55,122.848,54,0.0217855,0\H,63,1.08307,61,119.982,55,179.973,0\C,40,1.52622,31,117.789,5,88.8615,0\C,65,1.4099,40,121.013,31,0.365864,0\H,66,1.08637,65,120.067,40,0.00557239,0\C,66,1.36932,65,120.613,40,-179.793,0\C,68,1.42694,66,120.59,65,-0.167042,0\C,69,1.37555,68,119.614,66,0.240754,0\H,70,1.08557,69,120.105,68,179.908,0\C,70,1.41047,69,120.801,68,0.0477702,0\C,68,1.4602,66,131.082,65,179.814,0\C,73,1.37393,68,135.299,66,0.00935239,0\H,74,1.08348,73,121.77,68,0.16049,0\C,73,1.40807,68,106.202,66,-179.994,0\C,76,1.39399,73,123.909,68,179.974,0\C,76,1.41105,73,111.481,68,-0.0333267,0\C,78,1.3737,76,117.807,73,-179.97,0\H,79,1.08278,78,121.733,76,179.994,0\C,74,1.41381,73,118.759,68,-179.952,0\H,81,1.08301,74,118.614,73,-179.971,0\C,81,1.37625,74,122.39,73,-0.0339133,0\H,83,1.0835,81,120,74,-179.972,0\C,79,1.41523,78,118.839,76,-0.00869578,0\H,85,1.0827,79,118.325,78,-179.99,0\C,85,1.37593,79,122.789,78,-0.00144959,0\H,87,1.08342,85,120.152,79,179.993,0\B,72,1.53533,70,120.914,69,178.83,0\C,89,1.57763,72,120.93,70,-0.801047,0\C,90,1.40018,89,120.899,72,94.6459,0\C,91,1.39022,90,120.435,89,174.722,0\H,92,1.08407,91,119.887,90,-177.804,0\C,92,1.38958,91,120.416,90,1.48685,0\C,94,1.3889,92,119.35,91,1.17757,0\H,95,1.08415,94,119.469,92,178.864,0\C,95,1.38874,94,120.703,92,-2.56499,0\N,94,1.41347,92,120.798,91,-177.667,0\C,98,1.39907,94,119.839,92,-49.5726,0\C,99,1.39613,98,120.968,94,143.099,0\H,100,1.08251,99,119.853,98,-0.113546,0\C,100,1.38524,99,120.305,98,-179.811,0\H,102,1.08264,100,119.192,99,179.964,0\C,102,1.38798,100,120.749,99,1.06579,0\H,104,1.08188,102,120.492,100,179.388,0\C,104,1.38803,102,119.022,100,-0.484851,0\H,106,1.08266,104,120.094,102,-179.752,0\C,106,1.3846,104,120.705,102,-0.496194,0\H,108,1.08241,106,119.899,104,-179.289,0\C,98,1.40164,94,118.639,92,131.793,0\C,110,1.39536,98,121.092,94,139.859,0\H,111,1.08265,110,119.899,98,0.444201,0\C,111,1.38564,110,120.328,98,-178.834,0\H,113,1.08266,111,119.192,110,179.825,0\C,113,1.38774,111,120.737,110,1.07599,0\H,115,1.0819,113,120.487,111,179.213,0\C,115,1.38809,113,119.029,111,-0.521962,0\H,117,1.08262,115,120.105,113,-179.952,0\C,117,1.38441,115,120.668,113,-0.480542,0\H,119,1.08244,117,119.893,115,-179.892,0\C,91,1.50341,90,119.555,89,-3.95142,0\H,121,1.09001,91,111.896,90,-179.569,0\H,121,1.09196,91,111.346,90,59.6264,0\H,121,1.09204,91,111.029,90,-59.0077,0\C,97,1.504,95,119.862,94,-178.754,0\H,125,1.09014,97,111.747,95,1.21841,0\H,125,1.09182,97,111.31,95,-119.488,0\H,125,1.09209,97,111.27,95,121.739,0\\\@

 Total job time:  44609.67s(wall), 314546.02s(cpu) 
 Mon Oct 29 23:44:27 2018

        *************************************************************
        *                                                           *
        *  Thank you very much for using Q-Chem.  Have a nice day.  *
        *                                                           *
        *************************************************************


0 sent ACK to 0 
now end server 0 ... 
