mFile = /cm/shared/apps/q-chem/intel/QCHEM_5.0.1_Trunk/bin/mpi/machines
Process 0 of 1 is on ctcp038 - thread support 0
initial socket setup ...start
initial socket setup ...done 
now start server 0 ... 
ctcp038.cm.cluster 10.141.0
Q-Chem Developer Version! Running on 10.141.0.*
                  Welcome to Q-Chem
     A Quantum Leap Into The Future Of Chemistry


 Q-Chem 5.0, Q-Chem, Inc., Pleasanton, CA (2017)

 Yihan Shao,  Zhengting Gan,  E. Epifanovsky,  A. T. B. Gilbert,  M. Wormit,  
 J. Kussmann,  A. W. Lange,  A. Behn,  Jia Deng,  Xintian Feng,  D. Ghosh,  
 M. Goldey,  P. R. Horn,  L. D. Jacobson,  I. Kaliman,  T. Kus,  A. Landau,  
 Jie Liu,  E. I. Proynov,  R. M. Richard,  R. P. Steele,  E. J. Sundstrom,  
 H. L. Woodcock III,  P. M. Zimmerman,  D. Zuev,  B. Albrecht,  E. Alguire,  
 S. A. Baeppler,  Z. Benda,  Y. A. Bernard,  E. J. Berquist,  K. B. Bravaya,  
 D. Casanova,  Chun-Min Chang,  Yunqing Chen,  A. Chien,  K. D. Closser,  
 M. P. Coons,  S. Dasgupta,  M. Diedenhofen,  Hainam Do,  R. G. Edgar,  
 Po-Tung Fang,  S. Fatehi,  Qingguo Feng,  Qinghui Ge,  A. Ghysels,  
 J. Gomes,  J. Gonthier,  A. Gunina,  M. W. D. Hanson-Heine,  
 P. H. P. Harbach,  A. W. Hauser,  J. E. Herr,  E. G. Hohenstein,  
 Z. C. Holden,  Kerwin Hui,  T.-C. Jagau,  Hyunjun Ji,  B. Kaduk,  
 K. Khistyaev,  Jaehoon Kim,  P. Klunzinger,  K. Koh,  D. Kosenkov,  
 T. Kowalczyk,  C. M. Krauter,  A. Kunitsa,  Ka Un Lao,  A. Laurent,  
 K. V. Lawler,  Joonho Lee,  D. Lefrancois,  S. Lehtola,  D. S. Levine,  
 Yi-Pei Li,  You-Sheng Lin,  Fenglai Liu,  E. Livshits,  A. Luenser,  
 P. Manohar,  E. Mansoor,  S. F. Manzer,  Shan-Ping Mao,  Yuezhi Mao,  
 N. Mardirossian,  A. V. Marenich,  L. A. Martinez-Martinez,  S. A. Maurer,  
 N. J. Mayhall,  S. C. McKenzie,  J.-M. Mewes,  A. F. Morrison,  K. Nanda,  
 T. S. Nguyen-Beck,  R. Olivares-Amaya,  J. A. Parkhill,  T. M. Perrine,  
 F. Plasser,  S. Prager,  A. Prociuk,  D. R. Rehn,  F. Rob,  M. Schneider,  
 N. Sergueev,  S. M. Sharada,  S. Sharma,  D. W. Small,  T. Stauch,  
 T. Stein,  Yu-Chuan Su,  A. J. W. Thom,  T. Tsuchimochi,  L. Vogt,  
 O. Vydrov,  M. A. Watson,  J. Wenzel,  M. de Wergifosse,  T. A. Wesolowski,  
 A. White,  J. Witte,  A. Yamada,  Jun Yang,  K. Yao,  S. Yeganeh,  
 S. R. Yost,  Zhi-Qiang You,  A. Zech,  Igor Ying Zhang,  Xing Zhang,  
 Yan Zhao,  Ying Zhu,  B. R. Brooks,  G. K. L. Chan,  C. J. Cramer,  
 M. S. Gordon,  W. J. Hehre,  A. Klamt,  M. W. Schmidt,  C. D. Sherrill,  
 D. G. Truhlar,  A. Aspuru-Guzik,  R. Baer,  A. T. Bell,  N. A. Besley,  
 Jeng-Da Chai,  A. Dreuw,  B. D. Dunietz,  T. R. Furlani,  Chao-Ping Hsu,  
 Yousung Jung,  Jing Kong,  D. S. Lambrecht,  WanZhen Liang,  C. Ochsenfeld,  
 V. A. Rassolov,  L. V. Slipchenko,  J. E. Subotnik,  T. Van Voorhis,  
 J. M. Herbert,  A. I. Krylov,  P. M. W. Gill,  M. Head-Gordon

 Contributors to earlier versions of Q-Chem not listed above: 
 R. D. Adamson,  B. Austin,  J. Baker,  G. J. O. Beran,  K. Brandhorst,  
 S. T. Brown,  E. F. C. Byrd,  A. K. Chakraborty,  C.-L. Cheng,  
 Siu Hung Chien,  D. M. Chipman,  D. L. Crittenden,  H. Dachsel,  
 R. A. DiStasio Jr.,  R. J. Doerksen,  A. D. Dutoi,  L. Fusti-Molnar,  
 W. A. Goddard III,  A. Golubeva-Zadorozhnaya,  S. R. Gwaltney,  G. Hawkins,  
 A. Heyden,  S. Hirata,  G. Kedziora,  F. J. Keil,  C. Kelley,  Jihan Kim,  
 R. A. King,  R. Z. Khaliullin,  P. P. Korambath,  W. Kurlancheek,  
 A. M. Lee,  M. S. Lee,  S. V. Levchenko,  Ching Yeh Lin,  D. Liotard,  
 R. C. Lochan,  I. Lotan,  P. E. Maslen,  N. Nair,  D. P. O'Neill,  
 D. Neuhauser,  E. Neuscamman,  C. M. Oana,  R. Olson,  B. Peters,  
 R. Peverati,  P. A. Pieniazek,  Y. M. Rhee,  J. Ritchie,  M. A. Rohrdanz,  
 E. Rosta,  N. J. Russ,  H. F. Schaefer III,  N. E. Schultz,  N. Shenvi,  
 A. C. Simmonett,  A. Sodt,  D. Stuck,  K. S. Thanthiriwatte,  V. Vanovschi,  
 Tao Wang,  A. Warshel,  C. F. Williams,  Q. Wu,  X. Xu,  W. Zhang

 Please cite Q-Chem as follows:
 Y. Shao et al., Mol. Phys. 113, 184-215 (2015)
 DOI: 10.1080/00268976.2014.952696

 Q-Chem 5.0.1 for Intel X86 EM64T Linux

 Parts of Q-Chem use Armadillo 5.200.1 (Boston Tea Smuggler).
 http://arma.sourceforge.net/

 Q-Chem begins on Thu Oct 25 03:24:44 2018  

Host: ctcp038
0

     Scratch files written to /scratch/mewes/138327/qchem29822//
 Parallel job on  1  processors
The previous job contains 0 fragments, simply inherited here
Symmetry turned off for PCM/SM12/SMD calculation

Checking the input file for inconsistencies... 	...done.

--------------------------------------------------------------
User input:
--------------------------------------------------------------
$rem
threads 8
jobtype opt
method PBEh-3c
basis def2-mSVP
mem_static      1024
mem_total       8000
sym_ignore      true
unrestricted true
scf_algorithm   diis
scf_max_cycles  250
solvent_method  pcm
geom_opt_tol_energy 25
geom_opt_tol_gradient 75
$end

$pcm
theory  iefpcm
$end

$solvent
dielectric      2.03
$end

$molecule
read utLEincoords.mol
$end

--------------------------------------------------------------
 Adding empirical dispersion correction 
 ----------------------------------------------------------------
 Doing -D3(BJ) with
 s6 =   1.00000
 s8 =   0.00000
 a1 =   0.48600
 a2 =   4.50000
 -D3 energy including 3body term =     -0.1217031975 hartrees
 ----------------------------------------------------------------
 Adding gCP correction 
 ----------------------------------------------------------------
 gCP energy =      0.1708445502 hartrees
 ----------------------------------------------------------------
             Standard Nuclear Orientation (Angstroms)
    I     Atom           X                Y                Z
 ----------------------------------------------------------------
    1      C      -4.8437830000    -0.3520910000     4.5098680000
    2      C      -5.4514100000    -0.8964070000     3.3897930000
    3      C      -4.7402150000    -1.0191990000     2.1859000000
    4      C      -3.4204850000    -0.5630410000     2.1358210000
    5      C      -2.8321500000     0.0090360000     3.2600760000
    6      C      -3.5307790000     0.1070890000     4.4538020000
    7      N      -2.9192670000     0.6516430000     5.6002050000
    8      C      -6.8687260000    -1.3929560000     3.4747350000
    9      C      -2.6076270000    -0.6611940000     0.8726810000
   10      C      -1.6322070000     0.2278770000     5.9646250000
   11      C      -0.7116310000     1.1264660000     6.5023590000
   12      C      -4.4549950000     2.5116160000     5.8390170000
   13      C      -3.6479670000     1.5309210000     6.4155450000
   14      C      -5.2097850000     3.3539180000     6.6369650000
   15      C      -5.1596700000     3.2496090000     8.0194600000
   16      C      -4.3491430000     2.2824540000     8.5952560000
   17      C      -3.6051080000     1.4220900000     7.8050090000
   18      C      -1.2520930000    -1.1022770000     5.7829450000
   19      C       0.0240630000    -1.5170240000     6.1216800000
   20      C       0.9355480000    -0.6239970000     6.6658630000
   21      C       0.5558010000     0.6962550000     6.8580100000
   22      C      -6.7412780000    -1.5674470000    -1.2868730000
   23      C      -6.1516460000    -0.8974970000    -0.1345050000
   24      B      -5.4168180000    -1.7119590000     0.9422930000
   25      C      -5.3440580000    -3.2406410000     0.7909820000
   26      C      -5.9353510000    -3.9013460000    -0.3610680000
   27      B      -6.6499720000    -3.0912920000    -1.4501520000
   28      C      -4.7119700000    -4.0133230000     1.7786800000
   29      C      -4.6510560000    -5.3803470000     1.6581600000
   30      C      -5.2393210000    -6.0345500000     0.5046710000
   31      C      -5.8600520000    -5.2951670000    -0.4726080000
   32      C      -7.4065810000    -0.8117240000    -2.2562480000
   33      C      -7.5024770000     0.5532310000    -2.1254630000
   34      C      -6.9125130000     1.2295390000    -0.9826020000
   35      C      -6.2575730000     0.4983830000    -0.0191980000
   36      C      -3.3991980000    -6.4323410000     3.6970740000
   37      C      -2.9863630000    -7.6775480000     4.2161320000
   38      C      -3.2367240000    -8.8700890000     3.5740470000
   39      C      -3.9336390000    -8.8819980000     2.3427150000
   40      C      -4.3293600000    -7.6408630000     1.8531580000
   41      C      -4.0784200000    -6.4126550000     2.5022490000
   42      C      -4.2734320000   -10.0042270000     1.5483130000
   43      C      -4.9562700000    -9.8356630000     0.3634570000
   44      C      -5.3453300000    -8.5672250000    -0.1127960000
   45      C      -5.0289180000    -7.4597230000     0.6402030000
   46      C      -7.3324120000     5.0235830000    -0.9019740000
   47      C      -6.8871490000     3.7790640000    -0.4092040000
   48      C      -7.1772340000     2.6476870000    -1.1337090000
   49      C      -7.9072740000     2.7907530000    -2.3346980000
   50      C      -8.3600920000     4.0031190000    -2.8424210000
   51      C      -8.0451410000     5.1495000000    -2.0745570000
   52      C      -8.1264330000     1.5453860000    -2.9642530000
   53      C      -8.8278620000     1.5089430000    -4.1477560000
   54      C      -9.2971580000     2.7251960000    -4.6803230000
   55      C      -9.0787080000     3.9379000000    -4.0616570000
   56      C      -9.1969550000    -4.8907410000    -3.7308540000
   57      C      -8.6154520000    -4.2728540000    -2.6361960000
   58      C      -7.2896460000    -3.8113490000    -2.6991300000
   59      C      -6.5729710000    -4.0041690000    -3.8834410000
   60      C      -7.1629530000    -4.6459640000    -4.9688210000
   61      C      -8.4757980000    -5.0876440000    -4.9062730000
   62      N      -9.0786210000    -5.7210330000    -6.0109500000
   63      C      -9.4211000000    -4.0805150000    -1.3819470000
   64      C      -5.1469450000    -3.5458880000    -4.0247850000
   65      C      -8.8639440000    -5.2316800000    -7.3090250000
   66      C      -8.8959080000    -3.8617130000    -7.5668010000
   67      C     -11.0427690000    -7.0523130000    -6.5348020000
   68      C      -9.8577330000    -6.8734950000    -5.8210000000
   69      C     -11.8015780000    -8.1962500000    -6.3532020000
   70      C     -11.4081370000    -9.1697750000    -5.4468380000
   71      C     -10.2353210000    -8.9897800000    -4.7287480000
   72      C      -9.4588240000    -7.8590370000    -4.9188030000
   73      C      -8.6192290000    -6.1109550000    -8.3642070000
   74      C      -8.4244330000    -5.6283780000    -9.6471980000
   75      C      -8.4488950000    -4.2647020000    -9.8995730000
   76      C      -8.6799740000    -3.3873840000    -8.8500020000
   77      H      -5.3955910000    -0.2840520000     5.4400630000
   78      H      -1.8116390000     0.3710190000     3.2064500000
   79      H      -6.9293440000    -2.4660020000     3.2798580000
   80      H      -7.5089710000    -0.9030350000     2.7379290000
   81      H      -7.3005660000    -1.2115570000     4.4584310000
   82      H      -3.1561820000    -1.1345380000     0.0586750000
   83      H      -1.6985730000    -1.2437800000     1.0316070000
   84      H      -2.3000120000     0.3254830000     0.5216860000
   85      H      -0.9916880000     2.1628370000     6.6391450000
   86      H      -4.4961340000     2.6034700000     4.7612650000
   87      H      -5.8351580000     4.1050530000     6.1719180000
   88      H      -5.7473050000     3.9122040000     8.6404210000
   89      H      -4.3071120000     2.1816900000     9.6720490000
   90      H      -2.9934470000     0.6565100000     8.2643780000
   91      H      -1.9603790000    -1.8100340000     5.3723340000
   92      H       0.3028020000    -2.5520760000     5.9707910000
   93      H       1.9299530000    -0.9530620000     6.9357850000
   94      H       1.2582360000     1.4065100000     7.2743880000
   95      H      -4.2772900000    -3.5193030000     2.6394480000
   96      H      -6.3012810000    -5.7849720000    -1.3337760000
   97      H      -7.8476300000    -1.3149410000    -3.1097480000
   98      H      -5.8160480000     0.9899600000     0.8401740000
   99      H      -3.1777080000    -5.5237250000     4.2415320000
  100      H      -2.4519020000    -7.6939160000     5.1567770000
  101      H      -2.8986660000    -9.8007890000     4.0127760000
  102      H      -3.9962480000   -11.0001860000     1.8712140000
  103      H      -5.2039890000   -10.7085070000    -0.2267140000
  104      H      -5.8787440000    -8.4867490000    -1.0515350000
  105      H      -7.1033170000     5.9147980000    -0.3328470000
  106      H      -6.3314820000     3.7341140000     0.5183490000
  107      H      -8.3637500000     6.1290740000    -2.4082720000
  108      H      -9.0219340000     0.5792860000    -4.6677470000
  109      H      -9.8499070000     2.7051570000    -5.6105330000
  110      H      -9.4607720000     4.8452920000    -4.5124930000
  111      H     -10.2270130000    -5.2238260000    -3.6761050000
  112      H      -6.5893610000    -4.7994780000    -5.8762370000
  113      H     -10.4379510000    -4.4551710000    -1.4966700000
  114      H      -9.4866060000    -3.0260100000    -1.1059410000
  115      H      -8.9715840000    -4.6024640000    -0.5345910000
  116      H      -5.0391100000    -2.8409940000    -4.8511090000
  117      H      -4.4817140000    -4.3861800000    -4.2316660000
  118      H      -4.7745370000    -3.0528540000    -3.1276880000
  119      H      -9.0912290000    -3.1703100000    -6.7575300000
  120      H     -11.3686190000    -6.2938300000    -7.2348850000
  121      H     -12.7177420000    -8.3193750000    -6.9164050000
  122      H     -12.0085930000   -10.0579920000    -5.3027040000
  123      H      -9.9115160000    -9.7438240000    -4.0229870000
  124      H      -8.5370850000    -7.7350240000    -4.3657720000
  125      H      -8.5852850000    -7.1766760000    -8.1777970000
  126      H      -8.2377880000    -6.3260700000   -10.4534660000
  127      H      -8.2897150000    -3.8900540000   -10.9018020000
  128      H      -8.7076150000    -2.3209600000    -9.0330200000
 ----------------------------------------------------------------
 Nuclear Repulsion Energy = 10753.6218198647 hartrees
 There are      255 alpha and      253 beta electrons
 Requested basis set is def2-mSVP
 There are 636 shells and 1244 basis functions

 Total QAlloc Memory Limit   8000 MB
 Mega-Array Size      1001 MB
 MEM_STATIC part      1024 MB
 Discretize the solute cavity surface with Lebedev spheres
	Using 302 Lebedev grid points for each H atom
	Using 302 Lebedev grid points for other atoms
	Atomic van der Waals radii will be scaled by 1.20
 Remove points where switching function is < 1.0e-08
 Keep 13506 surface tesserae and discard 25150 interior tesserae
 Molecular Surface Area = 1019.747 Angst**2
 A cutoff of  1.0D-11 yielded  54217 shell pairs
 There are    214655 function pairs (    236558 Cartesian)
 
 -------------------------------------------------------
 OpenMP Integral Computing Module                       
 Release: version 1.0, May 2013, Q-Chem Inc. Pittsburgh 
 -------------------------------------------------------
 Integral Job Info:
 Integral job number is                      11
 Integral operator is                         1
 short-range coefficients                     0
 long-range coefficients              100000000
 Omega coefficients                           0
 if combine SR and LR in K                    0
 Integral screening is                        0
 Integral computing path is                   2
 max size of driver memory is            800000
 size of driver memory is                593474
 size of scratch memory is              1809772
 max col of scratch BK array               1296
 max len of scratch array in speh3          155
 max len of scratch index in speh4           18
 max int batch size is                      520
 min int batch size is                       52
 fixed nKL is                                52
 max L of basis functions is                  2
 order of int derivative is                   0
 number of shells is                        636
 number of basis is                        1320
 number of cartesian basis is              1320
 number of contracted shell pairs         54217
 number of primitive shell pairs         113359
 maxK2 (contraction) of shell pair           25
 max number of K2 of shell pair               1
 max number of CS2 of shell pair          13089
 max number of PS2 of shell pair          19865
 mem total for path MDJ                  556808
 -------------------------------------------------------
 Smallest overlap matrix eigenvalue = 2.03E-04

 Scale SEOQF with 1.000000e-02/1.000000e-02/1.000000e-02

 Standard Electronic Orientation quadrupole field applied
 Nucleus-field energy     =     0.0000000438 hartrees
 Guess from superposition of atomic densities
 Warning:  Energy on first SCF cycle will be non-variational
 An unrestricted hybrid HF-DFT SCF calculation will be
 performed using Pulay DIIS extrapolation
 Polarizable Continuum solvation model will be applied
 Exchange:     0.4200 Hartree-Fock + 0.5800 PBEh-3c
 Correlation:  1.0000 PBEh-3c
 Using SG-1 standard quadrature grid
 Dispersion:   Grimme D3
 SCF converges when DIIS error is below 1.0E-08
 using 8 threads for integral computing
 -------------------------------------------------------
 OpenMP Integral computing Module                
 Release: version 1.0, May 2013, Q-Chem Inc. Pittsburgh 
 -------------------------------------------------------
 ---------------------------------------
  Cycle       Energy         DIIS Error
 ---------------------------------------
    1   -2953.8449042698      2.39E-02
 Using non-symmetric K matrix
    2   -2927.1038925672      1.72E-03
    3   -2926.9032000773      2.00E-03
    4   -2927.6069984934      8.71E-04
    5   -2927.7524409665      4.00E-04
    6   -2927.7686647690      3.22E-04
    7   -2927.7920427841      7.66E-05
    8   -2927.7931012441      4.84E-05
    9   -2927.7936809478      2.96E-05
   10   -2927.7939388659      2.66E-05
   11   -2927.7941987840      2.82E-05
   12   -2927.7944527347      2.86E-05
   13   -2927.7946957007      2.83E-05
   14   -2927.7945604644      2.83E-05
   15   -2927.7944526285      2.77E-05
   16   -2927.7933906883      3.38E-06
   17   -2927.7933773396      5.74E-06
   18   -2927.7933404574      3.84E-06
   19   -2927.7933421643      1.44E-06
   20   -2927.7933562692      1.05E-06
   21   -2927.7933720159      6.88E-07
   22   -2927.7933829376      5.30E-07
   23   -2927.7933947868      3.02E-07
   24   -2927.7933988500      3.12E-07
   25   -2927.7934029200      2.46E-07
   26   -2927.7934045481      2.04E-07
   27   -2927.7934055952      2.06E-07
   28   -2927.7934062085      2.12E-07
   29   -2927.7934066451      1.53E-07
   30   -2927.7934071962      1.08E-07
   31   -2927.7934071994      4.86E-08
   32   -2927.7934073197      4.57E-08
   33   -2927.7934073662      1.12E-08
   34   -2927.7934073797      1.34E-08
   35   -2927.7934073843      9.12E-09 Convergence criterion met
 ---------------------------------------

************** Final PCM Free Energy Summary **************
 G_electrostatic  =      -0.02027209 hartree =     -12.72092764 kcal/mol
 G_cavitation     =       0.00000000 hartree =       0.00000000 kcal/mol
 G_dispersion     =       0.00000000 hartree =       0.00000000 kcal/mol
 G_repulsion      =       0.00000000 hartree =       0.00000000 kcal/mol
 --------------------------------------------------
 Non-electrostatic Free Energy =       0.00000000 hartree =       0.00000000 kcal/mol
 Total                         =      -0.02027209 hartree =     -12.72092764 kcal/mol
 --------------------------------------------------
 SCF Energy (H0 + V/2)                       =   -2927.79340738 
 Solute Internal Energy (H0)                 =   -2927.77313530 
 Total Free Energy (H0 + V/2 + non-elec)     =   -2927.79340738 hartree
                                             = -1837218.09226503 kcal/mol
***********************************************************

 <S^2> = 2.0557
 SCF time:  CPU 18161.84 s  wall 5838.50 s
 SCF   energy in the final basis set = -2927.79340738
 Total energy in the final basis set = -2927.79340738
 
 --------------------------------------------------------------
 
                    Orbital Energies (a.u.)
 --------------------------------------------------------------
 
 Alpha MOs
 -- Occupied --
-14.717 -14.717 -10.512 -10.512 -10.512 -10.512 -10.503 -10.501
-10.466 -10.466 -10.466 -10.466 -10.466 -10.465 -10.465 -10.465
-10.464 -10.463 -10.463 -10.463 -10.463 -10.463 -10.463 -10.463
-10.462 -10.462 -10.462 -10.462 -10.456 -10.456 -10.456 -10.455
-10.449 -10.448 -10.448 -10.448 -10.446 -10.445 -10.443 -10.442
-10.442 -10.442 -10.442 -10.442 -10.441 -10.441 -10.441 -10.441
-10.441 -10.440 -10.440 -10.440 -10.440 -10.438 -10.431 -10.431
-10.430 -10.429 -10.428 -10.427 -10.427 -10.427 -10.426 -10.425
-10.425 -10.424 -10.420 -10.419 -10.419 -10.419 -10.402 -10.402
-10.401 -10.401  -6.895  -6.894  -1.113  -1.113  -0.992  -0.991
 -0.980  -0.980  -0.975  -0.974  -0.955  -0.954  -0.933  -0.931
 -0.914  -0.914  -0.882  -0.877  -0.877  -0.874  -0.871  -0.871
 -0.869  -0.869  -0.855  -0.855  -0.855  -0.854  -0.833  -0.831
 -0.828  -0.828  -0.818  -0.817  -0.791  -0.790  -0.789  -0.772
 -0.768  -0.768  -0.768  -0.767  -0.726  -0.724  -0.724  -0.723
 -0.709  -0.709  -0.708  -0.700  -0.700  -0.695  -0.692  -0.691
 -0.667  -0.662  -0.655  -0.655  -0.650  -0.650  -0.646  -0.642
 -0.624  -0.624  -0.621  -0.618  -0.602  -0.602  -0.581  -0.580
 -0.576  -0.574  -0.571  -0.570  -0.567  -0.566  -0.562  -0.559
 -0.559  -0.553  -0.553  -0.538  -0.538  -0.536  -0.536  -0.526
 -0.525  -0.519  -0.514  -0.513  -0.513  -0.513  -0.506  -0.505
 -0.500  -0.500  -0.498  -0.498  -0.498  -0.487  -0.482  -0.477
 -0.477  -0.475  -0.472  -0.469  -0.468  -0.467  -0.465  -0.465
 -0.463  -0.463  -0.462  -0.461  -0.459  -0.458  -0.458  -0.457
 -0.456  -0.447  -0.447  -0.446  -0.441  -0.439  -0.439  -0.437
 -0.432  -0.431  -0.430  -0.429  -0.429  -0.427  -0.423  -0.418
 -0.416  -0.416  -0.414  -0.413  -0.412  -0.411  -0.405  -0.404
 -0.399  -0.390  -0.388  -0.388  -0.379  -0.379  -0.378  -0.375
 -0.375  -0.374  -0.370  -0.364  -0.348  -0.347  -0.346  -0.326
 -0.325  -0.323  -0.323  -0.319  -0.317  -0.316  -0.311  -0.310
 -0.303  -0.298  -0.296  -0.291  -0.282  -0.281  -0.281  -0.279
 -0.258  -0.247  -0.247  -0.245  -0.236  -0.225  -0.142
 -- Virtual --
 -0.052  -0.020  -0.014  -0.012  -0.012  -0.010  -0.010  -0.004
 -0.003   0.011   0.011   0.015   0.023   0.024   0.024   0.040
  0.041   0.042   0.060   0.090   0.107   0.107   0.110   0.130
  0.131   0.137   0.137   0.140   0.143   0.155   0.159   0.161
  0.163   0.166   0.167   0.168   0.172   0.174   0.177   0.178
  0.181   0.186   0.189   0.191   0.191   0.192   0.193   0.195
  0.196   0.197   0.198   0.199   0.200   0.201   0.204   0.204
  0.206   0.208   0.209   0.211   0.214   0.215   0.220   0.222
  0.223   0.225   0.225   0.227   0.227   0.228   0.232   0.233
  0.234   0.236   0.237   0.240   0.240   0.241   0.242   0.244
  0.245   0.249   0.253   0.254   0.256   0.256   0.259   0.260
  0.265   0.271   0.272   0.274   0.278   0.280   0.282   0.283
  0.287   0.287   0.289   0.292   0.297   0.299   0.301   0.302
  0.303   0.304   0.309   0.311   0.312   0.314   0.315   0.318
  0.318   0.320   0.320   0.321   0.321   0.324   0.327   0.332
  0.339   0.340   0.342   0.344   0.347   0.349   0.355   0.359
  0.363   0.371   0.374   0.375   0.376   0.380   0.383   0.388
  0.396   0.396   0.400   0.400   0.410   0.420   0.427   0.430
  0.432   0.434   0.437   0.438   0.440   0.445   0.448   0.451
  0.452   0.457   0.468   0.471   0.473   0.477   0.488   0.488
  0.492   0.495   0.502   0.503   0.504   0.506   0.507   0.509
  0.512   0.514   0.518   0.521   0.522   0.523   0.527   0.528
  0.537   0.540   0.540   0.543   0.543   0.546   0.547   0.547
  0.549   0.550   0.552   0.555   0.557   0.558   0.559   0.561
  0.564   0.564   0.566   0.568   0.569   0.572   0.576   0.577
  0.577   0.579   0.581   0.585   0.586   0.587   0.590   0.591
  0.592   0.593   0.595   0.596   0.597   0.599   0.600   0.602
  0.603   0.604   0.605   0.606   0.607   0.607   0.608   0.610
  0.611   0.611   0.612   0.612   0.613   0.613   0.614   0.617
  0.619   0.619   0.620   0.625   0.626   0.627   0.628   0.630
  0.631   0.633   0.634   0.635   0.636   0.637   0.637   0.638
  0.640   0.641   0.642   0.643   0.644   0.645   0.646   0.651
  0.653   0.657   0.660   0.665   0.667   0.670   0.672   0.673
  0.674   0.676   0.679   0.680   0.681   0.683   0.685   0.686
  0.690   0.690   0.693   0.695   0.698   0.701   0.703   0.706
  0.707   0.708   0.710   0.712   0.720   0.721   0.722   0.725
  0.725   0.740   0.741   0.743   0.747   0.750   0.751   0.753
  0.754   0.756   0.762   0.765   0.767   0.771   0.772   0.775
  0.776   0.778   0.783   0.785   0.789   0.790   0.792   0.794
  0.794   0.799   0.801   0.804   0.807   0.809   0.817   0.819
  0.821   0.824   0.825   0.829   0.844   0.851   0.853   0.861
  0.871   0.872   0.876   0.880   0.887   0.892   0.894   0.899
  0.901   0.910   0.913   0.916   0.920   0.926   0.928   0.930
  0.932   0.932   0.932   0.934   0.934   0.942   0.945   0.946
  0.946   0.947   0.949   0.950   0.952   0.952   0.955   0.957
  0.960   0.963   0.967   0.969   0.972   0.976   0.977   0.978
  0.983   0.986   0.987   0.991   0.994   0.998   0.998   0.999
  1.001   1.004   1.004   1.008   1.009   1.011   1.017   1.018
  1.023   1.025   1.026   1.027   1.031   1.033   1.035   1.037
  1.040   1.040   1.042   1.044   1.045   1.046   1.054   1.055
  1.057   1.062   1.063   1.064   1.064   1.066   1.067   1.068
  1.069   1.070   1.073   1.077   1.085   1.085   1.088   1.090
  1.093   1.096   1.100   1.103   1.107   1.109   1.111   1.111
  1.114   1.117   1.120   1.126   1.131   1.134   1.136   1.137
  1.141   1.143   1.147   1.149   1.151   1.156   1.158   1.165
  1.170   1.172   1.173   1.174   1.178   1.179   1.180   1.186
  1.186   1.189   1.193   1.197   1.203   1.205   1.210   1.213
  1.218   1.225   1.228   1.231   1.236   1.240   1.247   1.250
  1.251   1.254   1.259   1.268   1.269   1.271   1.275   1.278
  1.286   1.288   1.294   1.294   1.295   1.297   1.302   1.303
  1.304   1.311   1.311   1.318   1.318   1.318   1.320   1.323
  1.326   1.330   1.333   1.335   1.339   1.346   1.348   1.356
  1.361   1.373   1.375   1.380   1.383   1.387   1.392   1.397
  1.399   1.400   1.403   1.404   1.408   1.412   1.418   1.427
  1.427   1.428   1.431   1.434   1.436   1.444   1.451   1.457
  1.460   1.460   1.462   1.464   1.467   1.475   1.484   1.486
  1.488   1.491   1.495   1.498   1.503   1.503   1.510   1.521
  1.527   1.527   1.530   1.530   1.531   1.531   1.536   1.537
  1.538   1.541   1.542   1.544   1.546   1.548   1.549   1.550
  1.550   1.551   1.552   1.553   1.554   1.555   1.556   1.561
  1.567   1.578   1.578   1.579   1.580   1.582   1.584   1.587
  1.591   1.593   1.597   1.598   1.604   1.616   1.625   1.628
  1.636   1.657   1.659   1.671   1.677   1.695   1.702   1.704
  1.713   1.720   1.722   1.725   1.728   1.732   1.736   1.761
  1.762   1.768   1.775   1.797   1.803   1.804   1.812   1.813
  1.828   1.829   1.831   1.832   1.833   1.835   1.837   1.838
  1.839   1.848   1.851   1.853   1.857   1.858   1.859   1.861
  1.870   1.873   1.875   1.877   1.884   1.895   1.897   1.904
  1.907   1.912   1.915   1.917   1.923   1.927   1.934   1.935
  1.935   1.941   1.942   1.944   1.950   1.953   1.956   1.959
  1.964   1.969   1.971   1.972   1.982   1.987   1.989   1.998
  2.000   2.001   2.003   2.004   2.008   2.012   2.013   2.014
  2.028   2.037   2.044   2.046   2.047   2.054   2.054   2.059
  2.066   2.068   2.073   2.076   2.081   2.081   2.085   2.090
  2.102   2.112   2.117   2.126   2.128   2.130   2.132   2.135
  2.135   2.141   2.155   2.158   2.164   2.164   2.167   2.170
  2.173   2.173   2.173   2.175   2.181   2.182   2.190   2.191
  2.194   2.196   2.197   2.198   2.205   2.206   2.209   2.212
  2.215   2.218   2.220   2.221   2.222   2.222   2.236   2.238
  2.241   2.245   2.251   2.252   2.254   2.257   2.262   2.268
  2.269   2.270   2.272   2.276   2.278   2.283   2.293   2.295
  2.297   2.299   2.302   2.305   2.307   2.310   2.319   2.341
  2.342   2.343   2.343   2.349   2.351   2.351   2.354   2.356
  2.360   2.365   2.368   2.368   2.369   2.370   2.372   2.373
  2.373   2.375   2.381   2.381   2.384   2.390   2.393   2.400
  2.403   2.406   2.407   2.415   2.424   2.426   2.430   2.432
  2.442   2.443   2.446   2.448   2.454   2.455   2.455   2.459
  2.461   2.468   2.472   2.475   2.477   2.495   2.496   2.501
  2.506   2.509   2.514   2.529   2.531   2.538   2.550   2.567
  2.578   2.582   2.585   2.597   2.605   2.617   2.621   2.622
  2.629   2.635   2.637   2.641   2.649   2.659   2.660   2.662
  2.664   2.666   2.670   2.671   2.691   2.705   2.709   2.717
  2.718   2.718   2.720   2.733   2.735   2.738   2.740   2.742
  2.742   2.744   2.750   2.753   2.754   2.757   2.769   2.770
  2.772   2.774   2.776   2.787   2.791   2.795   2.796   2.800
  2.802   2.802   2.803   2.804   2.804   2.810   2.811   2.811
  2.811   2.826   2.828   2.829   2.838   2.840   2.846   2.852
  2.864   2.879   2.883   2.886   2.886   2.890   2.892   2.898
  2.903   2.908   2.909   2.917   2.922   2.927   2.930   2.950
  2.969   2.979   2.983   2.987   2.995   2.997   3.013   3.017
  3.023   3.025   3.031   3.040   3.055   3.075   3.089   3.104
  3.108   3.132   3.137   3.140   3.269   3.287   3.291   3.296
  3.302   3.314   3.317   3.433   3.451   3.464   3.465   3.478
  3.492   3.494   3.509   3.511   3.512   3.538   3.551   3.684
  3.699   9.642   9.781  13.165  13.198  13.226  13.228  13.258
 13.259  13.432  13.525  13.529  13.532  13.543  13.576  13.654
 13.657  13.663  13.665  13.687  13.689  13.692  13.693  13.727
 13.733  13.768  13.809  13.816  13.821  13.856  13.883  13.903
 13.914  13.919  13.925  13.939  13.990  14.042  14.044  14.050
 14.054  14.131  14.134  14.135  14.136  14.145  14.159  14.162
 14.164  14.165  14.182  14.185  14.204  14.205  14.219  14.230
 14.255  14.287  14.290  14.345  14.346  14.347  14.349  14.527
 14.534  14.564  14.565  14.566  14.567  14.576  14.582  14.588
 14.593  14.600  14.601  19.641  19.642
 
 Beta MOs
 -- Occupied --
-14.712 -14.712 -10.513 -10.512 -10.512 -10.512 -10.503 -10.501
-10.465 -10.465 -10.465 -10.465 -10.465 -10.465 -10.464 -10.464
-10.464 -10.464 -10.464 -10.464 -10.464 -10.463 -10.463 -10.463
-10.461 -10.461 -10.461 -10.461 -10.457 -10.456 -10.456 -10.456
-10.448 -10.447 -10.447 -10.447 -10.446 -10.446 -10.442 -10.442
-10.442 -10.442 -10.442 -10.441 -10.441 -10.441 -10.440 -10.440
-10.440 -10.440 -10.440 -10.440 -10.439 -10.439 -10.430 -10.430
-10.429 -10.428 -10.427 -10.427 -10.426 -10.426 -10.426 -10.426
-10.425 -10.424 -10.420 -10.419 -10.419 -10.419 -10.401 -10.401
-10.400 -10.400  -6.892  -6.892  -1.106  -1.105  -0.991  -0.991
 -0.979  -0.979  -0.973  -0.972  -0.952  -0.952  -0.931  -0.929
 -0.913  -0.913  -0.880  -0.876  -0.876  -0.872  -0.870  -0.869
 -0.868  -0.868  -0.855  -0.854  -0.854  -0.853  -0.831  -0.830
 -0.827  -0.827  -0.813  -0.813  -0.790  -0.788  -0.787  -0.770
 -0.766  -0.766  -0.765  -0.765  -0.724  -0.723  -0.722  -0.722
 -0.708  -0.707  -0.707  -0.699  -0.698  -0.694  -0.690  -0.690
 -0.666  -0.659  -0.654  -0.653  -0.649  -0.649  -0.644  -0.640
 -0.623  -0.623  -0.620  -0.618  -0.601  -0.600  -0.579  -0.579
 -0.575  -0.572  -0.569  -0.568  -0.565  -0.565  -0.561  -0.554
 -0.553  -0.552  -0.551  -0.537  -0.536  -0.535  -0.535  -0.526
 -0.525  -0.518  -0.513  -0.512  -0.512  -0.512  -0.505  -0.505
 -0.499  -0.499  -0.498  -0.497  -0.495  -0.486  -0.481  -0.476
 -0.475  -0.474  -0.472  -0.469  -0.466  -0.466  -0.464  -0.464
 -0.462  -0.461  -0.461  -0.460  -0.459  -0.458  -0.456  -0.453
 -0.452  -0.445  -0.444  -0.443  -0.441  -0.438  -0.438  -0.435
 -0.431  -0.430  -0.427  -0.426  -0.426  -0.425  -0.422  -0.416
 -0.415  -0.414  -0.413  -0.412  -0.408  -0.407  -0.403  -0.399
 -0.395  -0.389  -0.387  -0.386  -0.378  -0.376  -0.375  -0.374
 -0.369  -0.367  -0.364  -0.360  -0.344  -0.344  -0.339  -0.323
 -0.319  -0.318  -0.318  -0.317  -0.314  -0.313  -0.309  -0.308
 -0.296  -0.292  -0.287  -0.280  -0.279  -0.278  -0.277  -0.277
 -0.246  -0.239  -0.233  -0.217  -0.200
 -- Virtual --
 -0.181  -0.060  -0.038  -0.010  -0.009  -0.008  -0.008  -0.005
 -0.003   0.001   0.002   0.014   0.014   0.018   0.026   0.027
  0.028   0.043   0.050   0.050   0.072   0.098   0.108   0.115
  0.119   0.131   0.131   0.137   0.138   0.145   0.146   0.157
  0.160   0.161   0.164   0.166   0.169   0.171   0.173   0.175
  0.178   0.179   0.182   0.190   0.191   0.191   0.192   0.194
  0.195   0.196   0.198   0.198   0.199   0.200   0.203   0.204
  0.204   0.205   0.207   0.209   0.210   0.212   0.215   0.216
  0.221   0.223   0.224   0.225   0.226   0.227   0.228   0.229
  0.233   0.234   0.236   0.237   0.238   0.241   0.241   0.241
  0.243   0.245   0.246   0.250   0.256   0.257   0.258   0.259
  0.262   0.263   0.268   0.272   0.272   0.275   0.280   0.281
  0.283   0.284   0.287   0.288   0.290   0.294   0.298   0.299
  0.301   0.303   0.304   0.307   0.312   0.313   0.314   0.315
  0.317   0.319   0.319   0.320   0.321   0.322   0.323   0.325
  0.327   0.332   0.340   0.342   0.344   0.345   0.348   0.350
  0.357   0.360   0.365   0.373   0.375   0.376   0.378   0.382
  0.385   0.389   0.398   0.400   0.401   0.404   0.412   0.422
  0.429   0.432   0.434   0.435   0.439   0.439   0.441   0.448
  0.451   0.454   0.455   0.460   0.470   0.472   0.476   0.479
  0.489   0.490   0.494   0.497   0.505   0.506   0.507   0.508
  0.509   0.512   0.514   0.516   0.520   0.523   0.524   0.524
  0.529   0.533   0.539   0.541   0.542   0.544   0.545   0.547
  0.548   0.549   0.551   0.551   0.553   0.556   0.558   0.559
  0.561   0.563   0.566   0.566   0.568   0.569   0.572   0.574
  0.577   0.578   0.578   0.580   0.582   0.585   0.586   0.588
  0.591   0.592   0.593   0.594   0.596   0.597   0.597   0.600
  0.600   0.603   0.604   0.605   0.606   0.607   0.608   0.608
  0.609   0.611   0.612   0.612   0.613   0.613   0.614   0.614
  0.615   0.618   0.619   0.620   0.621   0.626   0.627   0.628
  0.630   0.631   0.632   0.634   0.635   0.636   0.637   0.638
  0.639   0.639   0.641   0.642   0.643   0.644   0.645   0.646
  0.648   0.653   0.655   0.659   0.662   0.667   0.669   0.672
  0.673   0.675   0.676   0.678   0.680   0.680   0.681   0.685
  0.686   0.687   0.691   0.692   0.695   0.696   0.700   0.702
  0.705   0.707   0.708   0.709   0.711   0.713   0.721   0.722
  0.723   0.725   0.726   0.741   0.742   0.744   0.748   0.752
  0.752   0.754   0.756   0.758   0.763   0.767   0.768   0.772
  0.773   0.776   0.777   0.779   0.784   0.786   0.789   0.792
  0.793   0.795   0.796   0.801   0.802   0.805   0.807   0.810
  0.820   0.821   0.823   0.826   0.827   0.832   0.847   0.853
  0.854   0.862   0.873   0.873   0.877   0.883   0.891   0.893
  0.896   0.901   0.902   0.911   0.914   0.918   0.922   0.927
  0.929   0.931   0.932   0.933   0.933   0.935   0.935   0.944
  0.945   0.946   0.947   0.948   0.950   0.951   0.953   0.953
  0.956   0.957   0.961   0.964   0.967   0.970   0.972   0.976
  0.977   0.979   0.984   0.987   0.988   0.992   0.995   0.998
  0.998   1.000   1.001   1.004   1.005   1.009   1.010   1.011
  1.018   1.018   1.023   1.025   1.027   1.028   1.031   1.034
  1.036   1.038   1.040   1.041   1.042   1.044   1.045   1.047
  1.054   1.055   1.058   1.063   1.064   1.064   1.065   1.066
  1.067   1.069   1.069   1.071   1.074   1.078   1.086   1.086
  1.088   1.091   1.093   1.096   1.100   1.104   1.108   1.109
  1.112   1.112   1.115   1.118   1.121   1.127   1.132   1.135
  1.136   1.137   1.142   1.143   1.148   1.149   1.152   1.156
  1.158   1.166   1.171   1.173   1.173   1.174   1.179   1.180
  1.181   1.187   1.187   1.190   1.194   1.198   1.204   1.206
  1.211   1.215   1.220   1.226   1.230   1.233   1.238   1.241
  1.248   1.251   1.252   1.256   1.261   1.269   1.271   1.272
  1.276   1.279   1.287   1.290   1.295   1.295   1.297   1.299
  1.303   1.304   1.306   1.313   1.313   1.319   1.319   1.319
  1.321   1.324   1.328   1.331   1.334   1.336   1.341   1.348
  1.350   1.358   1.362   1.374   1.376   1.384   1.386   1.390
  1.394   1.400   1.400   1.402   1.405   1.406   1.409   1.413
  1.421   1.428   1.429   1.431   1.435   1.436   1.438   1.446
  1.452   1.458   1.461   1.461   1.463   1.465   1.468   1.476
  1.485   1.487   1.491   1.495   1.497   1.500   1.504   1.505
  1.512   1.523   1.529   1.529   1.530   1.531   1.533   1.533
  1.537   1.538   1.540   1.543   1.543   1.545   1.548   1.549
  1.551   1.551   1.551   1.552   1.553   1.554   1.556   1.556
  1.557   1.562   1.569   1.578   1.580   1.580   1.581   1.584
  1.586   1.589   1.592   1.594   1.598   1.599   1.606   1.618
  1.626   1.629   1.638   1.659   1.661   1.673   1.678   1.697
  1.705   1.707   1.718   1.722   1.724   1.728   1.731   1.735
  1.739   1.763   1.766   1.769   1.776   1.800   1.805   1.807
  1.814   1.815   1.829   1.830   1.832   1.832   1.835   1.837
  1.838   1.839   1.840   1.849   1.853   1.855   1.860   1.860
  1.861   1.864   1.871   1.874   1.876   1.878   1.887   1.897
  1.899   1.907   1.910   1.914   1.918   1.918   1.924   1.928
  1.936   1.937   1.937   1.943   1.945   1.950   1.952   1.954
  1.957   1.961   1.966   1.970   1.973   1.975   1.985   1.990
  1.991   1.999   2.001   2.002   2.003   2.006   2.010   2.013
  2.015   2.016   2.029   2.040   2.046   2.048   2.052   2.054
  2.056   2.060   2.066   2.070   2.075   2.077   2.082   2.083
  2.086   2.091   2.104   2.112   2.118   2.127   2.128   2.132
  2.133   2.135   2.135   2.141   2.157   2.159   2.164   2.166
  2.169   2.172   2.174   2.174   2.174   2.177   2.183   2.184
  2.191   2.191   2.196   2.197   2.199   2.200   2.206   2.206
  2.210   2.213   2.216   2.219   2.219   2.221   2.223   2.223
  2.237   2.239   2.243   2.246   2.252   2.254   2.255   2.258
  2.263   2.270   2.271   2.272   2.274   2.279   2.279   2.286
  2.295   2.297   2.299   2.301   2.304   2.309   2.310   2.312
  2.322   2.343   2.343   2.344   2.345   2.351   2.352   2.352
  2.356   2.357   2.362   2.366   2.369   2.369   2.370   2.371
  2.374   2.374   2.374   2.376   2.381   2.383   2.385   2.392
  2.394   2.401   2.405   2.408   2.411   2.416   2.426   2.427
  2.431   2.434   2.444   2.445   2.447   2.449   2.456   2.457
  2.458   2.461   2.464   2.469   2.475   2.476   2.478   2.497
  2.499   2.505   2.508   2.509   2.517   2.530   2.532   2.544
  2.551   2.568   2.580   2.586   2.589   2.598   2.606   2.618
  2.623   2.624   2.631   2.637   2.639   2.642   2.651   2.659
  2.661   2.663   2.665   2.667   2.671   2.672   2.692   2.706
  2.710   2.719   2.719   2.719   2.721   2.733   2.736   2.739
  2.741   2.743   2.744   2.745   2.751   2.754   2.755   2.758
  2.769   2.771   2.774   2.776   2.776   2.788   2.793   2.795
  2.796   2.801   2.802   2.803   2.804   2.805   2.806   2.811
  2.811   2.812   2.812   2.826   2.829   2.829   2.839   2.841
  2.846   2.854   2.864   2.880   2.884   2.886   2.887   2.892
  2.893   2.900   2.904   2.909   2.911   2.918   2.923   2.928
  2.932   2.950   2.970   2.980   2.985   2.988   2.996   2.998
  3.014   3.017   3.024   3.027   3.032   3.041   3.058   3.079
  3.090   3.105   3.109   3.133   3.138   3.142   3.270   3.287
  3.291   3.297   3.304   3.315   3.319   3.433   3.452   3.464
  3.466   3.478   3.492   3.495   3.509   3.511   3.512   3.539
  3.552   3.684   3.699   9.646   9.785  13.165  13.199  13.227
 13.228  13.258  13.259  13.432  13.525  13.530  13.532  13.543
 13.577  13.654  13.657  13.663  13.665  13.688  13.689  13.693
 13.693  13.727  13.733  13.768  13.810  13.816  13.821  13.856
 13.884  13.903  13.914  13.920  13.926  13.939  13.990  14.044
 14.045  14.052  14.055  14.131  14.134  14.135  14.137  14.145
 14.159  14.162  14.164  14.165  14.183  14.185  14.204  14.206
 14.219  14.231  14.256  14.287  14.291  14.346  14.347  14.347
 14.349  14.527  14.535  14.564  14.565  14.567  14.567  14.576
 14.582  14.588  14.593  14.600  14.602  19.648  19.649
 --------------------------------------------------------------
 
          Ground-State Mulliken Net Atomic Charges

     Atom                 Charge (a.u.)    Spin (a.u.)
  --------------------------------------------------------
      1 C                    -0.353627       0.047065
      2 C                     0.052056      -0.033367
      3 C                    -0.162366       0.102336
      4 C                     0.025467      -0.036458
      5 C                    -0.332301       0.053157
      6 C                     0.289563       0.015359
      7 N                    -0.632759       0.186215
      8 C                    -0.755467       0.003450
      9 C                    -0.756920       0.006381
     10 C                     0.296504      -0.036603
     11 C                    -0.277764       0.059675
     12 C                    -0.273332       0.061237
     13 C                     0.292695      -0.036539
     14 C                    -0.224138      -0.043104
     15 C                    -0.235877       0.073292
     16 C                    -0.225834      -0.040751
     17 C                    -0.278517       0.059088
     18 C                    -0.276715       0.062657
     19 C                    -0.224709      -0.043871
     20 C                    -0.236019       0.074802
     21 C                    -0.225716      -0.041536
     22 C                    -0.139841       0.042855
     23 C                    -0.143233       0.041003
     24 B                     0.558083       0.293641
     25 C                    -0.139036       0.043340
     26 C                    -0.139062       0.041289
     27 B                     0.556605       0.294702
     28 C                    -0.396699      -0.037787
     29 C                     0.074295       0.069327
     30 C                     0.059022       0.070288
     31 C                    -0.392396      -0.038005
     32 C                    -0.389245      -0.040634
     33 C                     0.055978       0.073590
     34 C                     0.076453       0.068461
     35 C                    -0.399275      -0.036829
     36 C                    -0.397553       0.086495
     37 C                    -0.214221      -0.055696
     38 C                    -0.355775       0.081178
     39 C                     0.240375      -0.043063
     40 C                    -0.084098       0.026653
     41 C                     0.194826      -0.055727
     42 C                    -0.354164       0.082721
     43 C                    -0.214802      -0.056235
     44 C                    -0.393110       0.087702
     45 C                     0.194283      -0.056654
     46 C                    -0.213761      -0.056847
     47 C                    -0.398339       0.087891
     48 C                     0.194004      -0.056649
     49 C                    -0.084744       0.027505
     50 C                     0.242154      -0.044196
     51 C                    -0.357451       0.082688
     52 C                     0.191859      -0.058912
     53 C                    -0.389969       0.090805
     54 C                    -0.215632      -0.058269
     55 C                    -0.354335       0.086231
     56 C                    -0.356577       0.050680
     57 C                     0.053254      -0.037005
     58 C                    -0.165075       0.109848
     59 C                     0.027119      -0.037925
     60 C                    -0.338133       0.055808
     61 C                     0.304616       0.014953
     62 N                    -0.634818       0.188219
     63 C                    -0.755555       0.003643
     64 C                    -0.756160       0.006120
     65 C                     0.288930      -0.036360
     66 C                    -0.270833       0.060008
     67 C                    -0.274652       0.058114
     68 C                     0.289183      -0.036382
     69 C                    -0.225358      -0.040203
     70 C                    -0.235224       0.071606
     71 C                    -0.225151      -0.042003
     72 C                    -0.272053       0.060225
     73 C                    -0.276141       0.057955
     74 C                    -0.225153      -0.039873
     75 C                    -0.235250       0.071386
     76 C                    -0.225668      -0.042090
     77 H                     0.247586      -0.002368
     78 H                     0.246167      -0.002713
     79 H                     0.259539      -0.001915
     80 H                     0.257625      -0.001207
     81 H                     0.233771       0.001570
     82 H                     0.278991      -0.002531
     83 H                     0.238058      -0.000588
     84 H                     0.238248      -0.000656
     85 H                     0.264561      -0.003148
     86 H                     0.268312      -0.003213
     87 H                     0.247138       0.002237
     88 H                     0.244888      -0.004025
     89 H                     0.245105       0.002063
     90 H                     0.264388      -0.003138
     91 H                     0.269239      -0.003295
     92 H                     0.247642       0.002324
     93 H                     0.244877      -0.004105
     94 H                     0.244876       0.002047
     95 H                     0.206940       0.000649
     96 H                     0.206548       0.000654
     97 H                     0.206403       0.000802
     98 H                     0.205505       0.000704
     99 H                     0.214335      -0.005147
    100 H                     0.225519       0.002745
    101 H                     0.222091      -0.004816
    102 H                     0.221824      -0.004913
    103 H                     0.225678       0.002770
    104 H                     0.214938      -0.005215
    105 H                     0.225787       0.002804
    106 H                     0.216449      -0.005220
    107 H                     0.221957      -0.004903
    108 H                     0.214923      -0.005392
    109 H                     0.225352       0.002869
    110 H                     0.221421      -0.005127
    111 H                     0.247788      -0.002562
    112 H                     0.246803      -0.002908
    113 H                     0.233987       0.001489
    114 H                     0.259181      -0.002111
    115 H                     0.257971      -0.001249
    116 H                     0.238451      -0.000570
    117 H                     0.238308      -0.000626
    118 H                     0.277702      -0.002296
    119 H                     0.266495      -0.003178
    120 H                     0.264119      -0.003055
    121 H                     0.245146       0.002010
    122 H                     0.245082      -0.003931
    123 H                     0.247167       0.002242
    124 H                     0.266595      -0.003203
    125 H                     0.264237      -0.003052
    126 H                     0.245262       0.002017
    127 H                     0.245149      -0.003919
    128 H                     0.247154       0.002224
  --------------------------------------------------------
  Sum of atomic charges =    -0.000000
  Sum of spin   charges =     2.000000

 -----------------------------------------------------------------
                    Cartesian Multipole Moments
 -----------------------------------------------------------------
    Charge (ESU x 10^10)
                -0.0000
    Dipole Moment (Debye)
         X       0.1739      Y      -0.7444      Z      -0.0279
       Tot       0.7650
    Quadrupole Moments (Debye-Ang)
        XX    -392.9388     XY      43.2568     YY    -387.4726
        XZ      69.0998     YZ      75.6942     ZZ    -290.9041
    Octopole Moments (Debye-Ang^2)
       XXX    7227.6154    XXY     414.0667    XYY    2023.5124
       YYY    2841.4572    XXZ    -660.2556    XYZ    -699.5370
       YYZ    -265.0259    XZZ    1739.0900    YZZ     781.5579
       ZZZ      81.2549
    Hexadecapole Moments (Debye-Ang^3)
      XXXX -107680.7761   XXXY  -13545.1719   XXYY  -22284.7259
      XYYY  -17417.1228   YYYY  -53033.9424   XXXZ   -7357.5087
      XXYZ    3569.6927   XYYZ    -846.1597   YYYZ   -5582.4373
      XXZZ  -20937.6903   XYZZ   -4569.6417   YYZZ  -16286.7858
      XZZZ  -10946.1028   YZZZ   -4563.7019   ZZZZ  -45880.4066
 -----------------------------------------------------------------
 Calculating analytic gradient of the SCF energy
 -6.082806127102689E-004 -6.082681022551628E-004
 -6.082720856057642E-004 -6.082766628629423E-004
 -6.082994969754789E-004 -6.082492715595233E-004
 -6.082333243293725E-004 -6.083154147736940E-004
 -6.082520138408567E-004 -6.082967325919063E-004
 -6.082572293977988E-004 -6.082915122346279E-004
 -6.082863402203439E-004 -6.082624141295456E-004
 -6.082870282258560E-004 -6.082617076535071E-004
 -6.082972005901491E-004 -6.082515518738125E-004
 -6.082822694281822E-004 -6.082664607078732E-004
 -6.082660074219353E-004 -6.082827446957520E-004
 -6.082277721099537E-004 -6.083209745006461E-004
 -6.082865966293095E-004 -6.082621342505944E-004
 -6.082953627576787E-004 -6.082533982534723E-004
 -6.082863520041120E-004 -6.082623839357194E-004
 -6.082587689932551E-004 -6.082899718036130E-004
 -6.082609100350141E-004 -6.082878473701360E-004
 -6.082392882590694E-004 -6.083094601917515E-004
 -6.082830102928484E-004 -6.082657109480079E-004
 -6.082814125025035E-004 -6.082673867450709E-004
 -6.082837835114474E-004 -6.082650013230636E-004
 -6.082875765213379E-004 -6.082611583272848E-004
 -6.082727682762839E-004 -6.082759712463044E-004
 -6.082638258876946E-004 -6.082849231623770E-004
 -6.082724464091451E-004 -6.082762920260564E-004
 -6.082784464507809E-004 -6.082703004834623E-004
 -6.082908384283871E-004 -6.082578969762139E-004
 -6.082580506050496E-004 -6.082906895306802E-004
 -6.082538673363143E-004 -6.082948931972559E-004
 -6.082682515388637E-004 -6.082805504804161E-004
 -6.082889366307647E-004 -6.082597867431065E-004
 -6.083120092006153E-004 -6.082367421586640E-004
 -6.082775760947914E-004 -6.082712203635510E-004
 -6.082854557936633E-004 -6.082632947411299E-004
 -6.082767172117403E-004 -6.082720355840771E-004
 -6.082592164740588E-004 -6.082895522215911E-004
 -6.082757119570082E-004 -6.082730411460637E-004
 -6.082842879690843E-004 -6.082644935549815E-004
 -6.082551400579169E-004 -6.082936178863057E-004
 -6.082609520744349E-004 -6.082878085890038E-004
 -6.082880174210349E-004 -6.082607503719913E-004
 -6.082519718744689E-004 -6.082967598665151E-004
 -6.082851572242899E-004 -6.082635968676336E-004
 -6.082518608587952E-004 -6.082969079181358E-004
 -6.082832500421090E-004 -6.082655136808799E-004
 -6.082605148079116E-004 -6.082882418540674E-004
 -6.082779245266223E-004 -6.082708438266543E-004
 -6.082650502150587E-004 -6.082836854030738E-004
 -6.082824405019094E-004 -6.082663062208830E-004
 -6.082472051225267E-004 -6.083015563681743E-004
 -6.083021563699745E-004 -6.082465903490949E-004
 -6.082602243548251E-004 -6.082885135312538E-004
 -6.082679064048655E-004 -6.082808299490245E-004
 -6.082769254436222E-004 -6.082718867221561E-004
 -6.082656693950793E-004 -6.082830735560736E-004
 -6.082427384187493E-004 -6.083059978549904E-004
 -6.082621388390241E-004 -6.082866608144953E-004
 -6.082725892956611E-004 -6.082761513498854E-004
 -6.083003352338029E-004 -6.082484140509012E-004
 -6.082749831293627E-004 -6.082738283257993E-004
 -6.082709464558340E-004 -6.082777989060097E-004
 -6.082603090512366E-004 -6.082884121556826E-004
 -6.082622573625111E-004 -6.082865403382036E-004
 -6.082646318827543E-004 -6.082842033451412E-004
 -6.082655897449133E-004 -6.082831515197289E-004
 -6.082532191862041E-004 -6.082955572935509E-004
 -6.082821721282441E-004 -6.082666649115602E-004
 -6.082907175312213E-004 -6.082580171145192E-004
 -6.082909784143665E-004 -6.082578024474892E-004
 -6.082770191505220E-004 -6.082717991700384E-004
 -6.082721439855255E-004 -6.082766043601724E-004
 -6.082757082620572E-004 -6.082730702574035E-004
 -6.082894502474532E-004 -6.082593910303228E-004
 -6.082827950117965E-004 -6.082659449309080E-004
 -6.082952156688706E-004 -6.082535598454664E-004
 -6.082691632870460E-004 -6.082796797010142E-004
 -6.082569506156968E-004 -6.082917872573660E-004
 -6.082555763357053E-004 -6.082932019068016E-004
 -6.082752693498819E-004 -6.082735519851463E-004
 -6.082758407672507E-004 -6.082729083436603E-004
 -6.082723622713561E-004 -6.082764135579872E-004
 -6.082720009650303E-004 -6.082768463225533E-004
 -6.082768263879885E-004 -6.082719043784377E-004
 -6.082690639527678E-004 -6.082797198201199E-004
 -6.082804570674411E-004 -6.082683797774362E-004
 -6.082985345631075E-004 -6.082502073154732E-004
 -6.082870916408523E-004 -6.082616730408996E-004
 -6.082641413518259E-004 -6.082847010091231E-004
 -6.082767585567199E-004 -6.082719738783311E-004
 -6.082512659771181E-004 -6.082975061951275E-004
 -6.082754677196930E-004 -6.082733807561685E-004
 -6.082842438784916E-004 -6.082644962688479E-004
 -6.082753614271429E-004 -6.082734137904029E-004
 -6.082768826028845E-004 -6.082719611156420E-004
 -6.082705456920594E-004 -6.082781869650837E-004
 -6.082793770972289E-004 -6.082694095033174E-004
 -6.082703243775807E-004 -6.082785032149537E-004
 -6.082518957577520E-004 -6.082968475849097E-004
 -6.082639136656650E-004 -6.082848555587154E-004
 -6.082855693952127E-004 -6.082632618658837E-004
 -6.082718156465616E-004 -6.082769182132251E-004
 -6.082932846535728E-004 -6.082554948508127E-004
 -6.082741000117378E-004 -6.082747397828864E-004
 -6.082632333430946E-004 -6.082855068350098E-004
 -6.082762201822718E-004 -6.082725624252264E-004
 -6.082729189252531E-004 -6.082759095552169E-004
 -6.083067796676524E-004 -6.082419671082293E-004
 -6.082818933905512E-004 -6.082668730396023E-004
 -6.082847753618580E-004 -6.082640370333279E-004
 -6.082615946121331E-004 -6.082871517086323E-004
 -6.082927220178124E-004 -6.082560211837450E-004
 -6.082669778965692E-004 -6.082818346811788E-004
 -6.082877377534973E-004 -6.082610075086126E-004
 -6.082631285284610E-004 -6.082856207820671E-004
 -6.082828318739902E-004 -6.082659779004121E-004
 -6.082477814244216E-004 -6.083009658358896E-004
 -6.082859727970134E-004 -6.082627723029100E-004
 -6.082701133494472E-004 -6.082787286567539E-004
 -6.082871461373400E-004 -6.082616094348783E-004
 -6.082701169281199E-004 -6.082786639479215E-004
 -6.082737284964785E-004 -6.082751055434452E-004
 -6.082929022643319E-004 -6.082558381434332E-004
 -6.082769259919130E-004 -6.082718330572164E-004
 -6.082706324575227E-004 -6.082781907051158E-004
 -6.082920611961270E-004 -6.082566507478859E-004
 -6.082724891485222E-004 -6.082762790735334E-004
 -6.082754132733254E-004 -6.082733950658250E-004
 -6.082498461110891E-004 -6.082989119434964E-004
 -6.082719591114498E-004 -6.082767744080913E-004
 -6.082601270869198E-004 -6.082887095334474E-004
 -6.082887505520647E-004 -6.082599749818358E-004
 -6.082489333566897E-004 -6.082998459591054E-004
 -6.082669525779678E-004 -6.082818782189858E-004
 -6.082845561930902E-004 -6.082641949925855E-004
 -6.082610081852740E-004 -6.082877442786048E-004
 -6.082708374506361E-004 -6.082779617026604E-004
 -6.083011291118077E-004 -6.082476319779562E-004
 -6.082736834439539E-004 -6.082750571433254E-004
 -6.082907577862461E-004 -6.082580711826852E-004
 -6.082582954120177E-004 -6.082904320727459E-004
 -6.082978522169132E-004 -6.082509338877315E-004
 -6.082826884075325E-004 -6.082661317891834E-004
 -6.082683818062929E-004 -6.082803685703571E-004
 -6.082868235536029E-004 -6.082619356073385E-004
 -6.082793444069441E-004 -6.082694860847413E-004
 -6.082611491777252E-004 -6.082876062163791E-004
 -6.082796241682871E-004 -6.082691606027737E-004
 -6.082629930554621E-004 -6.082858072920098E-004
 -6.083019355698229E-004 -6.082468108056134E-004
 -6.082606163638885E-004 -6.082881374550144E-004
 -6.082789853876557E-004 -6.082698216331116E-004
 -6.082562993362595E-004 -6.082924179142823E-004
 -6.082788795036922E-004 -6.082698880205950E-004
 -6.082739724190256E-004 -6.082748511017217E-004
 -6.082581978124168E-004 -6.082905418170867E-004
 -6.082704438773075E-004 -6.082783229357373E-004
 -6.082744573254477E-004 -6.082743669418517E-004
 -6.082414082763735E-004 -6.083073422165374E-004
 -6.082705408123612E-004 -6.082782265921824E-004
 -6.082610341777803E-004 -6.082877719493379E-004
 -6.082867704830103E-004 -6.082619722817839E-004
 -6.082555696779984E-004 -6.082931802163778E-004
 -6.082841811927838E-004 -6.082646227387647E-004
 -6.082623821380838E-004 -6.082863620962130E-004
 -6.082872204126487E-004 -6.082615347185103E-004
 -6.082532250749582E-004 -6.082955129279872E-004
 -6.082741412122021E-004 -6.082746090753195E-004
 -6.082566048245346E-004 -6.082921371859127E-004
 -6.082660102992214E-004 -6.082827172692348E-004
 -6.082941904079100E-004 -6.082545522993553E-004
 -6.083184550963678E-004 -6.082302992595967E-004
 -6.082615515845557E-004 -6.082872033848000E-004
 -6.082608006130435E-004 -6.082879341923946E-004
 -6.082516395887990E-004 -6.082971124143630E-004
 -6.083186951465292E-004 -6.082300426969727E-004
 -6.082897635162965E-004 -6.082589875266409E-004
 -6.082900365567074E-004 -6.082587006033049E-004
 -6.082747091336296E-004 -6.082740041648438E-004
 -6.082543255602072E-004 -6.082944324072004E-004
 -6.082587684709722E-004 -6.082899893073068E-004
 -6.082927352721640E-004 -6.082560262594089E-004
 -6.082931297336108E-004 -6.082556185249663E-004
 -6.083061769977822E-004 -6.082425625084588E-004
 -6.082671143746758E-004 -6.082816588558993E-004
 -6.082690110831123E-004 -6.082797685686625E-004
 -6.082642222788061E-004 -6.082845344164379E-004
 -6.082887006201121E-004 -6.082600194023890E-004
 -6.082787080051314E-004 -6.082700291347399E-004
 -6.082685382218828E-004 -6.082802280659883E-004
 -6.082606594864082E-004 -6.082880789103804E-004
 -6.082612307969108E-004 -6.082875193376626E-004
 -6.082706899141973E-004 -6.082780436063118E-004
 -6.082659281754501E-004 -6.082828526898813E-004
 -6.082926116764841E-004 -6.082561432228298E-004
 -6.082858722347283E-004 -6.082628885078862E-004
 -6.082626551178816E-004 -6.082861259720774E-004
 -6.082774426134057E-004 -6.082712933251882E-004
 -6.082891011036393E-004 -6.082596591229950E-004
 -6.082443944284424E-004 -6.083043460872750E-004
 -6.082943447418300E-004 -6.082544007895941E-004
 -6.082562211539942E-004 -6.082925571428287E-004
 -6.082938722189943E-004 -6.082548741609701E-004
 -6.082704466536689E-004 -6.082783289295427E-004
 -6.082845533048344E-004 -6.082642222858187E-004
 -6.082795132572242E-004 -6.082692124239108E-004
 -6.082713799718238E-004 -6.082773881963101E-004
 -6.082907852307041E-004 -6.082579814490094E-004
 -6.082635371561689E-004 -6.082852214571491E-004
 -6.082944908771192E-004 -6.082542608083748E-004
 -6.082617656003925E-004 -6.082870193258960E-004
 -6.082929614104188E-004 -6.082557731612551E-004
 -6.082638170565699E-004 -6.082849479305363E-004
 -6.082966003066249E-004 -6.082521703067408E-004
 -6.082926026374602E-004 -6.082561453557261E-004
 -6.082777049671007E-004 -6.082710403870041E-004
 -6.082733202493955E-004 -6.082754608247214E-004
 -6.082891906019857E-004 -6.082595836279213E-004
 -6.082375751477579E-004 -6.083111755880535E-004
 -6.082657042831114E-004 -6.082830335194809E-004
 -6.082809495000637E-004 -6.082678255545540E-004
 -6.082897666983790E-004 -6.082589557594991E-004
 -6.082781182173928E-004 -6.082706434030398E-004
 -6.082804988511517E-004 -6.082682898522025E-004
 -6.082490546413255E-004 -6.082996933392160E-004
 -6.082800623323677E-004 -6.082686940124770E-004
 -6.082731580771177E-004 -6.082756263139284E-004
 -6.083035252803660E-004 -6.082452080235345E-004
 -6.082825227999367E-004 -6.082662284332056E-004
 -6.082651644247201E-004 -6.082835445584769E-004
 -6.082536194400802E-004 -6.082951213694397E-004
 -6.082706332415583E-004 -6.082781316040502E-004
 -6.082715587855965E-004 -6.082771790111218E-004
 -6.082790070216666E-004 -6.082697431661610E-004
 -6.082571345900494E-004 -6.082915934013919E-004
 -6.082770252000404E-004 -6.082717214448775E-004
 -6.082632823445796E-004 -6.082854635961455E-004
 -6.082742959768169E-004 -6.082744499779554E-004
 -6.082689458265930E-004 -6.082797921964632E-004
 -6.082834163691986E-004 -6.082653194475539E-004
 -6.082656582573287E-004 -6.082830943374216E-004
 -6.082760205161220E-004 -6.082727059618107E-004
 -6.082685566207806E-004 -6.082801895759090E-004
 -6.082639611128807E-004 -6.082847923932186E-004
 -6.082662631355384E-004 -6.082824972725488E-004
 -6.082617039783236E-004 -6.082870567058686E-004
 -6.082623615619038E-004 -6.082863971479041E-004
 -6.082642378331941E-004 -6.082844890137536E-004
 -6.082623587197044E-004 -6.082863775410008E-004
 -6.082705852779287E-004 -6.082781553649965E-004
 -6.082627044964581E-004 -6.082860255352247E-004
 -6.082704029549783E-004 -6.082783415745720E-004
 -6.082754946748552E-004 -6.082732363718964E-004
 -6.082690110301090E-004 -6.082797105056583E-004
 -6.082855717609530E-004 -6.082631586471657E-004
 -6.082601526525278E-004 -6.082885906987329E-004
 -6.082931892494647E-004 -6.082555778091248E-004
 -6.082908366252383E-004 -6.082579002700125E-004
 -6.082545096517442E-004 -6.082942255982259E-004
 -6.082809209472507E-004 -6.082678285208946E-004
 -6.082634421746994E-004 -6.082852892891005E-004
 -6.082683590273876E-004 -6.082803661768257E-004
 -6.082663255177317E-004 -6.082824176590524E-004
 -6.082715896743188E-004 -6.082771803577694E-004
 -6.082699469244307E-004 -6.082788277852907E-004
 -6.082767788587519E-004 -6.082719810184656E-004
 -6.082566550228800E-004 -6.082920987569177E-004
 -6.082752541045932E-004 -6.082734651127752E-004
 -6.082696657345614E-004 -6.082790727720382E-004
 -6.082580877880405E-004 -6.082906354558490E-004
 -6.082728980237938E-004 -6.082758295576195E-004
 -6.082507722577389E-004 -6.082979731652718E-004
 -6.082554777290190E-004 -6.082932411602731E-004
 -6.082865765252445E-004 -6.082622140489050E-004
 -6.082643269105754E-004 -6.082844033402904E-004
 -6.082797998491546E-004 -6.082689362109646E-004
 -6.082704600366844E-004 -6.082782848999283E-004
 -6.082742321981496E-004 -6.082745282314461E-004
 -6.082687282351375E-004 -6.082800172649614E-004
 -6.082673551109577E-004 -6.082814260622581E-004
 -6.082717295695639E-004 -6.082770092143868E-004
 -6.082899450403639E-004 -6.082587771843781E-004
 -6.082698201771128E-004 -6.082789575270193E-004
 -6.082801448757217E-004 -6.082686582000492E-004
 -6.082872524005153E-004 -6.082614925578861E-004
 -6.082918055984127E-004 -6.082569619620092E-004
 -6.082662094062773E-004 -6.082825956945190E-004
 -6.082669269668949E-004 -6.082818232872359E-004
 -6.082536370445794E-004 -6.082951236402312E-004
 -6.082644070852000E-004 -6.082843955250038E-004
 -6.082605264471493E-004 -6.082882188891282E-004
 -6.082592429023301E-004 -6.082895237128166E-004
 -6.082843687613462E-004 -6.082644287319916E-004
 -6.082823167991097E-004 -6.082664321985456E-004
 -6.082937945357578E-004 -6.082549722025624E-004
 -6.082693995242445E-004 -6.082793783058294E-004
 -6.082865591370752E-004 -6.082621905878764E-004
 -6.082791175830685E-004 -6.082696337456082E-004
 -6.082704236579977E-004 -6.082783363491136E-004
 -6.082843529389489E-004 -6.082643758644670E-004
 -6.082730412883616E-004 -6.082756862928451E-004
 -6.082794797124738E-004 -6.082692977293914E-004
 -6.082587520826511E-004 -6.082899752937460E-004
 -6.082801245862717E-004 -6.082686345723318E-004
 -6.082790293311970E-004 -6.082697550265426E-004
 -6.082593202971663E-004 -6.082893869757632E-004
 -6.082814043457124E-004 -6.082673674723631E-004
 -6.082718131526232E-004 -6.082769407947356E-004
 -6.082831921842902E-004 -6.082655463132611E-004
 -6.082690322326836E-004 -6.082796924459228E-004
 -6.082725816928572E-004 -6.082762020042056E-004
 -6.082803672230014E-004 -6.082683700467357E-004
 -6.082627375526336E-004 -6.082860178020175E-004
 -6.082791574233210E-004 -6.082695962126065E-004
 -6.082647618274369E-004 -6.082839831826517E-004
 -6.082785317053077E-004 -6.082701938485309E-004
 -6.082830740808309E-004 -6.082657023970160E-004
 -6.082724315249495E-004 -6.082763067007340E-004
 -6.082810679642937E-004 -6.082676899461026E-004
 -6.082680775686075E-004 -6.082807024130875E-004
 -6.082884230369485E-004 -6.082602874934825E-004
 -6.082669775615018E-004 -6.082817927929691E-004
 -6.082707914339700E-004 -6.082779869618834E-004
 -6.082618994962706E-004 -6.082868526635935E-004
 -6.082742768332673E-004 -6.082744713580203E-004
 -6.082764120034923E-004 -6.082723416999559E-004
 -6.082643636355592E-004 -6.082843639013799E-004
 -6.082785646761932E-004 -6.082701701352818E-004
 -6.082692232739698E-004 -6.082795524074753E-004
 -6.082893204570047E-004 -6.082594103240922E-004
 -6.082681853441656E-004 -6.082805714696431E-004
 -6.082701848039573E-004 -6.082785493196387E-004
 -6.082919274701495E-004 -6.082568212044019E-004
 -6.082855234529445E-004 -6.082632066749760E-004
 -6.082912216433756E-004 -6.082574848112213E-004
 -6.082703317899128E-004 -6.082784160859346E-004
 -6.082862611033077E-004 -6.082625033437155E-004
 -6.082838992691715E-004 -6.082648211184277E-004
 -6.082810751705160E-004 -6.082676727386742E-004
 -6.082790877570790E-004 -6.082696674612181E-004
 -6.082738349123065E-004 -6.082749017154351E-004
 -6.082857005350666E-004 -6.082630493658043E-004
 -6.082744294805737E-004 -6.082743258719620E-004
 -6.082819705284616E-004 -6.082667732700305E-004
 -6.082650254014251E-004 -6.082837054807268E-004
 -6.082828050908080E-004 -6.082659433532643E-004
 -6.082706126695309E-004 -6.082781245220828E-004
 -6.082840038786764E-004 -6.082647298459637E-004
 -6.082842128451344E-004 -6.082645271431478E-004
 -6.082672688458806E-004 -6.082814514820402E-004
 -6.082754900870038E-004 -6.082732598779405E-004
 -6.082862456492635E-004 -6.082624842941918E-004
 -6.082797592806286E-004 -6.082690006386224E-004
 -6.082847082716370E-004 -6.082640518124343E-004
 -6.082891288390998E-004 -6.082596322855925E-004
 -6.082464724290501E-004 -6.083022852198805E-004
 -6.082847889627054E-004 -6.082639396634531E-004
 -6.082866556792670E-004 -6.082621020739898E-004
 -6.082695948152337E-004 -6.082791384956454E-004
 -6.082906550756023E-004 -6.082580586909352E-004
 -6.082799722033673E-004 -6.082687717901645E-004
 -6.082689551670754E-004 -6.082797543641599E-004
 -6.082899280694644E-004 -6.082588360438502E-004
 -6.082709198741935E-004 -6.082778411549610E-004
 -6.082755166662359E-004 -6.082732506562141E-004
 -6.082752940458340E-004 -6.082734676479802E-004
 -6.082826068286313E-004 -6.082661512036077E-004
 -6.082799014669831E-004 -6.082688356021629E-004
 -6.082859843502409E-004 -6.082627416442028E-004
 -6.082710000948837E-004 -6.082777458040603E-004
 -6.083053875274370E-004 -6.082433297718538E-004
 -6.082666038306657E-004 -6.082821427829361E-004
 -6.082660270769792E-004 -6.082827509180923E-004
 -6.082874568133467E-004 -6.082612850234543E-004
 -6.082671368699791E-004 -6.082815955149288E-004
 -6.082838760974180E-004 -6.082648401229829E-004
 -6.082817560135772E-004 -6.082670016481598E-004
 -6.082607812995527E-004 -6.082879447137648E-004
 -6.082819943765652E-004 -6.082667557920100E-004
 -6.082797351118315E-004 -6.082690349773439E-004
 -6.082799708867590E-004 -6.082687728936408E-004
 -6.082772385982775E-004 -6.082715350358619E-004
 -6.082736526065286E-004 -6.082750991239836E-004
 -6.082673058354643E-004 -6.082814318455074E-004
 -6.082860752120427E-004 -6.082626451658946E-004
 Gradient of SCF Energy
            1           2           3           4           5           6
    1   0.0077856   0.0040383   0.0022417  -0.0089050  -0.0064723  -0.0025130
    2  -0.0014431  -0.0001400   0.0020930  -0.0045953   0.0030117  -0.0030158
    3  -0.0017481  -0.0078901   0.0023484  -0.0003225   0.0053882  -0.0065790
            7           8           9          10          11          12
    1   0.0018590  -0.0009260  -0.0014437  -0.0001643  -0.0005936   0.0021828
    2   0.0026774  -0.0013367  -0.0010408  -0.0010583  -0.0043662  -0.0005296
    3   0.0025862  -0.0032399  -0.0014505   0.0010219  -0.0027385   0.0040011
           13          14          15          16          17          18
    1   0.0003895   0.0011248   0.0009466  -0.0016754  -0.0028524   0.0012806
    2   0.0008099  -0.0020277  -0.0011334   0.0023299   0.0015030   0.0034065
    3  -0.0005385   0.0029483  -0.0008938  -0.0031985  -0.0037137   0.0028396
           19          20          21          22          23          24
    1   0.0007154  -0.0015314  -0.0005224  -0.0092810   0.0041016   0.0041996
    2   0.0033410   0.0006170  -0.0043896  -0.0008718   0.0124699   0.0036453
    3   0.0007731  -0.0003730  -0.0010769  -0.0160545   0.0102285   0.0082546
           25          26          27          28          29          30
    1   0.0074875  -0.0041968  -0.0044081   0.0009231   0.0063185  -0.0053348
    2   0.0015201  -0.0130434  -0.0042959   0.0039403   0.0060498  -0.0089776
    3   0.0127276  -0.0090928  -0.0075896   0.0024406   0.0121765  -0.0106923
           31          32          33          34          35          36
    1  -0.0027153   0.0005066  -0.0079885   0.0063694   0.0023377   0.0002212
    2   0.0025872  -0.0074199  -0.0038032   0.0089651  -0.0002141  -0.0010924
    3  -0.0050132  -0.0010083  -0.0144952   0.0126607   0.0041302   0.0003000
           37          38          39          40          41          42
    1  -0.0010906  -0.0009467   0.0005696  -0.0003648   0.0004991  -0.0008266
    2   0.0015806   0.0029292  -0.0014466   0.0020489   0.0015352   0.0029274
    3  -0.0016122  -0.0012118   0.0008251  -0.0003370   0.0010478  -0.0009831
           43          44          45          46          47          48
    1  -0.0004968   0.0003064  -0.0011976   0.0004949  -0.0003162   0.0012081
    2   0.0027817  -0.0016925   0.0015423  -0.0026483   0.0013697  -0.0003620
    3  -0.0004396   0.0001561  -0.0018494   0.0002871  -0.0002824   0.0019507
           49          50          51          52          53          54
    1   0.0009660  -0.0004080   0.0010677   0.0007722  -0.0012843   0.0012847
    2  -0.0012158   0.0017257  -0.0028405  -0.0040352   0.0013851  -0.0027438
    3   0.0012767  -0.0003198   0.0011776   0.0007156  -0.0017809   0.0015866
           55          56          57          58          59          60
    1   0.0010783   0.0045627   0.0083700  -0.0004714  -0.0044148  -0.0069529
    2  -0.0024316   0.0031642   0.0027613  -0.0016893   0.0023088  -0.0049288
    3   0.0013163  -0.0060653  -0.0002012  -0.0035338   0.0091501   0.0030219
           61          62          63          64          65          66
    1   0.0045894  -0.0028722   0.0021821   0.0001845  -0.0008195  -0.0007878
    2   0.0035130  -0.0014399   0.0011369   0.0012954   0.0004156  -0.0038608
    3   0.0060300  -0.0036340   0.0025697   0.0019521   0.0002885  -0.0025968
           67          68          69          70          71          72
    1   0.0022991   0.0010935   0.0027267   0.0008716  -0.0024649  -0.0026381
    2  -0.0012534  -0.0005299  -0.0018502   0.0014234   0.0014852  -0.0002112
    3   0.0043665  -0.0002756   0.0028181  -0.0002621  -0.0022409  -0.0037985
           73          74          75          76          77          78
    1   0.0010706  -0.0006588  -0.0001901   0.0006460  -0.0002440   0.0008674
    2   0.0048440   0.0040861  -0.0006711  -0.0034507   0.0005658   0.0000585
    3   0.0015209   0.0009409   0.0015196  -0.0008932   0.0006772   0.0004230
           79          80          81          82          83          84
    1  -0.0005578  -0.0003931  -0.0002661   0.0017621   0.0000546   0.0003896
    2   0.0011564  -0.0003926  -0.0001966   0.0008713   0.0003708  -0.0004825
    3   0.0012617   0.0019666  -0.0002096   0.0003228  -0.0004615  -0.0000638
           85          86          87          88          89          90
    1  -0.0008084  -0.0002182  -0.0017778  -0.0015599   0.0000970   0.0016282
    2   0.0020738  -0.0000780   0.0020899   0.0017956  -0.0000056  -0.0013317
    3   0.0006851  -0.0013178  -0.0008282   0.0017543   0.0032386   0.0009306
           91          92          93          94          95          96
    1  -0.0007095   0.0011544   0.0027251   0.0022133  -0.0017397   0.0009498
    2  -0.0006478  -0.0025625  -0.0008363   0.0019001  -0.0008417   0.0020018
    3  -0.0006721  -0.0002389   0.0007698   0.0014036  -0.0025309   0.0023419
           97          98          99         100         101         102
    1   0.0015264  -0.0010533  -0.0000777  -0.0003419  -0.0002598  -0.0002656
    2   0.0008694  -0.0020514  -0.0010733   0.0002141   0.0007707   0.0007705
    3   0.0027453  -0.0023681  -0.0003659  -0.0005718  -0.0002958  -0.0002983
          103         104         105         106         107         108
    1   0.0000351   0.0005153  -0.0000851  -0.0007030   0.0003192   0.0001095
    2   0.0006701  -0.0003644  -0.0007892   0.0003167  -0.0008824   0.0012168
    3   0.0002252   0.0009775  -0.0002916  -0.0010950   0.0003494   0.0003725
          109         110         111         112         113         114
    1   0.0004420   0.0003507  -0.0005961   0.0000990   0.0000236  -0.0013545
    2  -0.0002099  -0.0008567  -0.0006476   0.0000910   0.0001415  -0.0014553
    3   0.0006533   0.0003834  -0.0000917  -0.0009851   0.0003322  -0.0001760
          115         116         117         118         119         120
    1  -0.0019358   0.0006185   0.0001562   0.0006450  -0.0000457  -0.0004428
    2   0.0001592  -0.0002718   0.0004781  -0.0005232   0.0008638   0.0014834
    3  -0.0005921   0.0000440  -0.0002849  -0.0018659   0.0011274  -0.0018277
          121         122         123         124         125         126
    1  -0.0027373  -0.0017234   0.0004665   0.0010601  -0.0003544   0.0004223
    2  -0.0006652  -0.0024649  -0.0022496   0.0002251  -0.0023063  -0.0019280
    3  -0.0017118   0.0003224   0.0017913   0.0007934   0.0003683  -0.0026499
          127         128
    1   0.0004323   0.0000411
    2   0.0010206   0.0028091
    3  -0.0028437  -0.0009397
 Max gradient component =       1.605E-02
 RMS gradient           =       3.251E-03
 Computing fast IEFPCM-SWIG gradient.
 Updating gradient with PCM contributions...
 -- total gradient after adding PCM contribution --
---------------------------------------------------
  Atom         X              Y              Z     
---------------------------------------------------
   1       0.008015      -0.000812      -0.000120
   2       0.002453      -0.000824      -0.007765
   3       0.001892       0.002092       0.002517
   4      -0.007567      -0.004470      -0.001470
   5      -0.005188       0.003650       0.006140
   6      -0.002355      -0.002905      -0.006378
   7       0.002116       0.002872       0.003089
   8       0.000124      -0.000086      -0.001011
   9      -0.000111       0.000076       0.000842
  10       0.000073      -0.001090       0.001039
  11      -0.000570      -0.002500      -0.002576
  12       0.002193      -0.000052       0.002876
  13       0.000208       0.000905      -0.000368
  14      -0.000073      -0.000605       0.002221
  15      -0.000169       0.000139       0.000465
  16      -0.001422       0.002016      -0.001005
  17      -0.002207       0.000250      -0.002581
  18       0.000672       0.002493       0.002732
  19       0.001370       0.001517       0.000558
  20       0.000498       0.000093       0.000221
  21       0.000757      -0.002781      -0.000178
  22      -0.009067      -0.001764      -0.016118
  23       0.004585       0.012091       0.010694
  24       0.004546       0.004266       0.009337
  25       0.007634       0.002315       0.012827
  26      -0.004416      -0.012599      -0.009781
  27      -0.005100      -0.004846      -0.008609
  28       0.000800       0.004595       0.002630
  29       0.008184       0.003561       0.014945
  30      -0.004943      -0.013085      -0.010812
  31      -0.003156       0.002888      -0.005440
  32       0.000401      -0.008013      -0.001071
  33      -0.009928      -0.001409      -0.017244
  34       0.006004       0.013367       0.012810
  35       0.002561      -0.000638       0.004589
  36       0.001204      -0.000128       0.002189
  37      -0.000234       0.002276      -0.000054
  38      -0.000753       0.000808      -0.001190
  39       0.000349      -0.000677       0.000476
  40      -0.000098       0.001257       0.000035
  41      -0.000904       0.003588      -0.001127
  42       0.000055       0.001625       0.000394
  43      -0.001212       0.001732      -0.001915
  44      -0.000649      -0.002760      -0.001605
  45      -0.001470       0.004762      -0.001831
  46       0.001175      -0.001704       0.001667
  47       0.000571       0.002558       0.001452
  48       0.001592      -0.003769       0.001905
  49       0.000677      -0.000336       0.000991
  50      -0.000144       0.000973       0.000011
  51       0.000072      -0.001592      -0.000258
  52       0.002322      -0.005960       0.002866
  53      -0.002180       0.000365      -0.003626
  54       0.000420      -0.003543       0.000002
  55       0.000875      -0.000407       0.001358
  56       0.003344       0.002263      -0.007082
  57       0.007485       0.003070       0.001253
  58      -0.000781      -0.001783      -0.003409
  59      -0.002842       0.002573       0.008533
  60      -0.006895      -0.005442       0.001470
  61       0.004510       0.003402       0.005784
  62      -0.003106      -0.001724      -0.004130
  63       0.000931      -0.000198       0.000439
  64      -0.000866       0.000026      -0.000366
  65      -0.000709       0.000543      -0.000005
  66      -0.001297      -0.002909      -0.001928
  67       0.001226      -0.000130       0.003320
  68       0.000869      -0.000751      -0.000199
  69       0.000913      -0.001962       0.001538
  70      -0.000416      -0.000316      -0.000084
  71      -0.001984       0.000027      -0.000983
  72      -0.001512      -0.000453      -0.003332
  73       0.001501       0.003044       0.001427
  74      -0.000341       0.002502      -0.000614
  75       0.000131      -0.000051      -0.000544
  76       0.000623      -0.001508      -0.001357
  77       0.000083       0.000495      -0.000166
  78      -0.000029      -0.000340       0.000347
  79      -0.000449      -0.000660       0.000536
  80      -0.001160       0.000298       0.000417
  81      -0.000365      -0.000316      -0.000441
  82       0.000340      -0.000191      -0.001345
  83       0.000047      -0.000031      -0.000528
  84       0.000158      -0.000173      -0.000353
  85      -0.000465      -0.000357       0.000232
  86      -0.000064      -0.000567       0.000145
  87      -0.000330       0.000295       0.000152
  88      -0.000046       0.000062       0.000091
  89      -0.000021       0.000247       0.000286
  90       0.000335       0.000253      -0.000402
  91      -0.000016       0.000516      -0.000317
  92       0.000435      -0.000262       0.000020
  93       0.000128      -0.000015       0.000041
  94       0.000281      -0.000042       0.000239
  95      -0.000979       0.000388      -0.000982
  96       0.000021       0.001309       0.000540
  97       0.000733      -0.000407       0.001152
  98      -0.000058      -0.001297      -0.000501
  99      -0.000072      -0.000354      -0.000177
 100      -0.000268       0.000172      -0.000426
 101      -0.000129       0.000314      -0.000139
 102      -0.000115       0.000330      -0.000110
 103       0.000021       0.000518       0.000154
[...]
     72  C        -9.5373885160   -7.8086587834   -4.7848858773
     73  C        -8.5915739675   -6.2628440263   -8.2717101620
     74  C        -8.3713277809   -5.8498970345   -9.5735659097
     75  C        -8.3722466161   -4.4982315066   -9.8923055175
     76  C        -8.5994721309   -3.5589304714   -8.8951640662
     77  H        -5.4920066659   -0.2292464141    5.3926710514
     78  H        -1.7988251084    0.2563346353    3.2619073977
     79  H        -7.0257477292   -2.3580089622    3.1993112999
     80  H        -7.5270613541   -0.7883976513    2.6109293333
     81  H        -7.4025482369   -1.0721779259    4.3489874502
     82  H        -3.1327879396   -1.1771192366    0.0831822003
     83  H        -1.6930686311   -1.3283843216    1.0812149121
     84  H        -2.2400257615    0.2590977350    0.5592999172
     85  H        -1.1008928656    2.1561162635    6.6440855998
     86  H        -4.5415015965    2.5746464517    4.8685880084
     87  H        -5.8759954577    4.0064874638    6.3572073688
     88  H        -5.7975096910    3.6714646443    8.8102647658
     89  H        -4.3759659701    1.8794708904    9.7561777628
     90  H        -3.0591686894    0.4258076050    8.2713451655
     91  H        -1.9354094608   -1.8435644396    5.3367567281
     92  H         0.3670929713   -2.5019323153    5.8890245361
     93  H         1.9422901217   -0.8484813177    6.8462320856
     94  H         1.1907750637    1.4790888625    7.2296981303
     95  H        -4.2720734912   -3.5140267030    2.6109869587
     96  H        -6.2466542972   -5.7540147382   -1.3652433421
     97  H        -7.8383960483   -1.2441206799   -3.1327042121
     98  H        -5.8145523501    1.0428668873    0.7924250239
     99  H        -3.1665515113   -5.5242348081    4.2168167772
    100  H        -2.4262673642   -7.6933560415    5.1220804179
    101  H        -2.8463969884   -9.7997192023    3.9606275314
    102  H        -3.9177932009  -10.9903089851    1.8058780261
    103  H        -5.1151379683  -10.6876381463   -0.3001068363
    104  H        -5.8022439051   -8.4638762726   -1.1087089250
    105  H        -7.0765681730    5.9828065151   -0.3821649122
    106  H        -6.3179964621    3.7982400246    0.4699676757
    107  H        -8.3348502422    6.2048631965   -2.4619078217
    108  H        -9.0108072287    0.6550669893   -4.7052954738
    109  H        -9.8288530175    2.7811016985   -5.6562129898
    110  H        -9.4330316443    4.9262197098   -4.5626876021
    111  H       -10.1974947703   -5.2711642567   -3.6038517844
    112  H        -6.6148263653   -4.7271939658   -5.8988889109
    113  H       -10.3873097017   -4.4783436013   -1.4308499538
    114  H        -9.4492164039   -3.0252786045   -1.0745895344
    115  H        -8.8887656927   -4.5829238337   -0.5040928311
    116  H        -5.0878025955   -2.7386237151   -4.8975908272
    117  H        -4.4904952757   -4.2760205312   -4.2903518737
    118  H        -4.7981441305   -2.9520124938   -3.1758395932
    119  H        -9.0294826962   -3.2247313995   -6.8220857266
    120  H       -11.3690773319   -6.2569225140   -7.1860546560
    121  H       -12.7959277824   -8.2207622875   -6.8063138566
    122  H       -12.1596810012   -9.9230758587   -5.1261484484
    123  H       -10.0640698436   -9.6463887758   -3.8359606025
    124  H        -8.6135390969   -7.7010663672   -4.2319642560
    125  H        -8.5755639006   -7.3170543776   -8.0267827923
    126  H        -8.1860538803   -6.5891353293  -10.3416935895
    127  H        -8.1974150529   -4.1791138826  -10.9109926774
    128  H        -8.6115869298   -2.5043436813   -9.1363937321
   Point Group: c1    Number of degrees of freedom:   378


   Energy is  -2927.798854108

 Hessian Updated using BFGS Update

362 Hessian modes will be used to form the next step
  Hessian Eigenvalues:
     0.004253    0.008573    0.008593    0.008697    0.008756    0.009326
     0.012052    0.012665    0.013204    0.014135    0.014255    0.014818
     0.014918    0.015130    0.015192    0.015462    0.016193    0.016571
     0.016899    0.017011    0.017044    0.017258    0.017379    0.017597
     0.017611    0.017736    0.018038    0.018766    0.018937    0.019067
     0.019275    0.020186    0.020243    0.020300    0.020653    0.020674
     0.020735    0.020768    0.020783    0.020883    0.020917    0.020934
     0.020941    0.021123    0.021232    0.021464    0.021487    0.021516
     0.021695    0.021697    0.022160    0.022252    0.022288    0.022544
     0.022553    0.022646    0.022652    0.022890    0.023166    0.023170
     0.023174    0.023197    0.023200    0.023235    0.023251    0.023428
     0.023444    0.023456    0.023468    0.023524    0.023577    0.023602
     0.023666    0.023699    0.023712    0.023737    0.023746    0.023776
     0.023799    0.023807    0.023817    0.023826    0.023832    0.023871
     0.023895    0.023936    0.023963    0.024024    0.024092    0.024094
     0.024100    0.024100    0.024101    0.024102    0.024107    0.024125
     0.024164    0.024172    0.024192    0.024193    0.024205    0.024211
     0.024213    0.024230    0.024262    0.024271    0.024280    0.024303
     0.024305    0.024310    0.024319    0.024338    0.024442    0.024466
     0.025181    0.027536    0.036499    0.070652    0.070729    0.071459
     0.071722    0.072126    0.072265    0.072305    0.072554    0.158574
     0.159068    0.159560    0.159971    0.159977    0.159980    0.159983
     0.159983    0.159984    0.159987    0.159991    0.159992    0.159994
     0.159996    0.159997    0.159999    0.159999    0.159999    0.159999
     0.159999    0.160000    0.160000    0.160000    0.160000    0.160000
     0.160000    0.160000    0.160000    0.160000    0.160000    0.160000
     0.160000    0.160045    0.160308    0.161138    0.161819    0.210425
     0.219738    0.219955    0.219990    0.219995    0.220006    0.220048
     0.220089    0.220605    0.220608    0.220966    0.222126    0.222206
     0.223786    0.231864    0.233774    0.233781    0.234618    0.234681
     0.234736    0.234751    0.234787    0.235392    0.236589    0.237392
     0.238821    0.239749    0.240112    0.241309    0.242898    0.246696
     0.249019    0.249024    0.249455    0.249680    0.249725    0.249761
     0.249876    0.249896    0.249909    0.249924    0.249940    0.249956
     0.249972    0.249976    0.249978    0.249981    0.249984    0.249987
     0.249989    0.249994    0.249997    0.249998    0.249998    0.249999
     0.249999    0.254016    0.255167    0.256702    0.264409    0.278389
     0.284244    0.285224    0.289409    0.290818    0.318368    0.319116
     0.319611    0.320614    0.325485    0.327348    0.345504    0.345638
     0.345822    0.346016    0.346371    0.346404    0.346433    0.346579
     0.348004    0.348411    0.348477    0.348682    0.348982    0.354252
     0.354531    0.354677    0.354688    0.354972    0.355065    0.355241
     0.355604    0.355732    0.356267    0.356301    0.356496    0.356566
     0.356620    0.356685    0.356825    0.356946    0.356991    0.357005
     0.357014    0.357026    0.357058    0.357075    0.357089    0.357096
     0.357097    0.357164    0.357239    0.357249    0.357260    0.357267
     0.357293    0.357324    0.357337    0.357359    0.357532    0.357565
     0.357601    0.357802    0.357851    0.357947    0.357970    0.362449
     0.375687    0.378828    0.385675    0.387177    0.402102    0.402347
     0.407303    0.407651    0.408474    0.418650    0.418681    0.422753
     0.424567    0.424994    0.425451    0.427654    0.428145    0.428238
     0.428345    0.428780    0.430311    0.430864    0.431029    0.431141
     0.431267    0.431444    0.432460    0.434543    0.434984    0.442657
     0.446599    0.448377    0.449830    0.450875    0.450989    0.454421
     0.455918    0.459086    0.459841    0.462192    0.466126    0.467788
     0.468611    0.468703    0.468856    0.469985    0.471783    0.472420
     0.472584    0.472775    0.475332    0.476149    0.477382    0.478299
     0.478960    0.479063    0.479163    0.479295    0.479615    0.480289
     0.480629    0.481500    0.482465    0.482893    0.484470    0.486371
     0.487759    0.489854    0.491093    0.491700    0.492900    0.494604
     0.495594    0.544814

 Minimum Search - Taking Simple RFO Step
 Searching for Lamda that Minimizes Along All modes
 Value Taken    Lamda =  -0.00002205
 Step Taken.  Stepsize is  0.063715

                             Maximum     Tolerance    Cnvgd?
         Gradient           0.000306      0.000075      NO
         Displacement       0.016032      0.001200      NO
         Energy change      0.000006      0.000000      NO


 New Cartesian Coordinates Obtained by Inverse Iteration

 Displacement from previous Coordinates is:  0.939589
 Adding empirical dispersion correction 
 ----------------------------------------------------------------
 Doing -D3(BJ) with
 s6 =   1.00000
 s8 =   0.00000
 a1 =   0.48600
 a2 =   4.50000
 -D3 energy including 3body term =     -0.1218938265 hartrees
 ----------------------------------------------------------------
 Adding gCP correction 
 ----------------------------------------------------------------
 gCP energy =      0.1712644495 hartrees
 ----------------------------------------------------------------
             Standard Nuclear Orientation (Angstroms)
    I     Atom           X                Y                Z
 ----------------------------------------------------------------
    1      C      -4.9244678028    -0.2995241109     4.4732855620
    2      C      -5.5170357382    -0.8145926280     3.3376942977
    3      C      -4.7718712470    -0.9747639258     2.1498690554
    4      C      -3.4236376007    -0.5773288643     2.1406040469
    5      C      -2.8371574291    -0.0606436210     3.2845670981
    6      C      -3.5751703508     0.0722429781     4.4617208640
    7      N      -2.9733910004     0.5538778941     5.6223861085
    8      C      -6.9542150713    -1.2475954370     3.3737495797
    9      C      -2.5903982000    -0.6972982174     0.8947306638
   10      C      -1.6608887881     0.1748499207     5.9421391235
   11      C      -0.7755963259     1.0971138094     6.5004186399
   12      C      -4.4970904314     2.3990213464     6.0015854520
   13      C      -3.7050043528     1.3658066483     6.5039250570
   14      C      -5.2364472046     3.1845212904     6.8677610847
   15      C      -5.1880446199     2.9581829010     8.2370345850
   16      C      -4.3939805805     1.9337933081     8.7357898891
   17      C      -3.6562122125     1.1363010560     7.8785600931
   18      C      -1.2390920814    -1.1350562535     5.7059807496
   19      C       0.0565297481    -1.5079558576     6.0137468732
   20      C       0.9387914820    -0.5915862091     6.5709088760
   21      C       0.5146853598     0.7079313744     6.8153115166
   22      C      -6.7325336040    -1.4953031541    -1.3150034662
   23      C      -6.1567849752    -0.8358622538    -0.1860624236
   24      B      -5.4348498970    -1.6592813952     0.8885669417
   25      C      -5.3481543216    -3.1864288000     0.7509100521
   26      C      -5.9162299243    -3.8352286753    -0.3865866950
   27      B      -6.6310323130    -3.0170419931    -1.4646288075
   28      C      -4.7140722755    -3.9684799964     1.7399918309
   29      C      -4.6389345629    -5.3341753547     1.6171522489
   30      C      -5.2018535561    -5.9768145300     0.4744980601
   31      C      -5.8212811972    -5.2366798638    -0.4995848490
   32      C      -7.3996259068    -0.7306379597    -2.2905284946
   33      C      -7.4943996922     0.6319844284    -2.1679914069
   34      C      -6.9160534669     1.2989302330    -1.0476673696
   35      C      -6.2651015513     0.5679485791    -0.0818624493
   36      C      -3.3871991074    -6.3927227841     3.6681382240
   37      C      -2.9635172286    -7.6384706230     4.1868741142
   38      C      -3.1944980952    -8.8304172595     3.5389070636
   39      C      -3.8820550724    -8.8394796489     2.3013870794
   40      C      -4.2874948293    -7.5986878662     1.8153787713
   41      C      -4.0567734105    -6.3704729998     2.4697059779
   42      C      -4.2012210797    -9.9632305245     1.4993904730
   43      C      -4.8746539514    -9.7917397263     0.3114301727
   44      C      -5.2731609231    -8.5198207245    -0.1597017519
   45      C      -4.9776605877    -7.4140272544     0.6000284372
   46      C      -7.3224965607     5.1132679344    -0.9851776843
   47      C      -6.8844125399     3.8641475509    -0.4860647470
   48      C      -7.1755505748     2.7308374635    -1.2031763838
   49      C      -7.9006800414     2.8757225028    -2.4052472460
   50      C      -8.3465702951     4.0888592743    -2.9207340192
   51      C      -8.0303095355     5.2398959943    -2.1590054657
   52      C      -8.1200936928     1.6291963179    -3.0255435241
   53      C      -8.8161937219     1.5927897781    -4.2083585133
   54      C      -9.2812209675     2.8110148745    -4.7529710182
   55      C      -9.0617497349     4.0252939678    -4.1426764874
   56      C      -9.1749786130    -4.9124514469    -3.6803682627
   57      C      -8.5966870946    -4.2564705074    -2.6131209519
   58      C      -7.2813901012    -3.7488068858    -2.7073827003
   59      C      -6.5811843445    -3.9236613221    -3.9144158797
   60      C      -7.1722257963    -4.5789607170    -4.9828862294
   61      C      -8.4693212103    -5.0823461138    -4.8779408052
   62      N      -9.0593652448    -5.7513701314    -5.9481197722
   63      C      -9.3802906095    -4.0666961333    -1.3478733166
   64      C      -5.1703232824    -3.4321096859    -4.0768969954
   65      C      -8.8128362114    -5.3450301452    -7.2694997523
   66      C      -8.8248867462    -3.9900493524    -7.6029254508
   67      C     -11.0693069472    -7.0208143420    -6.4467432407
   68      C      -9.8899032081    -6.8603778001    -5.7179637718
   69      C     -11.8729507870    -8.1248911760    -6.2221780520
   70      C     -11.5206577087    -9.0716923838    -5.2694547034
   71      C     -10.3490074221    -8.9093838162    -4.5425619207
   72      C      -9.5316436905    -7.8155495041    -4.7659515781
   73      C      -8.5736985131    -6.2981771694    -8.2606842429
   74      C      -8.3532075880    -5.8969462517    -9.5663288175
   75      C      -8.3609333021    -4.5486250732    -9.8984136491
   76      C      -8.5944681328    -3.6006796022    -8.9111345092
   77      H      -5.4976856997    -0.2172949381     5.3887664266
   78      H      -1.8002346625     0.2536312688     3.2618956524
   79      H      -7.0464904567    -2.3189592737     3.1857011450
   80      H      -7.5356500705    -0.7449591224     2.5989137827
   81      H      -7.4163447295    -1.0323720442     4.3367892435
   82      H      -3.1430957025    -1.1535864119     0.0756044210
   83      H      -1.7018573546    -1.3054946504     1.0715047871
   84      H      -2.2513205601     0.2824604204     0.5535839541
   85      H      -1.0960946957     2.1162840052     6.6732504015
   86      H      -4.5263876331     2.5861040539     4.9358259379
   87      H      -5.8468066641     3.9842928060     6.4699341468
   88      H      -5.7672819750     3.5746525067     8.9111388619
   89      H      -4.3602730977     1.7427393076     9.8001570474
   90      H      -3.0562159323     0.3247070573     8.2693280827
   91      H      -1.9301804160    -1.8583439130     5.2930815428
   92      H       0.3742329761    -2.5257069955     5.8296105468
   93      H       1.9499647169    -0.8892077729     6.8136693158
   94      H       1.1980654755     1.4302335772     7.2414357626
   95      H      -4.2835709425    -3.4812186830     2.6087844095
   96      H      -6.2465914122    -5.7332988637    -1.3670559059
   97      H      -7.8434193401    -1.2310676900    -3.1464224347
   98      H      -5.8270134195     1.0692030050     0.7758496286
   99      H      -3.1784976759    -5.4855297175     4.2213247423
  100      H      -2.4361724664    -7.6514426668     5.1323489953
  101      H      -2.8501481630    -9.7608311136     3.9741943532
  102      H      -3.9151286322   -10.9578872322     1.8196758054
  103      H      -5.1088060245   -10.6619746438    -0.2893166951
  104      H      -5.7982068753    -8.4413204065    -1.1041368182
  105      H      -7.0891540195     6.0046144904    -0.4167155687
  106      H      -6.3313085733     3.8233632771     0.4440326550
  107      H      -8.3437799344     6.2192263105    -2.4994504054
  108      H      -9.0137309605     0.6621257844    -4.7267779399
  109      H      -9.8306091381     2.7847463653    -5.6858250133
  110      H      -9.4376032875     4.9333949484    -4.5981912751
  111      H     -10.1931930552    -5.2752082634    -3.6035348625
  112      H      -6.6108755000    -4.7283836745    -5.8982932622
  113      H     -10.3903602253    -4.4660934180    -1.4372074424
  114      H      -9.4549740684    -3.0099839244    -1.0862172529
  115      H      -8.8932298906    -4.5640007305    -0.5073325058
  116      H      -5.0934301973    -2.7283302426    -4.9074638746
  117      H      -4.4903020899    -4.2589975099    -4.2890777439
  118      H      -4.8052752619    -2.9290106145    -3.1838977014
  119      H      -9.0289659785    -3.2483848402    -6.8417301431
  120      H     -11.3598847584    -6.2787074566    -7.1790822164
  121      H     -12.7885628523    -8.2392076863    -6.7873345811
  122      H     -12.1549111581    -9.9306605887    -5.0958615188
  123      H     -10.0605230750    -9.6470306298    -3.8056404263
  124      H      -8.6083323031    -7.7047685895    -4.2128031654
  125      H      -8.5529099802    -7.3496865775    -8.0049993249
  126      H      -8.1624568735    -6.6425453009   -10.3268960386
  127      H      -8.1864330346    -4.2386579243   -10.9200197603
  128      H      -8.6120411565    -2.5487494272    -9.1633380297
 ----------------------------------------------------------------
 Nuclear Repulsion Energy = 10759.4945469884 hartrees
 There are      255 alpha and      253 beta electrons
 Discretize the solute cavity surface with Lebedev spheres
	Using 302 Lebedev grid points for each H atom
	Using 302 Lebedev grid points for other atoms
	Atomic van der Waals radii will be scaled by 1.20
 Remove points where switching function is < 1.0e-08
 Keep 13556 surface tesserae and discard 25100 interior tesserae
 Molecular Surface Area = 1018.109 Angst**2
 Nucleus-field energy     =     0.0000000435 hartrees
 Requested basis set is def2-mSVP
 There are 636 shells and 1244 basis functions
 A cutoff of  1.0D-11 yielded  54236 shell pairs
 There are    214578 function pairs (    236456 Cartesian)
 Smallest overlap matrix eigenvalue = 1.99E-04
 Guess MOs from SCF MO coefficient file
 Reading MOs from coefficient file
 Reading MOs from coefficient file
 An unrestricted hybrid HF-DFT SCF calculation will be
 performed using Pulay DIIS extrapolation
 Polarizable Continuum solvation model will be applied
 Exchange:     0.4200 Hartree-Fock + 0.5800 PBEh-3c
 Correlation:  1.0000 PBEh-3c
 Using SG-1 standard quadrature grid
 Dispersion:   Grimme D3
 SCF converges when DIIS error is below 1.0E-08
 Geometry optimization detected.  Setting ReadMinima to 0
 Setting SaveMinima to 0
 using 8 threads for integral computing
 -------------------------------------------------------
 OpenMP Integral computing Module                
 Release: version 1.0, May 2013, Q-Chem Inc. Pittsburgh 
 -------------------------------------------------------
 ---------------------------------------
  Cycle       Energy         DIIS Error
 ---------------------------------------
    1   -2927.7720217144      1.91E-04
 Using non-symmetric K matrix
    2   -2927.7959248933      8.85E-05
    3   -2927.7969852713      8.81E-05
    4   -2927.7984287408      3.96E-05
    5   -2927.7984709138      3.75E-05
