
                                 *****************
                                 * O   R   C   A *
                                 *****************

           --- An Ab Initio, DFT and Semiempirical electronic structure package ---

                  #######################################################
                  #                        -***-                        #
                  #  Department of molecular theory and spectroscopy    #
                  #              Directorship: Frank Neese              #
                  # Max Planck Institute for Chemical Energy Conversion #
                  #                  D-45470 Muelheim/Ruhr              #
                  #                       Germany                       #
                  #                                                     #
                  #                  All rights reserved                #
                  #                        -***-                        #
                  #######################################################


                         Program Version 4.0.1 -  RELEASE  -


 With contributions from (in alphabetic order):
   Daniel Aravena         : Magnetic Properties
   Michael Atanasov       : Ab Initio Ligand Field Theory
   Ute Becker             : Parallelization
   Martin Brehm           : Molecular dynamics
   Dmytro Bykov           : SCF Hessian
   Vijay G. Chilkuri      : MRCI spin determinant printing
   Dipayan Datta          : RHF DLPNO-CCSD density
   Achintya Kumar Dutta   : EOM-CC, STEOM-CC
   Dmitry Ganyushin       : Spin-Orbit,Spin-Spin,Magnetic field MRCI
   Yang Guo               : DLPNO-NEVPT2, CIM, IAO-localization
   Andreas Hansen         : Spin unrestricted coupled pair/coupled cluster methods
   Lee Huntington         : MR-EOM, pCC
   Robert Izsak           : Overlap fitted RIJCOSX, COSX-SCS-MP3, EOM
   Christian Kollmar      : KDIIS, OOCD, Brueckner-CCSD(T), CCSD density
   Simone Kossmann        : Meta GGA functionals, TD-DFT gradient, OOMP2, MP2 Hessian
   Martin Krupicka        : AUTO-CI
   Dagmar Lenk            : GEPOL surface
   Dimitrios Liakos       : Extrapolation schemes; parallel MDCI
   Dimitrios Manganas     : ROCIS; embedding schemes
   Dimitrios Pantazis     : SARC Basis sets
   Taras Petrenko         : DFT Hessian,TD-DFT gradient, ASA, ECA, R-Raman, ABS, FL, XAS/XES, NRVS
   Peter Pinski           : DLPNO-MP2
   Christoph Reimann      : Effective Core Potentials
   Marius Retegan         : Local ZFS, SOC
   Christoph Riplinger    : Optimizer, TS searches, QM/MM, DLPNO-CCSD(T), (RO)-DLPNO pert. Triples
   Tobias Risthaus        : Range-separated hybrids, TD-DFT gradient, RPA, STAB
   Michael Roemelt        : Restricted open shell CIS
   Masaaki Saitow         : Open-shell DLPNO
   Barbara Sandhoefer     : DKH picture change effects
   Kantharuban Sivalingam : CASSCF convergence, NEVPT2, FIC-MRCI
   Georgi Stoychev        : AutoAux
   Boris Wezisla          : Elementary symmetry handling
   Frank Wennmohs         : Technical directorship


 We gratefully acknowledge several colleagues who have allowed us to
 interface, adapt or use parts of their codes:
   Stefan Grimme, W. Hujo, H. Kruse,             : VdW corrections, initial TS optimization,
                  C. Bannwarth                     DFT functionals, gCP, sTDA/sTD-DF
   Ed Valeev                                     : LibInt (2-el integral package), F12 methods
   Garnet Chan, S. Sharma, J. Yang, R. Olivares  : DMRG
   Ulf Ekstrom                                   : XCFun DFT Library
   Mihaly Kallay                                 : mrcc  (arbitrary order and MRCC methods)
   Andreas Klamt, Michael Diedenhofen            : otool_cosmo (COSMO solvation model)
   Jiri Pittner, Ondrej Demel                    : Mk-CCSD
   Frank Weinhold                                : gennbo (NPA and NBO analysis)
   Christopher J. Cramer and Donald G. Truhlar   : smd solvation model


 Your calculation uses the libint2 library for the computation of 2-el integrals
 For citations please refer to: http://libint.valeyev.net

 This ORCA versions uses:
   CBLAS   interface :  Fast vector & matrix operations
   LAPACKE interface :  Fast linear algebra routines
   SCALAPACK package :  Parallel linear algebra routines


Your calculation utilizes the geometrical counterpoise correction gCP
Please cite in your paper:
H.Kruse, S. Grimme J.Chem.Phys., 136, (2012), 154101 
   

Your calculation utilizes the atom-pairwise dispersion correction
with the Becke-Johnson damping scheme (D3BJ)
Cite in your paper:
S.Grimme, S.Ehrlich, L.Goerigk, J Comput Chem, (2011), 32, 1456–1465 
S.Grimme, J.Antony, S.Ehrlich and H.Krieg, J.Chem.Phys., 132, (2010), 154104 
   

Your calculation employs the composite approach PBEh-3c.
Please cite in your paper:
S. Grimme, J. G. Brandenburg, C. Bannwarth, A. Hansen J.Chem.Phys., 143, (2015), 054107 
   

Your calculation utilizes the basis: def2-mSVP

Your calculation utilizes the auxiliary basis: def2/J
   F. Weigend, Phys. Chem. Chem. Phys. 8, 1057 (2006).

================================================================================
                                        WARNINGS
                       Please study these warnings very carefully!
================================================================================

Warning: TCutStore was < 0. Adjusted to Thresh (uncritical)

WARNING: Split-RI-J cannot be used together with RIJONX
  ===> : Split-RI-J will be disabled

WARNING: Geometry Optimization
  ===> : Switching off AutoStart
         For restart on a previous wavefunction, please use MOREAD

INFO   : the flag for use of LIBINT has been found!

================================================================================
                                       INPUT FILE
================================================================================
NAME = orca_gsopt.in
|  1> %maxcore 1700
|  2> %pal nprocs 8 end
|  3> !PBEh-3c TIGHTOPT RIJCOSX
|  4> 
|  5> *xyz 0 1
|  6> C         0.1259330406   -4.5856407007    1.0666232976
|  7> C         0.0042700506   -4.4430353632    2.5853123735
|  8> C         1.5854549421   -4.1736596265    0.8712394581
|  9> C         2.2917826359   -4.1380065184   -0.3139290275
| 10> H         1.8175544917   -4.3980853921   -1.2526397491
| 11> C         3.6301865853   -3.7679806962   -0.2776947208
| 12> H         4.2013571834   -3.7302947589   -1.1958721989
| 13> C         4.2415515143   -3.4488987935    0.9300099326
| 14> H         5.2862599469   -3.1684483766    0.9418017932
| 15> C         3.5289743835   -3.4893774555    2.1194113027
| 16> H         4.0155700776   -3.2477721231    3.0554001202
| 17> C         2.1909662447   -3.8521846880    2.0835528102
| 18> C        -1.1046767133   -4.6826633207    3.3699493496
| 19> H        -2.0350022192   -5.0238586746    2.9329118344
| 20> C        -1.0085439523   -4.4777285629    4.7398934136
| 21> H        -1.8670717723   -4.6613228642    5.3719033196
| 22> C         0.1831588990   -4.0391147503    5.3053972217
| 23> H         0.2419061104   -3.8843245150    6.3743221968
| 24> C         1.2973213359   -3.7996709298    4.5147489287
| 25> H         2.2225509948   -3.4611180066    4.9629447745
| 26> C         1.2017454528   -4.0029771858    3.1471645391
| 27> C        -2.1162244323   -3.7716021406    0.0064241153
| 28> C        -2.9067215009   -2.7016639022   -0.4007682177
| 29> H        -3.9107378075   -2.8960224640   -0.7550073323
| 30> C        -2.4516072589   -1.3953468799   -0.3790529077
| 31> C        -3.3057151604   -0.3402336095   -0.8139675622
| 32> N        -4.0175422979    0.4903722477   -1.1716617515
| 33> C        -0.8121876488   -3.5356785700    0.4566299005
| 34> C        -0.3600504550   -2.2162182067    0.4709948028
| 35> H         0.6400473034   -1.9937152962    0.8130460102
| 36> C        -1.1493619097   -1.1535076527    0.0626404758
| 37> C        -0.6212140124    0.1704374324    0.0956618228
| 38> N        -0.1839688482    1.2344759592    0.1248001860
| 39> H         5.6585794489   -6.2629635507    0.2282109434
| 40> H         7.3522424556   -7.8003251968    1.2081941998
| 41> C         5.3551095127   -7.1768010360    0.7221651881
| 42> C         6.2972003589   -8.0316990766    1.2660241943
| 43> C         4.0058130303   -7.4679938766    0.8193169910
| 44> H         3.2928481777   -6.7730182842    0.3995660474
| 45> C         5.8743709085   -9.2063501358    1.8692017256
| 46> H         6.6192382993   -9.8839079118    2.2629713620
| 47> C         3.5837623954   -8.6315055146    1.4608270893
| 48> C         4.5302602539   -9.5410500360    1.9521786941
| 49> N         2.2262839709   -8.9328679807    1.6358187693
| 50> C         2.7551345767  -10.6683765003    3.2150967108
| 51> C         1.8407268205   -9.7355689591    2.7129162094
| 52> H         3.0893214195  -12.1296353954    4.7427683933
| 53> C         2.3932653626  -11.4135446904    4.3281364628
| 54> C         0.5756919222   -9.6155009909    3.2864154734
| 55> C         1.1425168011  -11.2869575469    4.9135771785
| 56> C         0.2302783761  -10.3959996698    4.3759339661
| 57> H        -0.1392344735   -8.9068864660    2.8918918306
| 58> H         0.8825620340  -11.8896409172    5.7733079585
| 59> H        -0.7551495669  -10.2921264179    4.8110190746
| 60> C         4.0327011018  -10.8926743604    2.4320444594
| 61> C         5.0806186676  -11.6489345193    3.2412403098
| 62> C         3.6829814061  -11.7441296591    1.1924053189
| 63> C         1.2373184061   -8.1779060967    0.9600833316
| 64> C         0.5232951342   -8.7469492730   -0.0834753805
| 65> C        -0.4402690186   -7.9902377577   -0.7134082454
| 66> C        -0.6892224098   -6.6559555835   -0.3769866267
| 67> C         0.0594605082   -6.0672731261    0.6440311619
| 68> C         0.9750007401   -6.8743854386    1.3244019515
| 69> H         1.5405370752   -6.4678495454    2.1524140667
| 70> H         0.7117665104   -9.7706885717   -0.3789908833
| 71> H        -1.0284081051   -8.4407387958   -1.5038823072
| 72> C        -1.8166428242   -5.9767694184   -1.0999995025
| 73> C        -2.6864834312   -5.1468920033   -0.1610290282
| 74> H        -2.4304083557   -6.7459481258   -1.5718684105
| 75> H        -1.4528265221   -5.3452256949   -1.9160616376
| 76> H        -2.7891731483   -5.6653547971    0.7958175961
| 77> H        -3.6946247462   -5.0622119618   -0.5688497709
| 78> H         2.9354737445  -11.2595017592    0.5652631398
| 79> H         3.2838587832  -12.7125856367    1.4992041288
| 80> H         4.5716699564  -11.9136937794    0.5820210352
| 81> H         5.3650581554  -11.1119051506    4.1467600354
| 82> H         5.9786656018  -11.8256193215    2.6498963293
| 83> H         4.7123354823  -12.6336330850    3.5289799549
| 84> *
| 85> 
| 86> 
| 87> 
| 88>                          ****END OF INPUT****
================================================================================

                       *****************************
                       * Geometry Optimization Run *
                       *****************************

Geometry optimization settings:
Update method            Update   .... BFGS
Choice of coordinates    CoordSys .... Redundant Internals
Initial Hessian          InHess   .... Almoef's Model

Convergence Tolerances:
Energy Change            TolE     ....  1.0000e-06 Eh
Max. Gradient            TolMAXG  ....  1.0000e-04 Eh/bohr
RMS Gradient             TolRMSG  ....  3.0000e-05 Eh/bohr
Max. Displacement        TolMAXD  ....  1.0000e-03 bohr
RMS Displacement         TolRMSD  ....  6.0000e-04 bohr

------------------------------------------------------------------------------
                        ORCA OPTIMIZATION COORDINATE SETUP
------------------------------------------------------------------------------

The optimization will be done in new redundant internal coordinates
Making redundant internal coordinates   ...  (new redundants) done
Evaluating the initial hessian          ...  (Almloef) done
Evaluating the coordinates              ...  done
Calculating the B-matrix                .... done
Calculating the G-matrix                .... done
Diagonalizing the G-matrix              .... done
Small eigenvalue found = 1.442e-03
Small eigenvalue found = 1.972e-03
Small eigenvalue found = 3.762e-03
Small eigenvalue found = 8.150e-03
Small eigenvalue found = 9.963e-03
Small eigenvalue found = 1.192e-02
Small eigenvalue found = 1.310e-02
Small eigenvalue found = 1.734e-02
Small eigenvalue found = 2.078e-02
Small eigenvalue found = 2.803e-02
The first mode is                       ....  244
The number of degrees of freedom        ....  228

    -----------------------------------------------------------------
                    Redundant Internal Coordinates


    -----------------------------------------------------------------
         Definition                    Initial Value    Approx d2E/dq
    -----------------------------------------------------------------
      1. B(C   1,C   0)                  1.5302         0.373281   
      2. B(C   2,C   0)                  1.5291         0.374830   
      3. B(C   3,C   2)                  1.3801         0.647836   
      4. B(H   4,C   3)                  1.0834         0.368965   
      5. B(C   5,C   3)                  1.3891         0.626900   
      6. B(H   6,C   5)                  1.0820         0.370851   
      7. B(C   7,C   5)                  1.3907         0.623122   
      8. B(H   8,C   7)                  1.0818         0.371166   
      9. B(C   9,C   7)                  1.3871         0.631460   
     10. B(H  10,C   9)                  1.0822         0.370526   
     11. B(C  11,C   9)                  1.3868         0.632213   
     12. B(C  11,C   2)                  1.3927         0.618564   
     13. B(C  12,C   1)                  1.3794         0.649524   
     14. B(H  13,C  12)                  1.0830         0.369460   
     15. B(C  14,C  12)                  1.3885         0.628204   
     16. B(H  15,C  14)                  1.0818         0.371162   
     17. B(C  16,C  14)                  1.3901         0.624605   
     18. B(H  17,C  16)                  1.0817         0.371289   
     19. B(C  18,C  16)                  1.3870         0.631681   
     20. B(H  19,C  18)                  1.0824         0.370322   
     21. B(C  20,C  18)                  1.3859         0.634248   
     22. B(C  20,C  11)                  1.4603         0.482537   
     23. B(C  20,C   1)                  1.3940         0.615650   
     24. B(C  22,C  21)                  1.3912         0.622030   
     25. B(H  23,C  22)                  1.0823         0.370472   
     26. B(C  24,C  22)                  1.3835         0.639902   
     27. B(C  25,C  24)                  1.4255         0.548499   
     28. B(N  26,C  25)                  1.1509         1.346974   
     29. B(C  27,C  21)                  1.3996         0.603164   
     30. B(C  27,C   0)                  1.5345         0.367497   
     31. B(C  28,C  27)                  1.3949         0.613760   
     32. B(H  29,C  28)                  1.0801         0.373383   
     33. B(C  30,C  28)                  1.3853         0.635624   
     34. B(C  30,C  24)                  1.3962         0.610688   
     35. B(C  31,C  30)                  1.4258         0.547831   
     36. B(N  32,C  31)                  1.1507         1.347703   
     37. B(C  35,H  33)                  1.0822         0.370551   
     38. B(C  36,C  35)                  1.3835         0.639814   
     39. B(C  36,H  34)                  1.0817         0.371301   
     40. B(C  37,C  35)                  1.3838         0.639250   
     41. B(H  38,C  37)                  1.0805         0.372876   
     42. B(C  39,C  36)                  1.3865         0.632856   
     43. B(H  40,C  39)                  1.0812         0.371949   
     44. B(C  41,C  37)                  1.3941         0.615532   
     45. B(C  42,C  41)                  1.4016         0.598673   
     46. B(C  42,C  39)                  1.3876         0.630239   
     47. B(N  43,C  41)                  1.4015         0.536458   
     48. B(C  45,C  44)                  1.3994         0.603481   
     49. B(C  45,N  43)                  1.3975         0.544307   
     50. B(C  47,H  46)                  1.0813         0.371801   
     51. B(C  47,C  44)                  1.3875         0.630623   
     52. B(C  48,C  45)                  1.3941         0.615362   
     53. B(C  49,C  47)                  1.3868         0.632249   
     54. B(C  50,C  49)                  1.3839         0.639069   
     55. B(C  50,C  48)                  1.3840         0.638650   
     56. B(H  51,C  48)                  1.0812         0.371989   
     57. B(H  52,C  49)                  1.0816         0.371334   
     58. B(H  53,C  50)                  1.0822         0.370568   
     59. B(C  54,C  44)                  1.5151         0.394532   
     60. B(C  54,C  42)                  1.5181         0.390222   
     61. B(C  55,C  54)                  1.5247         0.380851   
     62. B(C  56,C  54)                  1.5440         0.354826   
     63. B(C  57,N  43)                  1.4159         0.508896   
     64. B(C  58,C  57)                  1.3866         0.632654   
     65. B(C  59,C  58)                  1.3776         0.653827   
     66. B(C  60,C  59)                  1.3984         0.605855   
     67. B(C  61,C  60)                  1.3963         0.610585   
     68. B(C  61,C   0)                  1.5422         0.357262   
     69. B(C  62,C  61)                  1.3973         0.608183   
     70. B(C  62,C  57)                  1.3787         0.651373   
     71. B(H  63,C  62)                  1.0820         0.370851   
     72. B(H  64,C  58)                  1.0821         0.370734   
     73. B(H  65,C  59)                  1.0834         0.368967   
     74. B(C  66,C  60)                  1.5017         0.414496   
     75. B(C  67,C  66)                  1.5254         0.379877   
     76. B(C  67,C  21)                  1.4982         0.419839   
     77. B(H  68,C  66)                  1.0913         0.358343   
     78. B(H  69,C  66)                  1.0942         0.354650   
     79. B(H  70,C  67)                  1.0931         0.356000   
     80. B(H  71,C  67)                  1.0908         0.359048   
     81. B(H  72,C  56)                  1.0895         0.360805   
     82. B(H  73,C  56)                  1.0915         0.358146   
     83. B(H  74,C  56)                  1.0914         0.358292   
     84. B(H  75,C  55)                  1.0905         0.359389   
     85. B(H  76,C  55)                  1.0897         0.360529   
     86. B(H  77,C  55)                  1.0900         0.360126   
     87. A(C   1,C   0,C  27)          106.3891         0.362286   
     88. A(C   2,C   0,C  61)          105.3660         0.360799   
     89. A(C   2,C   0,C  27)          110.3894         0.362542   
     90. A(C  27,C   0,C  61)          121.4742         0.359587   
     91. A(C   1,C   0,C   2)          100.2298         0.363511   
     92. A(C   1,C   0,C  61)          110.9818         0.360545   
     93. A(C  12,C   1,C  20)          121.0745         0.437163   
     94. A(C   0,C   1,C  12)          127.7527         0.399885   
     95. A(C   0,C   1,C  20)          111.1697         0.396139   
     96. A(C   3,C   2,C  11)          121.2666         0.437330   
     97. A(C   0,C   2,C   3)          127.2420         0.399994   
     98. A(C   0,C   2,C  11)          111.4662         0.396756   
     99. A(C   2,C   3,H   4)          120.9197         0.357017   
    100. A(H   4,C   3,C   5)          120.5513         0.355031   
    101. A(C   2,C   3,C   5)          118.5280         0.438387   
    102. A(H   6,C   5,C   7)          119.7931         0.354974   
    103. A(C   3,C   5,C   7)          120.4862         0.435325   
    104. A(C   3,C   5,H   6)          119.7206         0.355338   
    105. A(C   5,C   7,H   8)          119.5703         0.355025   
    106. A(H   8,C   7,C   9)          119.6259         0.355827   
    107. A(C   5,C   7,C   9)          120.8036         0.435894   
    108. A(C   7,C   9,C  11)          118.7577         0.437033   
    109. A(C   7,C   9,H  10)          120.2719         0.355723   
    110. A(H  10,C   9,C  11)          120.9691         0.355795   
    111. A(C   2,C  11,C   9)          120.1568         0.435411   
    112. A(C   9,C  11,C  20)          131.4334         0.416477   
    113. A(C   2,C  11,C  20)          108.3997         0.414863   
    114. A(C   1,C  12,C  14)          118.6791         0.438758   
    115. A(H  13,C  12,C  14)          120.2723         0.355237   
    116. A(C   1,C  12,H  13)          121.0486         0.357256   
    117. A(H  15,C  14,C  16)          119.7522         0.355168   
    118. A(C  12,C  14,H  15)          119.7640         0.355514   
    119. A(C  12,C  14,C  16)          120.4837         0.435674   
    120. A(H  17,C  16,C  18)          119.6689         0.355868   
    121. A(C  14,C  16,C  18)          120.7448         0.436108   
    122. A(C  14,C  16,H  17)          119.5862         0.355188   
    123. A(C  16,C  18,H  19)          120.3052         0.355711   
    124. A(C  16,C  18,C  20)          118.8015         0.437313   
    125. A(H  19,C  18,C  20)          120.8933         0.355955   
    126. A(C  11,C  20,C  18)          131.0594         0.416715   
    127. A(C   1,C  20,C  18)          120.2161         0.435293   
    128. A(C   1,C  20,C  11)          108.7194         0.414515   
    129. A(C  27,C  21,C  67)          123.0469         0.402961   
    130. A(C  22,C  21,C  67)          117.1925         0.405157   
    131. A(C  22,C  21,C  27)          119.5989         0.432176   
    132. A(H  23,C  22,C  24)          118.6774         0.356517   
    133. A(C  21,C  22,C  24)          122.3206         0.436800   
    134. A(C  21,C  22,H  23)          119.0002         0.354807   
    135. A(C  25,C  24,C  30)          121.8142         0.423480   
    136. A(C  22,C  24,C  30)          118.3810         0.435354   
    137. A(C  22,C  24,C  25)          119.8022         0.427036   
    138. L(C  24,C  25,N  26,C  22, 2) 180.0635         0.485769   
    139. L(C  24,C  25,N  26,C  22, 1) 178.4339         0.485769   
    140. A(C  21,C  27,C  28)          117.6963         0.431138   
    141. A(C   0,C  27,C  28)          116.4235         0.394843   
    142. A(C   0,C  27,C  21)          125.6024         0.393640   
    143. A(H  29,C  28,C  30)          117.5724         0.356585   
    144. A(C  27,C  28,C  30)          122.5431         0.435222   
    145. A(C  27,C  28,H  29)          119.8842         0.354473   
    146. A(C  28,C  30,C  31)          119.6331         0.426430   
    147. A(C  24,C  30,C  31)          120.9079         0.423388   
    148. A(C  24,C  30,C  28)          119.4588         0.434829   
    149. L(C  30,C  31,N  32,C  28, 2) 179.8171         0.485708   
    150. L(C  30,C  31,N  32,C  28, 1) 179.4031         0.485708   
    151. A(C  36,C  35,C  37)          120.4202         0.438945   
    152. A(H  33,C  35,C  37)          118.8925         0.356468   
    153. A(H  33,C  35,C  36)          120.6803         0.356521   
    154. A(H  34,C  36,C  35)          120.7293         0.356644   
    155. A(C  35,C  36,C  39)          119.1334         0.438150   
    156. A(H  34,C  36,C  39)          120.1280         0.355982   
    157. A(H  38,C  37,C  41)          121.0522         0.354565   
    158. A(C  35,C  37,C  41)          120.2082         0.435894   
    159. A(C  35,C  37,H  38)          118.7362         0.356847   
    160. A(H  40,C  39,C  42)          119.6295         0.355837   
    161. A(C  36,C  39,C  42)          121.7189         0.436960   
    162. A(C  36,C  39,H  40)          118.6374         0.356088   
    163. A(C  37,C  41,C  42)          119.8992         0.430783   
    164. A(C  42,C  41,N  43)          118.0842         0.417584   
    165. A(C  37,C  41,N  43)          122.0165         0.419656   
    166. A(C  41,C  42,C  54)          117.8549         0.397283   
    167. A(C  39,C  42,C  54)          123.4433         0.400889   
    168. A(C  39,C  42,C  41)          118.4649         0.432614   
    169. A(C  45,N  43,C  57)          118.7764         0.404148   
    170. A(C  41,N  43,C  57)          120.1528         0.403114   
    171. A(C  41,N  43,C  45)          119.1406         0.407933   
    172. A(C  47,C  44,C  54)          123.7110         0.401709   
    173. A(C  45,C  44,C  54)          117.6565         0.398610   
    174. A(C  45,C  44,C  47)          118.3876         0.433285   
    175. A(C  44,C  45,C  48)          120.1779         0.431381   
    176. A(N  43,C  45,C  48)          121.1921         0.420724   
    177. A(N  43,C  45,C  44)          118.6296         0.419263   
    178. A(H  46,C  47,C  49)          118.6302         0.356006   
    179. A(C  44,C  47,C  49)          121.6591         0.436933   
    180. A(C  44,C  47,H  46)          119.6959         0.355850   
    181. A(C  50,C  48,H  51)          119.4616         0.356646   
    182. A(C  45,C  48,H  51)          120.4217         0.354405   
    183. A(C  45,C  48,C  50)          120.1138         0.435799   
    184. A(C  50,C  49,H  52)          120.6047         0.356579   
    185. A(C  47,C  49,H  52)          120.0960         0.355930   
    186. A(C  47,C  49,C  50)          119.2945         0.437982   
    187. A(C  49,C  50,H  53)          120.3882         0.356454   
    188. A(C  48,C  50,H  53)          119.3151         0.356414   
    189. A(C  48,C  50,C  49)          120.2912         0.438779   
    190. A(C  55,C  54,C  56)          107.9531         0.361359   
    191. A(C  44,C  54,C  56)          107.7935         0.363544   
    192. A(C  42,C  54,C  56)          108.1453         0.362862   
    193. A(C  44,C  54,C  55)          112.2503         0.367977   
    194. A(C  42,C  54,C  55)          112.5874         0.367285   
    195. A(C  42,C  54,C  44)          107.9335         0.369516   
    196. A(H  75,C  55,H  77)          108.2889         0.290752   
    197. A(C  54,C  55,H  77)          110.8526         0.325352   
    198. A(H  75,C  55,H  76)          108.3910         0.290804   
    199. A(C  54,C  55,H  76)          111.0282         0.325412   
    200. A(C  54,C  55,H  75)          112.0663         0.325243   
    201. A(H  76,C  55,H  77)          105.9762         0.290897   
    202. A(H  73,C  56,H  74)          108.4883         0.290361   
    203. A(H  72,C  56,H  74)          107.8103         0.290699   
    204. A(H  72,C  56,H  73)          107.7943         0.290680   
    205. A(C  54,C  56,H  73)          110.2703         0.321306   
    206. A(C  54,C  56,H  72)          111.8554         0.321695   
    207. A(C  54,C  56,H  74)          110.5039         0.321328   
    208. A(C  58,C  57,C  62)          119.2697         0.439542   
    209. A(N  43,C  57,C  62)          120.7266         0.419944   
    210. A(N  43,C  57,C  58)          120.0033         0.417767   
    211. A(C  59,C  58,H  64)          121.1055         0.357866   
    212. A(C  57,C  58,H  64)          120.2721         0.355871   
    213. A(C  57,C  58,C  59)          118.6125         0.439841   
    214. A(C  60,C  59,H  65)          118.4022         0.352984   
    215. A(C  58,C  59,H  65)          119.0078         0.357576   
    216. A(C  58,C  59,C  60)          122.5896         0.436421   
    217. A(C  61,C  60,C  66)          124.3290         0.402919   
    218. A(C  59,C  60,C  66)          116.7035         0.402367   
    219. A(C  59,C  60,C  61)          118.8652         0.431081   
    220. A(C  60,C  61,C  62)          117.6356         0.431378   
    221. A(C   0,C  61,C  62)          113.1583         0.392266   
    222. A(C   0,C  61,C  60)          128.9441         0.392537   
    223. A(C  61,C  62,H  63)          119.8711         0.353517   
    224. A(C  57,C  62,H  63)          117.2598         0.357657   
    225. A(C  57,C  62,C  61)          122.8284         0.436426   
    226. A(H  68,C  66,H  69)          105.7436         0.289921   
    227. A(C  67,C  66,H  69)          109.5535         0.324398   
    228. A(C  60,C  66,H  69)          111.7472         0.329091   
    229. A(C  67,C  66,H  68)          109.2011         0.324950   
    230. A(C  60,C  66,H  68)          108.1577         0.329654   
    231. A(C  60,C  66,C  67)          112.1968         0.370948   
    232. A(H  70,C  67,H  71)          106.0969         0.290184   
    233. A(C  66,C  67,H  71)          109.8227         0.325055   
    234. A(C  21,C  67,H  71)          108.8026         0.330460   
    235. A(C  66,C  67,H  70)          109.5326         0.324600   
    236. A(C  21,C  67,H  70)          111.9195         0.329995   
    237. A(C  21,C  67,C  66)          110.5573         0.371767   
    238. D(C  20,C   1,C   0,C   2)      0.7132         0.010422   
    239. D(C  20,C   1,C   0,C  61)    111.6658         0.010422   
    240. D(C  20,C   1,C   0,C  27)   -114.2539         0.010422   
    241. D(C  12,C   1,C   0,C   2)   -179.9234         0.010422   
    242. D(C  12,C   1,C   0,C  61)    -68.9708         0.010422   
    243. D(C  12,C   1,C   0,C  27)     65.1095         0.010422   
    244. D(C  11,C   2,C   0,C  61)   -115.1988         0.010502   
    245. D(C   3,C   2,C   0,C  27)    -69.8539         0.010502   
    246. D(C   3,C   2,C   0,C   1)    178.2480         0.010502   
    247. D(C  11,C   2,C   0,C   1)      0.0746         0.010502   
    248. D(C   3,C   2,C   0,C  61)     62.9746         0.010502   
    249. D(C  11,C   2,C   0,C  27)    111.9728         0.010502   
    250. D(C   5,C   3,C   2,C   0)   -178.2159         0.029208   
    251. D(H   4,C   3,C   2,C  11)    179.4267         0.029208   
    252. D(H   4,C   3,C   2,C   0)      1.4155         0.029208   
    253. D(C   5,C   3,C   2,C  11)     -0.2047         0.029208   
    254. D(H   6,C   5,C   3,C   2)   -179.7943         0.027232   
    255. D(C   7,C   5,C   3,C   2)      0.3579         0.027232   
    256. D(C   7,C   5,C   3,H   4)   -179.2748         0.027232   
    257. D(H   6,C   5,C   3,H   4)      0.5730         0.027232   
    258. D(H   8,C   7,C   5,C   3)    179.6326         0.026885   
    259. D(C   9,C   7,C   5,C   3)     -0.1961         0.026885   
    260. D(C   9,C   7,C   5,H   6)    179.9562         0.026885   
    261. D(H   8,C   7,C   5,H   6)     -0.2151         0.026885   
    262. D(C  11,C   9,C   7,H   8)   -179.9545         0.027655   
    263. D(C  11,C   9,C   7,C   5)     -0.1259         0.027655   
    264. D(H  10,C   9,C   7,C   5)    179.4634         0.027655   
    265. D(H  10,C   9,C   7,H   8)     -0.3652         0.027655   
    266. D(C   9,C  11,C   2,C   0)    178.1838         0.026469   
    267. D(C  20,C  11,C   2,C   0)     -0.7893         0.026469   
    268. D(C   9,C  11,C   2,C   3)     -0.1150         0.026469   
    269. D(C  20,C  11,C   9,H  10)     -0.6070         0.027725   
    270. D(C   2,C  11,C   9,C   7)      0.2790         0.027725   
    271. D(C   2,C  11,C   9,H  10)   -179.3073         0.027725   
    272. D(C  20,C  11,C   2,C   3)   -179.0881         0.026469   
    273. D(C  20,C  11,C   9,C   7)    178.9793         0.027725   
    274. D(H  13,C  12,C   1,C  20)    179.9557         0.029371   
    275. D(C  14,C  12,C   1,C  20)     -0.0379         0.029371   
    276. D(H  13,C  12,C   1,C   0)      0.6488         0.029371   
    277. D(C  14,C  12,C   1,C   0)   -179.3447         0.029371   
    278. D(C  16,C  14,C  12,H  13)   -179.9623         0.027353   
    279. D(H  15,C  14,C  12,C   1)   -179.9292         0.027353   
    280. D(H  15,C  14,C  12,H  13)      0.0773         0.027353   
    281. D(C  16,C  14,C  12,C   1)      0.0313         0.027353   
    282. D(C  18,C  16,C  14,H  15)    179.8823         0.027021   
    283. D(H  17,C  16,C  14,H  15)     -0.0328         0.027021   
    284. D(C  18,C  16,C  14,C  12)     -0.0782         0.027021   
    285. D(H  17,C  16,C  14,C  12)   -179.9933         0.027021   
    286. D(C  20,C  18,C  16,H  17)   -179.9564         0.027676   
    287. D(C  20,C  18,C  16,C  14)      0.1286         0.027676   
    288. D(H  19,C  18,C  16,H  17)      0.0992         0.027676   
    289. D(H  19,C  18,C  16,C  14)   -179.8158         0.027676   
    290. D(C   1,C  20,C  18,H  19)    179.8099         0.027916   
    291. D(C   1,C  20,C  18,C  16)     -0.1342         0.027916   
    292. D(C  18,C  20,C  11,C   9)      1.5980         0.015853   
    293. D(C  18,C  20,C   1,C  12)      0.0909         0.026205   
    294. D(C   1,C  20,C  11,C   9)   -177.5693         0.015853   
    295. D(C   1,C  20,C  11,C   2)      1.2463         0.015853   
    296. D(C  18,C  20,C   1,C   0)    179.5032         0.026205   
    297. D(C  11,C  20,C   1,C  12)    179.3644         0.026205   
    298. D(C  18,C  20,C  11,C   2)   -179.5863         0.015853   
    299. D(C  11,C  20,C  18,C  16)   -179.2216         0.027916   
    300. D(C  11,C  20,C   1,C   0)     -1.2233         0.026205   
    301. D(C  11,C  20,C  18,H  19)      0.7225         0.027916   
    302. D(C  24,C  22,C  21,C  67)   -175.5247         0.026785   
    303. D(C  24,C  22,C  21,C  27)     -0.0043         0.026785   
    304. D(H  23,C  22,C  21,C  67)      3.9695         0.026785   
    305. D(H  23,C  22,C  21,C  27)    179.4899         0.026785   
    306. D(C  30,C  24,C  22,H  23)   -179.1776         0.028449   
    307. D(C  30,C  24,C  22,C  21)      0.3181         0.028449   
    308. D(C  25,C  24,C  22,H  23)      0.2393         0.028449   
    309. D(C  25,C  24,C  22,C  21)    179.7350         0.028449   
    310. D(C  28,C  27,C  21,C  67)    175.0415         0.025094   
    311. D(C  28,C  27,C  21,C  22)     -0.2043         0.025094   
    312. D(C   0,C  27,C  21,C  67)    -11.2505         0.025094   
    313. D(C   0,C  27,C  21,C  22)    173.5036         0.025094   
    314. D(C  28,C  27,C   0,C  61)   -155.1895         0.010123   
    315. D(C  28,C  27,C   0,C   2)    -31.2027         0.010123   
    316. D(C  28,C  27,C   0,C   1)     76.6643         0.010123   
    317. D(C  21,C  27,C   0,C   2)    155.0180         0.010123   
    318. D(C  21,C  27,C   0,C   1)    -97.1150         0.010123   
    319. D(C  21,C  27,C   0,C  61)     31.0312         0.010123   
    320. D(C  30,C  28,C  27,C  21)      0.1006         0.026035   
    321. D(H  29,C  28,C  27,C  21)    179.9122         0.026035   
    322. D(H  29,C  28,C  27,C   0)      5.6229         0.026035   
    323. D(C  30,C  28,C  27,C   0)   -174.1887         0.026035   
    324. D(C  31,C  30,C  28,H  29)      0.5517         0.028045   
    325. D(C  31,C  30,C  28,C  27)   -179.6326         0.028045   
    326. D(C  24,C  30,C  28,H  29)   -179.6018         0.028045   
    327. D(C  24,C  30,C  28,C  27)      0.2139         0.028045   
    328. D(C  31,C  30,C  24,C  25)      0.0244         0.025760   
    329. D(C  31,C  30,C  24,C  22)    179.4289         0.025760   
    330. D(C  28,C  30,C  24,C  25)   -179.8201         0.025760   
    331. D(C  28,C  30,C  24,C  22)     -0.4156         0.025760   
    332. D(C  39,C  36,C  35,C  37)      2.1903         0.028441   
    333. D(C  39,C  36,C  35,H  33)   -178.7828         0.028441   
    334. D(H  34,C  36,C  35,C  37)   -178.9199         0.028441   
    335. D(H  34,C  36,C  35,H  33)      0.1070         0.028441   
    336. D(C  41,C  37,C  35,C  36)     -0.3614         0.028387   
    337. D(C  41,C  37,C  35,H  33)   -179.4056         0.028387   
    338. D(H  38,C  37,C  35,C  36)    178.9758         0.028387   
    339. D(H  38,C  37,C  35,H  33)     -0.0683         0.028387   
    340. D(C  42,C  39,C  36,C  35)     -0.5863         0.027785   
    341. D(C  42,C  39,C  36,H  34)   -179.4829         0.027785   
    342. D(H  40,C  39,C  36,C  35)    178.0359         0.027785   
    343. D(H  40,C  39,C  36,H  34)     -0.8608         0.027785   
    344. D(N  43,C  41,C  37,H  38)     -2.3557         0.026195   
    345. D(N  43,C  41,C  37,C  35)    176.9660         0.026195   
    346. D(C  42,C  41,C  37,H  38)    177.5989         0.026195   
    347. D(C  42,C  41,C  37,C  35)     -3.0794         0.026195   
    348. D(C  54,C  42,C  41,N  43)      9.9404         0.024702   
    349. D(C  39,C  42,C  41,N  43)   -175.4568         0.024702   
    350. D(C  39,C  42,C  41,C  37)      4.5869         0.024702   
    351. D(C  54,C  42,C  39,H  40)     -7.1162         0.027541   
    352. D(C  54,C  42,C  39,C  36)    171.4926         0.027541   
    353. D(C  41,C  42,C  39,H  40)    178.6035         0.027541   
    354. D(C  41,C  42,C  39,C  36)     -2.7877         0.027541   
    355. D(C  54,C  42,C  41,C  37)   -170.0159         0.024702   
    356. D(C  57,N  43,C  41,C  42)   -168.8740         0.022880   
    357. D(C  57,N  43,C  41,C  37)     11.0814         0.022880   
    358. D(C  45,N  43,C  41,C  42)     27.1238         0.022880   
    359. D(C  45,N  43,C  41,C  37)   -152.9208         0.022880   
    360. D(N  43,C  45,C  44,C  47)    176.6797         0.025122   
    361. D(C  48,C  45,N  43,C  57)    -12.2501         0.023588   
    362. D(C  48,C  45,N  43,C  41)    151.9734         0.023588   
    363. D(C  44,C  45,N  43,C  57)    167.9635         0.023588   
    364. D(C  44,C  45,N  43,C  41)    -27.8130         0.023588   
    365. D(C  48,C  45,C  44,C  54)    171.4200         0.025122   
    366. D(C  48,C  45,C  44,C  47)     -3.1089         0.025122   
    367. D(N  43,C  45,C  44,C  54)     -8.7914         0.025122   
    368. D(C  49,C  47,C  44,C  54)   -171.8375         0.027577   
    369. D(C  49,C  47,C  44,C  45)      2.3358         0.027577   
    370. D(H  46,C  47,C  44,C  54)      6.7462         0.027577   
    371. D(H  46,C  47,C  44,C  45)   -179.0805         0.027577   
    372. D(H  51,C  48,C  45,C  44)   -179.0514         0.026179   
    373. D(H  51,C  48,C  45,N  43)      1.1655         0.026179   
    374. D(C  50,C  48,C  45,C  44)      1.5694         0.026179   
    375. D(C  50,C  48,C  45,N  43)   -178.2137         0.026179   
    376. D(H  52,C  49,C  47,H  46)      0.6278         0.027729   
    377. D(H  52,C  49,C  47,C  44)    179.2261         0.027729   
    378. D(C  50,C  49,C  47,H  46)   -178.5798         0.027729   
    379. D(C  50,C  49,C  47,C  44)      0.0185         0.027729   
    380. D(H  53,C  50,C  49,H  52)      0.0211         0.028370   
    381. D(H  53,C  50,C  49,C  47)    179.2246         0.028370   
    382. D(C  48,C  50,C  49,H  52)    179.1618         0.028370   
    383. D(C  48,C  50,C  49,C  47)     -1.6347         0.028370   
    384. D(H  53,C  50,C  48,H  51)      0.6070         0.028331   
    385. D(H  53,C  50,C  48,C  45)    179.9921         0.028331   
    386. D(C  49,C  50,C  48,H  51)   -178.5429         0.028331   
    387. D(C  49,C  50,C  48,C  45)      0.8422         0.028331   
    388. D(C  56,C  54,C  44,C  47)     98.6570         0.011567   
    389. D(C  56,C  54,C  44,C  45)    -75.5558         0.011567   
    390. D(C  55,C  54,C  44,C  47)    -20.0983         0.011567   
    391. D(C  55,C  54,C  44,C  45)    165.6888         0.011567   
    392. D(C  42,C  54,C  44,C  47)   -144.7503         0.011567   
    393. D(C  42,C  54,C  44,C  45)     41.0368         0.011567   
    394. D(C  56,C  54,C  42,C  41)     74.6741         0.011328   
    395. D(C  56,C  54,C  42,C  39)    -99.6388         0.011328   
    396. D(C  55,C  54,C  42,C  41)   -166.1395         0.011328   
    397. D(C  55,C  54,C  42,C  39)     19.5476         0.011328   
    398. D(C  44,C  54,C  42,C  41)    -41.6895         0.011328   
    399. D(C  44,C  54,C  42,C  39)    143.9976         0.011328   
    400. D(H  77,C  55,C  54,C  44)     60.7677         0.011558   
    401. D(H  77,C  55,C  54,C  42)   -177.1918         0.011558   
    402. D(H  76,C  55,C  54,C  56)     59.6213         0.011558   
    403. D(H  76,C  55,C  54,C  44)    178.2826         0.011558   
    404. D(H  76,C  55,C  54,C  42)    -59.6769         0.011558   
    405. D(H  75,C  55,C  54,C  56)   -179.0086         0.011558   
    406. D(H  75,C  55,C  54,C  44)    -60.3473         0.011558   
    407. D(H  77,C  55,C  54,C  56)    -57.8936         0.011558   
    408. D(H  75,C  55,C  54,C  42)     61.6931         0.011558   
    409. D(H  74,C  56,C  54,C  55)    -59.8269         0.010122   
    410. D(H  74,C  56,C  54,C  44)    178.7052         0.010122   
    411. D(H  74,C  56,C  54,C  42)     62.2507         0.010122   
    412. D(H  73,C  56,C  54,C  55)     60.1085         0.010122   
    413. D(H  73,C  56,C  54,C  44)    -61.3594         0.010122   
    414. D(H  73,C  56,C  54,C  42)   -177.8138         0.010122   
    415. D(H  72,C  56,C  54,C  55)   -179.9486         0.010122   
    416. D(H  72,C  56,C  54,C  44)     58.5836         0.010122   
    417. D(H  72,C  56,C  54,C  42)    -57.8709         0.010122   
    418. D(C  62,C  57,N  43,C  45)     93.1149         0.020498   
    419. D(C  62,C  57,N  43,C  41)    -70.9449         0.020498   
    420. D(C  58,C  57,N  43,C  45)    -87.0956         0.020498   
    421. D(C  58,C  57,N  43,C  41)    108.8445         0.020498   
    422. D(H  64,C  58,C  57,C  62)   -179.6293         0.027767   
    423. D(H  64,C  58,C  57,N  43)      0.5782         0.027767   
    424. D(C  59,C  58,C  57,C  62)     -0.7572         0.027767   
    425. D(C  59,C  58,C  57,N  43)    179.4503         0.027767   
    426. D(H  65,C  59,C  58,H  64)      1.2106         0.029790   
    427. D(H  65,C  59,C  58,C  57)   -177.6517         0.029790   
    428. D(C  60,C  59,C  58,H  64)   -178.5426         0.029790   
    429. D(C  60,C  59,C  58,C  57)      2.5951         0.029790   
    430. D(C  66,C  60,C  59,H  65)      3.2620         0.025331   
    431. D(C  66,C  60,C  59,C  58)   -176.9834         0.025331   
    432. D(C  61,C  60,C  59,H  65)    179.7453         0.025331   
    433. D(C  61,C  60,C  59,C  58)     -0.5001         0.025331   
    434. D(C  62,C  61,C  60,C  66)    172.8947         0.025751   
    435. D(C  62,C  61,C  60,C  59)     -3.3006         0.025751   
    436. D(C   0,C  61,C  60,C  66)    -13.4351         0.025751   
    437. D(C   0,C  61,C  60,C  59)    170.3696         0.025751   
    438. D(C  62,C  61,C   0,C  27)   -178.9673         0.009610   
    439. D(C  62,C  61,C   0,C   2)     54.7425         0.009610   
    440. D(C  62,C  61,C   0,C   1)    -52.8743         0.009610   
    441. D(C  60,C  61,C   0,C  27)      7.1309         0.009610   
    442. D(C  60,C  61,C   0,C   2)   -119.1593         0.009610   
    443. D(C  60,C  61,C   0,C   1)    133.2239         0.009610   
    444. D(H  63,C  62,C  61,C  60)   -177.1330         0.025537   
    445. D(H  63,C  62,C  61,C   0)      8.2184         0.025537   
    446. D(C  57,C  62,C  61,C  60)      5.2498         0.025537   
    447. D(C  57,C  62,C  61,C   0)   -169.3988         0.025537   
    448. D(H  63,C  62,C  57,C  58)    179.1009         0.029551   
    449. D(H  63,C  62,C  57,N  43)     -1.1082         0.029551   
    450. D(C  61,C  62,C  57,C  58)     -3.2235         0.029551   
    451. D(C  61,C  62,C  57,N  43)    176.5675         0.029551   
    452. D(H  69,C  66,C  60,C  61)     83.6226         0.012715   
    453. D(H  69,C  66,C  60,C  59)   -100.1071         0.012715   
    454. D(H  68,C  66,C  60,C  61)   -160.3845         0.012715   
    455. D(H  68,C  66,C  60,C  59)     15.8858         0.012715   
    456. D(C  67,C  66,C  60,C  61)    -39.8775         0.012715   
    457. D(C  67,C  66,C  60,C  59)    136.3929         0.012715   
    458. D(H  71,C  67,C  66,H  68)    -33.8004         0.011502   
    459. D(H  71,C  67,C  66,C  60)   -153.7014         0.011502   
    460. D(H  70,C  67,C  66,H  69)   -162.2798         0.011502   
    461. D(H  70,C  67,C  66,C  60)    -37.5590         0.011502   
    462. D(C  21,C  67,C  66,H  69)    -38.4947         0.011502   
    463. D(C  21,C  67,C  66,H  68)   -153.8729         0.011502   
    464. D(C  21,C  67,C  66,C  60)     86.2261         0.011502   
    465. D(H  71,C  67,C  21,C  27)   -177.1923         0.013034   
    466. D(H  71,C  67,C  21,C  22)     -1.8394         0.013034   
    467. D(H  70,C  67,C  66,H  68)     82.3420         0.011502   
    468. D(H  70,C  67,C  21,C  27)     65.8892         0.013034   
    469. D(H  70,C  67,C  21,C  22)   -118.7579         0.013034   
    470. D(C  66,C  67,C  21,C  27)    -56.5099         0.013034   
    471. D(H  71,C  67,C  66,H  69)     81.5778         0.011502   
    472. D(C  66,C  67,C  21,C  22)    118.8430         0.013034   
    -----------------------------------------------------------------

Number of atoms                         .... 78
Number of degrees of freedom            .... 472

         *************************************************************
         *                GEOMETRY OPTIMIZATION CYCLE   1            *
         *************************************************************
---------------------------------
CARTESIAN COORDINATES (ANGSTROEM)
---------------------------------
  C      0.125933   -4.585641    1.066623
  C      0.004270   -4.443035    2.585312
  C      1.585455   -4.173660    0.871239
  C      2.291783   -4.138007   -0.313929
  H      1.817554   -4.398085   -1.252640
  C      3.630187   -3.767981   -0.277695
  H      4.201357   -3.730295   -1.195872
  C      4.241552   -3.448899    0.930010
  H      5.286260   -3.168448    0.941802
  C      3.528974   -3.489377    2.119411
  H      4.015570   -3.247772    3.055400
  C      2.190966   -3.852185    2.083553
  C     -1.104677   -4.682663    3.369949
  H     -2.035002   -5.023859    2.932912
  C     -1.008544   -4.477729    4.739893
  H     -1.867072   -4.661323    5.371903
  C      0.183159   -4.039115    5.305397
  H      0.241906   -3.884325    6.374322
  C      1.297321   -3.799671    4.514749
  H      2.222551   -3.461118    4.962945
  C      1.201745   -4.002977    3.147165
  C     -2.116224   -3.771602    0.006424
  C     -2.906722   -2.701664   -0.400768
  H     -3.910738   -2.896022   -0.755007
  C     -2.451607   -1.395347   -0.379053
  C     -3.305715   -0.340234   -0.813968
  N     -4.017542    0.490372   -1.171662
  C     -0.812188   -3.535679    0.456630
  C     -0.360050   -2.216218    0.470995
  H      0.640047   -1.993715    0.813046
  C     -1.149362   -1.153508    0.062640
  C     -0.621214    0.170437    0.095662
  N     -0.183969    1.234476    0.124800
  H      5.658579   -6.262964    0.228211
  H      7.352242   -7.800325    1.208194
  C      5.355110   -7.176801    0.722165
  C      6.297200   -8.031699    1.266024
  C      4.005813   -7.467994    0.819317
  H      3.292848   -6.773018    0.399566
  C      5.874371   -9.206350    1.869202
  H      6.619238   -9.883908    2.262971
  C      3.583762   -8.631506    1.460827
  C      4.530260   -9.541050    1.952179
  N      2.226284   -8.932868    1.635819
  C      2.755135  -10.668377    3.215097
  C      1.840727   -9.735569    2.712916
  H      3.089321  -12.129635    4.742768
  C      2.393265  -11.413545    4.328136
  C      0.575692   -9.615501    3.286415
  C      1.142517  -11.286958    4.913577
  C      0.230278  -10.396000    4.375934
  H     -0.139234   -8.906886    2.891892
  H      0.882562  -11.889641    5.773308
  H     -0.755150  -10.292126    4.811019
  C      4.032701  -10.892674    2.432044
  C      5.080619  -11.648935    3.241240
  C      3.682981  -11.744130    1.192405
  C      1.237318   -8.177906    0.960083
  C      0.523295   -8.746949   -0.083475
  C     -0.440269   -7.990238   -0.713408
  C     -0.689222   -6.655956   -0.376987
  C      0.059461   -6.067273    0.644031
  C      0.975001   -6.874385    1.324402
  H      1.540537   -6.467850    2.152414
  H      0.711767   -9.770689   -0.378991
  H     -1.028408   -8.440739   -1.503882
  C     -1.816643   -5.976769   -1.100000
  C     -2.686483   -5.146892   -0.161029
  H     -2.430408   -6.745948   -1.571868
  H     -1.452827   -5.345226   -1.916062
  H     -2.789173   -5.665355    0.795818
  H     -3.694625   -5.062212   -0.568850
  H      2.935474  -11.259502    0.565263
  H      3.283859  -12.712586    1.499204
  H      4.571670  -11.913694    0.582021
  H      5.365058  -11.111905    4.146760
  H      5.978666  -11.825619    2.649896
  H      4.712335  -12.633633    3.528980

----------------------------
CARTESIAN COORDINATES (A.U.)
----------------------------
  NO LB      ZA    FRAG     MASS         X           Y           Z
   0 C     6.0000    0    12.011    0.237979   -8.665605    2.015626
   1 C     6.0000    0    12.011    0.008069   -8.396120    4.885532
   2 C     6.0000    0    12.011    2.996076   -7.887074    1.646404
   3 C     6.0000    0    12.011    4.330842   -7.819699   -0.593240
   4 H     1.0000    0     1.008    3.434680   -8.311177   -2.367146
   5 C     6.0000    0    12.011    6.860058   -7.120452   -0.524767
   6 H     1.0000    0     1.008    7.939414   -7.049235   -2.259871
   7 C     6.0000    0    12.011    8.015371   -6.517474    1.757464
   8 H     1.0000    0     1.008    9.989584   -5.987500    1.779747
   9 C     6.0000    0    12.011    6.668795   -6.593968    4.005107
  10 H     1.0000    0     1.008    7.588328   -6.137400    5.773869
  11 C     6.0000    0    12.011    4.140326   -7.279574    3.937344
  12 C     6.0000    0    12.011   -2.087536   -8.848951    6.368281
  13 H     1.0000    0     1.008   -3.845597   -9.493717    5.542400
  14 C     6.0000    0    12.011   -1.905872   -8.461681    8.957100
  15 H     1.0000    0     1.008   -3.528254   -8.808624   10.151426
  16 C     6.0000    0    12.011    0.346120   -7.632821   10.025748
  17 H     1.0000    0     1.008    0.457136   -7.340310   12.045723
  18 C     6.0000    0    12.011    2.451582   -7.180337    8.531639
  19 H     1.0000    0     1.008    4.200013   -6.540565    9.378606
  20 C     6.0000    0    12.011    2.270970   -7.564531    5.947279
  21 C     6.0000    0    12.011   -3.999085   -7.127295    0.012140
  22 C     6.0000    0    12.011   -5.492908   -5.105405   -0.757342
  23 H     1.0000    0     1.008   -7.390223   -5.472689   -1.426757
  24 C     6.0000    0    12.011   -4.632866   -2.636823   -0.716306
  25 C     6.0000    0    12.011   -6.246896   -0.642948   -1.538176
  26 N     7.0000    0    14.007   -7.592055    0.926669   -2.214120
  27 C     6.0000    0    12.011   -1.534812   -6.681464    0.862905
  28 C     6.0000    0    12.011   -0.680397   -4.188045    0.890051
  29 H     1.0000    0     1.008    1.209514   -3.767576    1.536434
  30 C     6.0000    0    12.011   -2.171979   -2.179814    0.118373
  31 C     6.0000    0    12.011   -1.173924    0.322080    0.180775
  32 N     7.0000    0    14.007   -0.347651    2.332821    0.235838
  33 H     1.0000    0     1.008   10.693165  -11.835286    0.431256
  34 H     1.0000    0     1.008   13.893725  -14.740478    2.283156
  35 C     6.0000    0    12.011   10.119690  -13.562188    1.364694
  36 C     6.0000    0    12.011   11.899984  -15.177712    2.392439
  37 C     6.0000    0    12.011    7.569890  -14.112463    1.548285
  38 H     1.0000    0     1.008    6.222581  -12.799150    0.755070
  39 C     6.0000    0    12.011   11.100952  -17.397480    3.532279
  40 H     1.0000    0     1.008   12.508548  -18.677879    4.276396
  41 C     6.0000    0    12.011    6.772329  -16.311182    2.760563
  42 C     6.0000    0    12.011    8.560951  -18.029972    3.689083
  43 N     7.0000    0    14.007    4.207067  -16.880674    3.091249
  44 C     6.0000    0    12.011    5.206450  -20.160310    6.075652
  45 C     6.0000    0    12.011    3.478470  -18.397559    5.126669
  46 H     1.0000    0     1.008    5.837971  -22.921689    8.962533
  47 C     6.0000    0    12.011    4.522616  -21.568474    8.178993
  48 C     6.0000    0    12.011    1.087900  -18.170664    6.210425
  49 C     6.0000    0    12.011    2.159044  -21.329259    9.285315
  50 C     6.0000    0    12.011    0.435163  -19.645592    8.269317
  51 H     1.0000    0     1.008   -0.263115  -16.831576    5.464884
  52 H     1.0000    0     1.008    1.667801  -22.468165   10.909971
  53 H     1.0000    0     1.008   -1.427026  -19.449300    9.091508
  54 C     6.0000    0    12.011    7.620701  -20.584171    4.595898
  55 C     6.0000    0    12.011    9.600978  -22.013296    6.125057
  56 C     6.0000    0    12.011    6.959826  -22.193189    2.253319
  57 C     6.0000    0    12.011    2.338193  -15.454003    1.814295
  58 C     6.0000    0    12.011    0.988884  -16.529339   -0.157746
  59 C     6.0000    0    12.011   -0.831988  -15.099361   -1.348146
  60 C     6.0000    0    12.011   -1.302442  -12.577933   -0.712401
  61 C     6.0000    0    12.011    0.112364  -11.465485    1.217043
  62 C     6.0000    0    12.011    1.842484  -12.990706    2.502757
  63 H     1.0000    0     1.008    2.911193  -12.222464    4.067473
  64 H     1.0000    0     1.008    1.345044  -18.463926   -0.716189
  65 H     1.0000    0     1.008   -1.943410  -15.950685   -2.841926
  66 C     6.0000    0    12.011   -3.432957  -11.294457   -2.078698
  67 C     6.0000    0    12.011   -5.076718   -9.726216   -0.304301
  68 H     1.0000    0     1.008   -4.592806  -12.747994   -2.970401
  69 H     1.0000    0     1.008   -2.745444  -10.101013   -3.620832
  70 H     1.0000    0     1.008   -5.270773  -10.705969    1.503877
  71 H     1.0000    0     1.008   -6.981829   -9.566194   -1.074970
  72 H     1.0000    0     1.008    5.547241  -21.277375    1.068193
  73 H     1.0000    0     1.008    6.205594  -24.023305    2.833085
  74 H     1.0000    0     1.008    8.639204  -22.513618    1.099860
  75 H     1.0000    0     1.008   10.138491  -20.998458    7.836241
  76 H     1.0000    0     1.008   11.298041  -22.347182    5.007578
  77 H     1.0000    0     1.008    8.905024  -23.874107    6.668806

--------------------------------
INTERNAL COORDINATES (ANGSTROEM)
--------------------------------
 C      0   0   0     0.000000000000     0.00000000     0.00000000
 C      1   0   0     1.530213931017     0.00000000     0.00000000
 C      1   2   0     1.529087123481   100.22981154     0.00000000
 C      3   1   2     1.380142852898   127.24196811   178.24798137
 H      4   3   1     1.083379514364   120.91969146     1.41547433
 C      4   3   1     1.389085010302   118.52797363   181.78414067
 H      6   4   3     1.081991665076   119.72056535   180.20573139
 C      6   4   3     1.390730335790   120.48615860     0.35791733
 H      8   6   4     1.081761153611   119.57025907   179.63257174
 C      8   6   4     1.387112219185   120.80357863   359.80393397
 H     10   8   6     1.082230831498   120.27193294   179.46335054
 C     10   8   6     1.386787906976   118.75765000   359.87405128
 C      2   1   3     1.379434546270   127.75269767   180.07661810
 H     13   2   1     1.083015053516   121.04857215     0.64879695
 C     13   2   1     1.388519535758   118.67913094   180.65526415
 H     15  13   2     1.081764025315   119.76399353   180.07083883
 C     15  13   2     1.390083565609   120.48374569     0.03131719
 H     17  15  13     1.081670862224   119.58624617   180.00673908
 C     17  15  13     1.387016943732   120.74483816   359.92181426
 H     19  17  15     1.082380487494   120.30521552   180.18419326
 C     19  17  15     1.385913145127   118.80145949     0.12862637
 C      1   2   3     2.610354615136   107.80255296   218.01006001
 C     22   1   2     1.391207765041   147.86240168    80.30952045
 H     23  22   1     1.082270458239   119.00016544   185.32442653
 C     23  22   1     1.383497268053   122.32059095     5.83024715
 C     25  23  22     1.425452586892   119.80215113   179.73499989
 N     26  25  23     1.150890566803   178.43359435   358.79706794
 C     22   1   2     1.399591766521    28.55204362    90.96674646
 C     28  22   1     1.394851261875   117.69626983   186.29202294
 H     29  28  22     1.080139852066   119.88420453   179.91217468
 C     29  28  22     1.385322904771   122.54314685     0.10064540
 C     31  29  28     1.425784415380   119.63312614   180.36738127
 N     32  31  29     1.150743396393   179.39614600     8.79011137
 H      9   8   6     3.197476798231    81.90095089   290.04468167
 H     34   9   8     2.488441760216   126.10522686   223.05765569
 C     34   9   8     1.082212431814   133.05577664   302.48938920
 C     35  34   9     1.081661687556    59.29247165   123.40317857
 C     36  34   9     1.383774815727   118.89250588    66.46878373
 H     38  36  34     1.080509513946   118.73618081   359.93167896
 C     37  35  34     1.386511085160   120.12802393   178.83223848
 H     40  37  35     1.081187539813   118.63737527   359.13922600
 C     38  36  34     1.394066453366   120.20820795   180.59439410
 C     40  37  35     1.387639237087   121.71888665   180.51706932
 N     42  38  36     1.401495307529   122.01652779   176.96602297
 C     44  42  38     2.405367248752    91.38488188   193.29053729
 C     44  42  38     1.397541438534   119.14061236   207.07919755
 H     45  44  42     2.140266145581   174.61205743   130.23418841
 C     47  45  46     1.081295320403    34.27265935     1.39022019
 C     46  44  42     1.394141677418   121.19210966   151.97336006
 C     48  47  45     1.386772187705   118.63017288   178.62655775
 C     50  48  47     1.383851547910   119.29449032   181.42016969
 H     49  46  44     1.081158268199   120.42165080     1.16548862
 H     50  48  47     1.081637989280   120.09596747     0.62778385
 H     51  50  48     1.082200043866   120.38816092   179.22461443
 C     45  44  42     1.515142430441    87.29895753   328.15374755
 C     55  45  44     1.524748693050   112.25029310   161.21353475
 C     55  45  44     1.544015929291   107.79348735   279.96885960
 C     44  42  38     1.415852646435   120.15277891    11.08137604
 C     58  44  42     1.386598050954   120.00333169   108.84451829
 C     59  58  44     1.377636965325   118.61252796   179.45034108
 C     60  59  58     1.398379854298   122.58962025     2.59512262
 C     61  60  59     1.396263038254   118.86521345   359.49987024
 C     58  44  42     1.378660480610   120.72659414   289.05509075
 H     63  58  44     1.081992070995   117.25983421   358.89182845
 H     59  58  44     1.082078104272   120.27212734     0.57823971
 H     60  59  58     1.083378056256   119.00776247   182.34827422
 C     61  60  59     1.501705116273   116.70350176   183.01655214
 C     22   1   2     1.498218304367    94.93749288   261.51913622
 H     67  61  60     1.091331424413   108.15771879    15.88583104
 H     67  61  60     1.094151353657   111.74718613   259.89292936
 H     68  22   1     1.093116786527   111.91949555    60.51872072
 H     68  22   1     1.090796671527   108.80258179   177.43722107
 H     57  55  45     1.089467401219   111.85543649    58.58357351
 H     57  55  45     1.091481268010   110.27027376   298.64063204
 H     57  55  45     1.091369920840   110.50394887   178.70521649
 H     56  55  45     1.090537637368   112.06630573   299.65269424
 H     56  55  45     1.089675877786   111.02821927   178.28264384
 H     56  55  45     1.089980675622   110.85262723    60.76773843

---------------------------
INTERNAL COORDINATES (A.U.)
---------------------------
 C      0   0   0     0.000000000000     0.00000000     0.00000000
 C      1   0   0     2.891685255932     0.00000000     0.00000000
 C      1   2   0     2.889555898284   100.22981154     0.00000000
 C      3   1   2     2.608092017666   127.24196811   178.24798137
 H      4   3   1     2.047290581248   120.91969146     1.41547433
 C      4   3   1     2.624990246206   118.52797363   181.78414067
 H      6   4   3     2.044667926179   119.72056535   180.20573139
 C      6   4   3     2.628099460779   120.48615860     0.35791733
 H      8   6   4     2.044232322639   119.57025907   179.63257174
 C      8   6   4     2.621262211275   120.80357863   359.80393397
 H     10   8   6     2.045119885218   120.27193294   179.46335054
 C     10   8   6     2.620649350018   118.75765000   359.87405128
 C      2   1   3     2.606753512120   127.75269767   180.07661810
 H     13   2   1     2.046601850060   121.04857215     0.64879695
 C     13   2   1     2.623921654182   118.67913094   180.65526415
 H     15  13   2     2.044237749374   119.76399353   180.07083883
 C     15  13   2     2.626877242265   120.48374569     0.03131719
 H     17  15  13     2.044061696646   119.58624617   180.00673908
 C     17  15  13     2.621082166761   120.74483816   359.92181426
 H     19  17  15     2.045402694064   120.30521552   180.18419326
 C     19  17  15     2.618996289692   118.80145949     0.12862637
 C      1   2   3     4.932855335024   107.80255296   218.01006001
 C     22   1   2     2.629001671312   147.86240168    80.30952045
 H     23  22   1     2.045194768905   119.00016544   185.32442653
 C     23  22   1     2.614430943649   122.32059095     5.83024715
 C     25  23  22     2.693715006116   119.80215113   179.73499989
 N     26  25  23     2.174867981370   178.43359435   358.79706794
 C     22   1   2     2.644845138016    28.55204362    90.96674646
 C     28  22   1     2.635886882499   117.69626983   186.29202294
 H     29  28  22     2.041168506739   119.88420453   179.91217468
 C     29  28  22     2.617880897066   122.54314685     0.10064540
 C     31  29  28     2.694342071081   119.63312614   180.36738127
 N     32  31  29     2.174589869600   179.39614600     8.79011137
 H      9   8   6     6.042355468223    81.90095089   290.04468167
 H     34   9   8     4.702473427021   126.10522686   223.05765569
 C     34   9   8     2.045085114854   133.05577664   302.48938920
 C     35  34   9     2.044044359036    59.29247165   123.40317857
 C     36  34   9     2.614955432741   118.89250588    66.46878373
 H     38  36  34     2.041867066454   118.73618081   359.93167896
 C     37  35  34     2.620126232598   120.12802393   178.83223848
 H     40  37  35     2.043148349654   118.63737527   359.13922600
 C     38  36  34     2.634403809350   120.20820795   180.59439410
 C     40  37  35     2.622258130779   121.71888665   180.51706932
 N     42  38  36     2.648442309206   122.01652779   176.96602297
 C     44  42  38     4.545485351644    91.38488188   193.29053729
 C     44  42  38     2.640970579635   119.14061236   207.07919755
 H     45  44  42     4.044516868852   174.61205743   130.23418841
 C     47  45  46     2.043352025452    34.27265935     1.39022019
 C     46  44  42     2.634545962205   121.19210966   151.97336006
 C     48  47  45     2.620619644902   118.63017288   178.62655775
 C     50  48  47     2.615100435553   119.29449032   181.42016969
 H     49  46  44     2.043093034322   120.42165080     1.16548862
 H     50  48  47     2.043999575784   120.09596747     0.62778385
 H     51  50  48     2.045061705025   120.38816092   179.22461443
 C     45  44  42     2.863204247418    87.29895753   328.15374755
 C     55  45  44     2.881357452918   112.25029310   161.21353475
 C     55  45  44     2.917767252772   107.79348735   279.96885960
 C     44  42  38     2.675573747750   120.15277891    11.08137604
 C     58  44  42     2.620290574131   120.00333169   108.84451829
 C     59  58  44     2.603356576431   118.61252796   179.45034108
 C     60  59  58     2.642554955816   122.58962025     2.59512262
 C     61  60  59     2.638554753216   118.86521345   359.49987024
 C     58  44  42     2.605290740013   120.72659414   289.05509075
 H     63  58  44     2.044668693255   117.25983421   358.89182845
 H     59  58  44     2.044831272587   120.27212734     0.57823971
 H     60  59  58     2.047287825824   119.00776247   182.34827422
 C     61  60  59     2.837811403665   116.70350176   183.01655214
 C     22   1   2     2.831222284081    94.93749288   261.51913622
 H     67  61  60     2.062317513483   108.15771879    15.88583104
 H     67  61  60     2.067646407471   111.74718613   259.89292936
 H     68  22   1     2.065691358928   111.91949555    60.51872072
 H     68  22   1     2.061306976979   108.80258179   177.43722107
 H     57  55  45     2.058795020138   111.85543649    58.58357351
 H     57  55  45     2.062600676843   110.27027376   298.64063204
 H     57  55  45     2.062390261188   110.50394887   178.70521649
 H     56  55  45     2.060817473360   112.06630573   299.65269424
 H     56  55  45     2.059188983755   111.02821927   178.28264384
 H     56  55  45     2.059764968191   110.85262723    60.76773843

---------------------
BASIS SET INFORMATION
---------------------
There are 3 groups of distinct atoms

 Group   1 Type C   : 8s4p1d contracted to 4s2p1d pattern {5111/31/1}
 Group   2 Type H   : 4s contracted to 2s pattern {31}
 Group   3 Type N   : 8s4p1d contracted to 4s2p1d pattern {5111/31/1}

Atom   0C    basis set group =>   1
Atom   1C    basis set group =>   1
Atom   2C    basis set group =>   1
Atom   3C    basis set group =>   1
Atom   4H    basis set group =>   2
Atom   5C    basis set group =>   1
Atom   6H    basis set group =>   2
Atom   7C    basis set group =>   1
Atom   8H    basis set group =>   2
Atom   9C    basis set group =>   1
Atom  10H    basis set group =>   2
Atom  11C    basis set group =>   1
Atom  12C    basis set group =>   1
Atom  13H    basis set group =>   2
Atom  14C    basis set group =>   1
Atom  15H    basis set group =>   2
Atom  16C    basis set group =>   1
Atom  17H    basis set group =>   2
Atom  18C    basis set group =>   1
Atom  19H    basis set group =>   2
Atom  20C    basis set group =>   1
Atom  21C    basis set group =>   1
Atom  22C    basis set group =>   1
Atom  23H    basis set group =>   2
Atom  24C    basis set group =>   1
Atom  25C    basis set group =>   1
Atom  26N    basis set group =>   3
Atom  27C    basis set group =>   1
Atom  28C    basis set group =>   1
Atom  29H    basis set group =>   2
Atom  30C    basis set group =>   1
Atom  31C    basis set group =>   1
Atom  32N    basis set group =>   3
Atom  33H    basis set group =>   2
Atom  34H    basis set group =>   2
Atom  35C    basis set group =>   1
Atom  36C    basis set group =>   1
Atom  37C    basis set group =>   1
Atom  38H    basis set group =>   2
Atom  39C    basis set group =>   1
Atom  40H    basis set group =>   2
Atom  41C    basis set group =>   1
Atom  42C    basis set group =>   1
Atom  43N    basis set group =>   3
Atom  44C    basis set group =>   1
Atom  45C    basis set group =>   1
Atom  46H    basis set group =>   2
Atom  47C    basis set group =>   1
Atom  48C    basis set group =>   1
Atom  49C    basis set group =>   1
Atom  50C    basis set group =>   1
Atom  51H    basis set group =>   2
Atom  52H    basis set group =>   2
Atom  53H    basis set group =>   2
Atom  54C    basis set group =>   1
Atom  55C    basis set group =>   1
Atom  56C    basis set group =>   1
Atom  57C    basis set group =>   1
Atom  58C    basis set group =>   1
Atom  59C    basis set group =>   1
Atom  60C    basis set group =>   1
Atom  61C    basis set group =>   1
Atom  62C    basis set group =>   1
Atom  63H    basis set group =>   2
Atom  64H    basis set group =>   2
Atom  65H    basis set group =>   2
Atom  66C    basis set group =>   1
Atom  67C    basis set group =>   1
Atom  68H    basis set group =>   2
Atom  69H    basis set group =>   2
Atom  70H    basis set group =>   2
Atom  71H    basis set group =>   2
Atom  72H    basis set group =>   2
Atom  73H    basis set group =>   2
Atom  74H    basis set group =>   2
Atom  75H    basis set group =>   2
Atom  76H    basis set group =>   2
Atom  77H    basis set group =>   2
-------------------------------
AUXILIARY BASIS SET INFORMATION
-------------------------------
There are 3 groups of distinct atoms

 Group   1 Type C   : 12s5p4d2f1g contracted to 6s4p3d1f1g pattern {711111/2111/211/2/1}
 Group   2 Type H   : 5s2p1d contracted to 3s1p1d pattern {311/2/1}
 Group   3 Type N   : 12s5p4d2f1g contracted to 6s4p3d1f1g pattern {711111/2111/211/2/1}

Atom   0C    basis set group =>   1
Atom   1C    basis set group =>   1
Atom   2C    basis set group =>   1
Atom   3C    basis set group =>   1
Atom   4H    basis set group =>   2
Atom   5C    basis set group =>   1
Atom   6H    basis set group =>   2
Atom   7C    basis set group =>   1
Atom   8H    basis set group =>   2
Atom   9C    basis set group =>   1
Atom  10H    basis set group =>   2
Atom  11C    basis set group =>   1
Atom  12C    basis set group =>   1
Atom  13H    basis set group =>   2
Atom  14C    basis set group =>   1
Atom  15H    basis set group =>   2
Atom  16C    basis set group =>   1
Atom  17H    basis set group =>   2
Atom  18C    basis set group =>   1
Atom  19H    basis set group =>   2
Atom  20C    basis set group =>   1
Atom  21C    basis set group =>   1
Atom  22C    basis set group =>   1
Atom  23H    basis set group =>   2
Atom  24C    basis set group =>   1
Atom  25C    basis set group =>   1
Atom  26N    basis set group =>   3
Atom  27C    basis set group =>   1
Atom  28C    basis set group =>   1
Atom  29H    basis set group =>   2
Atom  30C    basis set group =>   1
Atom  31C    basis set group =>   1
Atom  32N    basis set group =>   3
Atom  33H    basis set group =>   2
Atom  34H    basis set group =>   2
Atom  35C    basis set group =>   1
Atom  36C    basis set group =>   1
Atom  37C    basis set group =>   1
Atom  38H    basis set group =>   2
Atom  39C    basis set group =>   1
Atom  40H    basis set group =>   2
Atom  41C    basis set group =>   1
Atom  42C    basis set group =>   1
Atom  43N    basis set group =>   3
Atom  44C    basis set group =>   1
Atom  45C    basis set group =>   1
Atom  46H    basis set group =>   2
Atom  47C    basis set group =>   1
Atom  48C    basis set group =>   1
Atom  49C    basis set group =>   1
Atom  50C    basis set group =>   1
Atom  51H    basis set group =>   2
Atom  52H    basis set group =>   2
Atom  53H    basis set group =>   2
Atom  54C    basis set group =>   1
Atom  55C    basis set group =>   1
Atom  56C    basis set group =>   1
Atom  57C    basis set group =>   1
Atom  58C    basis set group =>   1
Atom  59C    basis set group =>   1
Atom  60C    basis set group =>   1
Atom  61C    basis set group =>   1
Atom  62C    basis set group =>   1
Atom  63H    basis set group =>   2
Atom  64H    basis set group =>   2
Atom  65H    basis set group =>   2
Atom  66C    basis set group =>   1
Atom  67C    basis set group =>   1
Atom  68H    basis set group =>   2
Atom  69H    basis set group =>   2
Atom  70H    basis set group =>   2
Atom  71H    basis set group =>   2
Atom  72H    basis set group =>   2
Atom  73H    basis set group =>   2
Atom  74H    basis set group =>   2
Atom  75H    basis set group =>   2
Atom  76H    basis set group =>   2
Atom  77H    basis set group =>   2


           ************************************************************
           *        Program running with 8 parallel MPI-processes     *
           *              working on a common directory               *
           ************************************************************
------------------------------------------------------------------------------
                           ORCA GTO INTEGRAL CALCULATION
                           -- RI-GTO INTEGRALS CHOSEN --
------------------------------------------------------------------------------

                         BASIS SET STATISTICS AND STARTUP INFO

Gaussian basis set:
 # of primitive gaussian shells          ...  735
 # of primitive gaussian functions       ... 1299
 # of contracted shells                  ...  391
 # of contracted basis functions         ...  767
 Highest angular momentum                ...    2
 Maximum contraction depth               ...    5
Auxiliary gaussian basis set:
 # of primitive gaussian shells          ... 1376
 # of primitive gaussian functions       ... 3786
 # of contracted shells                  ...  860
 # of contracted aux-basis functions     ... 2644
 Highest angular momentum                ...    4
 Maximum contraction depth               ...    7
Ratio of auxiliary to basis functions    ...  3.45
Integral package used                  ... LIBINT
 One Electron integrals                  ... done
 Ordering auxiliary basis shells         ... done
 Integral threshhold             Thresh  ...  2.500e-11
 Primitive cut-off               TCut    ...  2.500e-12
 Pre-screening matrix                    ... done
 Shell pair data                         ... 
 Ordering of the shell pairs             ... done (   0.008 sec) 39891 of 76636 pairs
 Determination of significant pairs      ... done (   0.000 sec)
 Creation of shell pair data             ... done (   0.008 sec)
 Storage of shell pair data              ... done (   0.008 sec)
 Shell pair data done in (   0.024 sec)
 Computing two index integrals           ... done
 Cholesky decomposition of the V-matrix  ... done


Timings:
 Total evaluation time                   ...   1.844 sec (  0.031 min)
 One electron matrix time                ...   0.541 sec (  0.009 min) = 29.3%
 Schwartz matrix evaluation time         ...   0.495 sec (  0.008 min) = 26.9%
 Two index repulsion integral time       ...   0.285 sec (  0.005 min) = 15.4%
 Cholesky decomposition of V             ...   0.477 sec (  0.008 min) = 25.9%
 Three index repulsion integral time     ...   0.000 sec (  0.000 min) =  0.0%



           ************************************************************
           *        Program running with 8 parallel MPI-processes     *
           *              working on a common directory               *
           ************************************************************
-------------------------------------------------------------------------------
                                 ORCA SCF
-------------------------------------------------------------------------------

------------
SCF SETTINGS
------------
Hamiltonian:
 Density Functional     Method          .... DFT(GTOs)
 Exchange Functional    Exchange        .... PBE
   PBE kappa parameter   XKappa         ....  1.024500
   PBE mue parameter    XMuePBE         ....  0.123457
 Correlation Functional Correlation     .... PBE
   PBE beta parameter  CBetaPBE         ....  0.030000
 LDA part of GGA corr.  LDAOpt          .... PW91-LDA
 Gradients option       PostSCFGGA      .... off
 Hybrid DFT is turned on
   Fraction HF Exchange ScalHFX         ....  0.420000
   Scaling of DF-GGA-X  ScalDFX         ....  0.580000
   Scaling of DF-GGA-C  ScalDFC         ....  1.000000
   Scaling of DF-LDA-C  ScalLDAC        ....  1.000000
   Perturbative correction              ....  0.000000
 RI-approximation to the Coulomb term is turned on
   Number of auxiliary basis functions  .... 2644
   RIJ-ON(X) (HFX calculated with O(N)) .... on


General Settings:
 Integral files         IntName         .... orca_gsopt
 Hartree-Fock type      HFTyp           .... RHF
 Total Charge           Charge          ....    0
 Multiplicity           Mult            ....    1
 Number of Electrons    NEL             ....  316
 Basis Dimension        Dim             ....  767
 Nuclear Repulsion      ENuc            ....   5567.9904035805 Eh

Convergence Acceleration:
 DIIS                   CNVDIIS         .... on
   Start iteration      DIISMaxIt       ....    12
   Startup error        DIISStart       ....  0.200000
   # of expansion vecs  DIISMaxEq       ....     5
   Bias factor          DIISBfac        ....   1.050
   Max. coefficient     DIISMaxC        ....  10.000
 Newton-Raphson         CNVNR           .... off
 SOSCF                  CNVSOSCF        .... on
   Start iteration      SOSCFMaxIt      ....   150
   Startup grad/error   SOSCFStart      ....  0.003300
 Level Shifting         CNVShift        .... on
   Level shift para.    LevelShift      ....    0.2500
   Turn off err/grad.   ShiftErr        ....    0.0010
 Zerner damping         CNVZerner       .... off
 Static damping         CNVDamp         .... on
   Fraction old density DampFac         ....    0.7000
   Max. Damping (<1)    DampMax         ....    0.9800
   Min. Damping (>=0)   DampMin         ....    0.0000
   Turn off err/grad.   DampErr         ....    0.1000
 Fernandez-Rico         CNVRico         .... off

SCF Procedure:
 Maximum # iterations   MaxIter         ....   125
 SCF integral mode      SCFMode         .... Direct
   Integral package                     .... LIBINT
 Reset frequeny         DirectResetFreq ....    20
 Integral Threshold     Thresh          ....  2.500e-11 Eh
 Primitive CutOff       TCut            ....  2.500e-12 Eh

Convergence Tolerance:
 Convergence Check Mode ConvCheckMode   .... Total+1el-Energy
 Convergence forced     ConvForced      .... 0
 Energy Change          TolE            ....  1.000e-08 Eh
 1-El. energy change                    ....  1.000e-05 Eh
 Orbital Gradient       TolG            ....  1.000e-05
 Orbital Rotation angle TolX            ....  1.000e-05
 DIIS Error             TolErr          ....  5.000e-07


Diagonalization of the overlap matrix:
Smallest eigenvalue                        ... 2.526e-04
Time for diagonalization                   ...    0.203 sec
Threshold for overlap eigenvalues          ... 1.000e-08
Number of eigenvalues below threshold      ... 0
Time for construction of square roots      ...    0.093 sec
Total time needed                          ...    0.299 sec

--------------------------------
INITIAL GUESS: MINIMAL BASIS EHT
--------------------------------
The minimal basis has 266 functions
EHT matrix was diagonalized
Basis set overlap was calculated now projecting the orbitals
Using GuessMode=FMatrix for the initial guess
C*T matrix was formed
Effective Fockian was calculated
Effective Fockian was diagonalized
Initial density was built
                      ------------------
                      INITIAL GUESS DONE
                      ------------------
-------------------
DFT GRID GENERATION
-------------------

General Integration Accuracy     IntAcc      ...  4.340
Radial Grid Type                 RadialGrid  ... Gauss-Chebyshev
Angular Grid (max. acc.)         AngularGrid ... Lebedev-194
Angular grid pruning method      GridPruning ... 3 (G Style)
Weight generation scheme         WeightScheme... Becke
Basis function cutoff            BFCut       ...    1.0000e-11
Integration weight cutoff        WCut        ...    1.0000e-14
Grids for H and He will be reduced by one unit

# of grid points (after initial pruning)     ... 201488 (   0.0 sec)
# of grid points (after weights+screening)   ... 170341 (   1.6 sec)
nearest neighbour list constructed           ...    0.0 sec
Grid point re-assignment to atoms done       ...    0.0 sec
Grid point division into batches done        ...    0.3 sec
Reduced shell lists constructed in    0.8 sec

Total number of grid points                  ...   170341
Total number of batches                      ...     2701
Average number of points per batch           ...       63
Average number of grid points per atom       ...     2184
Average number of shells per batch           ...   127.34 (32.57%)
Average number of basis functions per batch  ...   264.81 (34.53%)
Average number of large shells per batch     ...    72.99 (57.32%)
Average number of large basis fcns per batch ...   156.36 (59.05%)
Maximum spatial batch extension              ...  16.00, 19.37, 19.97 au
Average spatial batch extension              ...   0.30,  0.31,  0.32 au

[...]
      dxz     :     0.019125
      dyz     :     0.012593
      dx2y2   :     0.030513
      dxy     :     0.034975
 43 N s       :     3.026399  s :     3.026399
      pz      :     1.365196  p :     3.942246
      px      :     1.165547
      py      :     1.411504
      dz2     :     0.021125  d :     0.109376
      dxz     :     0.025411
      dyz     :     0.014324
      dx2y2   :     0.022997
      dxy     :     0.025519
 44 C s       :     2.838758  s :     2.838758
      pz      :     1.050672  p :     3.098163
      px      :     1.022825
      py      :     1.024666
      dz2     :     0.019968  d :     0.107104
      dxz     :     0.027750
      dyz     :     0.018105
      dx2y2   :     0.019345
      dxy     :     0.021936
 45 C s       :     2.812406  s :     2.812406
      pz      :     0.938727  p :     2.989893
      px      :     1.071837
      py      :     0.979328
      dz2     :     0.035142  d :     0.150536
      dxz     :     0.030938
      dyz     :     0.026556
      dx2y2   :     0.029387
      dxy     :     0.028512
 46 H s       :     0.863829  s :     0.863829
 47 C s       :     2.882704  s :     2.882704
      pz      :     1.047220  p :     3.152149
      px      :     1.074330
      py      :     1.030600
      dz2     :     0.018577  d :     0.092695
      dxz     :     0.024545
      dyz     :     0.013852
      dx2y2   :     0.014523
      dxy     :     0.021198
 48 C s       :     2.883689  s :     2.883689
      pz      :     1.067208  p :     3.191122
      px      :     1.065251
      py      :     1.058663
      dz2     :     0.015938  d :     0.088146
      dxz     :     0.023299
      dyz     :     0.013640
      dx2y2   :     0.015966
      dxy     :     0.019302
 49 C s       :     2.884954  s :     2.884954
      pz      :     1.053731  p :     3.179875
      px      :     1.079149
      py      :     1.046996
      dz2     :     0.013927  d :     0.091647
      dxz     :     0.022770
      dyz     :     0.013585
      dx2y2   :     0.020583
      dxy     :     0.020782
 50 C s       :     2.886353  s :     2.886353
      pz      :     1.048055  p :     3.148840
      px      :     1.068647
      py      :     1.032138
      dz2     :     0.019700  d :     0.093632
      dxz     :     0.021219
      dyz     :     0.016770
      dx2y2   :     0.020955
      dxy     :     0.014989
 51 H s       :     0.853555  s :     0.853555
 52 H s       :     0.866254  s :     0.866254
 53 H s       :     0.865642  s :     0.865642
 54 C s       :     2.823915  s :     2.823915
      pz      :     1.049472  p :     3.119637
      px      :     1.036442
      py      :     1.033722
      dz2     :     0.018124  d :     0.127934
      dxz     :     0.028303
      dyz     :     0.031455
      dx2y2   :     0.028468
      dxy     :     0.021583
 55 C s       :     2.945678  s :     2.945678
      pz      :     1.108261  p :     3.324878
      px      :     1.099310
      py      :     1.117307
      dz2     :     0.009965  d :     0.069374
      dxz     :     0.017443
      dyz     :     0.015862
      dx2y2   :     0.015125
      dxy     :     0.010979
 56 C s       :     2.957468  s :     2.957468
      pz      :     1.076955  p :     3.301359
      px      :     1.130598
      py      :     1.093806
      dz2     :     0.009517  d :     0.069300
      dxz     :     0.020288
      dyz     :     0.015898
      dx2y2   :     0.013074
      dxy     :     0.010524
 57 C s       :     2.813845  s :     2.813845
      pz      :     1.013948  p :     3.024179
      px      :     0.964431
      py      :     1.045800
      dz2     :     0.028975  d :     0.151836
      dxz     :     0.026594
      dyz     :     0.032476
      dx2y2   :     0.028295
      dxy     :     0.035496
 58 C s       :     2.891129  s :     2.891129
      pz      :     1.031856  p :     3.133105
      px      :     1.027915
      py      :     1.073334
      dz2     :     0.019859  d :     0.091513
      dxz     :     0.016836
      dyz     :     0.018426
      dx2y2   :     0.019817
      dxy     :     0.016575
 59 C s       :     2.885960  s :     2.885960
      pz      :     1.043593  p :     3.153645
      px      :     1.044104
      py      :     1.065948
      dz2     :     0.012403  d :     0.091340
      dxz     :     0.013739
      dyz     :     0.021135
      dx2y2   :     0.021444
      dxy     :     0.022618
 60 C s       :     2.842908  s :     2.842908
      pz      :     1.020798  p :     3.093941
      px      :     1.009709
      py      :     1.063434
      dz2     :     0.019523  d :     0.111222
      dxz     :     0.017739
      dyz     :     0.025516
      dx2y2   :     0.024558
      dxy     :     0.023885
 61 C s       :     2.840400  s :     2.840400
      pz      :     1.036789  p :     3.073032
      px      :     1.028359
      py      :     1.007884
      dz2     :     0.020610  d :     0.108888
      dxz     :     0.015899
      dyz     :     0.025701
      dx2y2   :     0.023943
      dxy     :     0.022736
 62 C s       :     2.885555  s :     2.885555
      pz      :     1.044130  p :     3.128117
      px      :     1.020130
      py      :     1.063857
      dz2     :     0.013508  d :     0.090451
      dxz     :     0.013108
      dyz     :     0.022236
      dx2y2   :     0.020218
      dxy     :     0.021381
 63 H s       :     0.836360  s :     0.836360
 64 H s       :     0.851433  s :     0.851433
 65 H s       :     0.861955  s :     0.861955
 66 C s       :     2.899852  s :     2.899852
      pz      :     1.077192  p :     3.228331
      px      :     1.063735
      py      :     1.087404
      dz2     :     0.008293  d :     0.089421
      dxz     :     0.022855
      dyz     :     0.025718
      dx2y2   :     0.010089
      dxy     :     0.022466
 67 C s       :     2.899227  s :     2.899227
      pz      :     1.100770  p :     3.230041
      px      :     1.084861
      py      :     1.044410
      dz2     :     0.014351  d :     0.089148
      dxz     :     0.014641
      dyz     :     0.021968
      dx2y2   :     0.023276
      dxy     :     0.014912
 68 H s       :     0.860893  s :     0.860893
 69 H s       :     0.857372  s :     0.857372
 70 H s       :     0.856279  s :     0.856279
 71 H s       :     0.861373  s :     0.861373
 72 H s       :     0.869183  s :     0.869183
 73 H s       :     0.871220  s :     0.871220
 74 H s       :     0.870726  s :     0.870726
 75 H s       :     0.864103  s :     0.864103
 76 H s       :     0.870405  s :     0.870405
 77 H s       :     0.870588  s :     0.870588


                      *****************************
                      * MAYER POPULATION ANALYSIS *
                      *****************************

  NA   - Mulliken gross atomic population
  ZA   - Total nuclear charge
  QA   - Mulliken gross atomic charge
  VA   - Mayer's total valence
  BVA  - Mayer's bonded valence
  FA   - Mayer's free valence

  ATOM       NA         ZA         QA         VA         BVA        FA
  0 C      6.4443     6.0000    -0.4443     3.8707     3.8707     0.0000
  1 C      5.8574     6.0000     0.1426     3.6300     3.6300    -0.0000
  2 C      5.9330     6.0000     0.0670     3.6808     3.6808     0.0000
  3 C      6.2613     6.0000    -0.2613     3.7883     3.7883    -0.0000
  4 H      0.7762     1.0000     0.2238     0.9178     0.9178     0.0000
  5 C      6.2372     6.0000    -0.2372     3.8283     3.8283    -0.0000
  6 H      0.7697     1.0000     0.2303     0.9084     0.9084    -0.0000
  7 C      6.2132     6.0000    -0.2132     3.8101     3.8101    -0.0000
  8 H      0.7700     1.0000     0.2300     0.9080     0.9080    -0.0000
  9 C      6.3206     6.0000    -0.3206     3.7573     3.7573    -0.0000
 10 H      0.7854     1.0000     0.2146     0.9203     0.9203    -0.0000
 11 C      5.8448     6.0000     0.1552     3.6730     3.6730     0.0000
 12 C      6.2757     6.0000    -0.2757     3.7932     3.7932     0.0000
 13 H      0.7842     1.0000     0.2158     0.9213     0.9213     0.0000
 14 C      6.2222     6.0000    -0.2222     3.8282     3.8282    -0.0000
 15 H      0.7724     1.0000     0.2276     0.9091     0.9091    -0.0000
 16 C      6.2133     6.0000    -0.2133     3.8153     3.8153     0.0000
 17 H      0.7704     1.0000     0.2296     0.9083     0.9083     0.0000
 18 C      6.3211     6.0000    -0.3211     3.7544     3.7544    -0.0000
 19 H      0.7856     1.0000     0.2144     0.9200     0.9200    -0.0000
 20 C      5.8575     6.0000     0.1425     3.6848     3.6848     0.0000
 21 C      5.9017     6.0000     0.0983     3.6956     3.6956     0.0000
 22 C      6.3204     6.0000    -0.3204     3.7988     3.7988    -0.0000
 23 H      0.7540     1.0000     0.2460     0.9082     0.9082     0.0000
 24 C      5.9217     6.0000     0.0783     3.6834     3.6834    -0.0000
 25 C      6.0071     6.0000    -0.0071     4.0880     4.0880    -0.0000
 26 N      7.1541     7.0000    -0.1541     3.2266     3.2266    -0.0000
 27 C      5.7768     6.0000     0.2232     3.6086     3.6086     0.0000
 28 C      6.2907     6.0000    -0.2907     3.7126     3.7126     0.0000
 29 H      0.7185     1.0000     0.2815     0.8849     0.8849     0.0000
 30 C      5.9123     6.0000     0.0877     3.6927     3.6927     0.0000
 31 C      6.0083     6.0000    -0.0083     4.0909     4.0909     0.0000
 32 N      7.1546     7.0000    -0.1546     3.2271     3.2271     0.0000
 33 H      0.7865     1.0000     0.2135     0.9157     0.9157     0.0000
 34 H      0.7902     1.0000     0.2098     0.9142     0.9142    -0.0000
 35 C      6.2319     6.0000    -0.2319     3.8679     3.8679     0.0000
 36 C      6.2194     6.0000    -0.2194     3.8133     3.8133    -0.0000
 37 C      6.2970     6.0000    -0.2970     3.7820     3.7820    -0.0000
 38 H      0.7377     1.0000     0.2623     0.8821     0.8821    -0.0000
 39 C      6.3230     6.0000    -0.3230     3.8591     3.8591     0.0000
 40 H      0.7875     1.0000     0.2125     0.9187     0.9187    -0.0000
 41 C      5.6862     6.0000     0.3138     3.6963     3.6963    -0.0000
 42 C      5.8426     6.0000     0.1574     3.6162     3.6162     0.0000
 43 N      7.7069     7.0000    -0.7069     3.0904     3.0904    -0.0000
 44 C      5.8297     6.0000     0.1703     3.6025     3.6025    -0.0000
 45 C      5.6885     6.0000     0.3115     3.7096     3.7096     0.0000
 46 H      0.7879     1.0000     0.2121     0.9193     0.9193     0.0000
 47 C      6.3251     6.0000    -0.3251     3.8579     3.8579     0.0000
 48 C      6.2832     6.0000    -0.2832     3.7792     3.7792     0.0000
 49 C      6.2175     6.0000    -0.2175     3.8162     3.8162     0.0000
 50 C      6.2342     6.0000    -0.2342     3.8604     3.8604     0.0000
 51 H      0.7596     1.0000     0.2404     0.8985     0.8985     0.0000
 52 H      0.7884     1.0000     0.2116     0.9137     0.9137    -0.0000
 53 H      0.7864     1.0000     0.2136     0.9133     0.9133     0.0000
 54 C      6.2312     6.0000    -0.2312     3.8152     3.8152    -0.0000
 55 C      6.6639     6.0000    -0.6639     3.7128     3.7128     0.0000
 56 C      6.5927     6.0000    -0.5927     3.6450     3.6450     0.0000
 57 C      5.7865     6.0000     0.2135     3.8502     3.8502     0.0000
 58 C      6.2330     6.0000    -0.2330     3.8165     3.8165    -0.0000
 59 C      6.2995     6.0000    -0.2995     3.8234     3.8234     0.0000
 60 C      5.9367     6.0000     0.0633     3.7159     3.7159    -0.0000
 61 C      5.7783     6.0000     0.2217     3.5880     3.5880    -0.0000
 62 C      6.2840     6.0000    -0.2840     3.7173     3.7173     0.0000
 63 H      0.7178     1.0000     0.2822     0.8818     0.8818    -0.0000
 64 H      0.7660     1.0000     0.2340     0.9099     0.9099    -0.0000
 65 H      0.7818     1.0000     0.2182     0.9163     0.9163    -0.0000
 66 C      6.5193     6.0000    -0.5193     3.6541     3.6541     0.0000
 67 C      6.5366     6.0000    -0.5366     3.6578     3.6578     0.0000
 68 H      0.7516     1.0000     0.2484     0.9013     0.9013     0.0000
 69 H      0.7491     1.0000     0.2509     0.8927     0.8927     0.0000
 70 H      0.7442     1.0000     0.2558     0.8937     0.8937     0.0000
 71 H      0.7487     1.0000     0.2513     0.8996     0.8996    -0.0000
 72 H      0.7683     1.0000     0.2317     0.9139     0.9139    -0.0000
 73 H      0.7803     1.0000     0.2197     0.9156     0.9156     0.0000
 74 H      0.7796     1.0000     0.2204     0.9156     0.9156     0.0000
 75 H      0.7609     1.0000     0.2391     0.9067     0.9067     0.0000
 76 H      0.7724     1.0000     0.2276     0.9122     0.9122     0.0000
 77 H      0.7724     1.0000     0.2276     0.9122     0.9122     0.0000

  Mayer bond orders larger than 0.1
B(  0-C ,  1-C ) :   0.9577 B(  0-C ,  2-C ) :   0.9704 B(  0-C , 27-C ) :   0.9580 
B(  0-C , 61-C ) :   0.9454 B(  1-C , 12-C ) :   1.3959 B(  1-C , 20-C ) :   1.3467 
B(  2-C ,  3-C ) :   1.4033 B(  2-C , 11-C ) :   1.3424 B(  3-C ,  4-H ) :   0.9229 
B(  3-C ,  5-C ) :   1.4181 B(  5-C ,  6-H ) :   0.9158 B(  5-C ,  7-C ) :   1.4127 
B(  7-C ,  8-H ) :   0.9164 B(  7-C ,  9-C ) :   1.4296 B(  9-C , 10-H ) :   0.9302 
B(  9-C , 11-C ) :   1.3357 B( 11-C , 20-C ) :   1.0038 B( 12-C , 13-H ) :   0.9232 
B( 12-C , 14-C ) :   1.4197 B( 14-C , 15-H ) :   0.9166 B( 14-C , 16-C ) :   1.4171 
B( 16-C , 17-H ) :   0.9165 B( 16-C , 18-C ) :   1.4298 B( 18-C , 19-H ) :   0.9299 
B( 18-C , 20-C ) :   1.3385 B( 21-C , 22-C ) :   1.3864 B( 21-C , 27-C ) :   1.3731 
B( 21-C , 67-C ) :   0.9457 B( 22-C , 23-H ) :   0.9121 B( 22-C , 24-C ) :   1.3776 
B( 24-C , 25-C ) :   0.9867 B( 24-C , 30-C ) :   1.2991 B( 25-C , 26-N ) :   3.1392 
B( 27-C , 28-C ) :   1.3452 B( 28-C , 29-H ) :   0.8962 B( 28-C , 30-C ) :   1.3792 
B( 30-C , 31-C ) :   0.9893 B( 31-C , 32-N ) :   3.1403 B( 33-H , 35-C ) :   0.9176 
B( 34-H , 36-C ) :   0.9213 B( 35-C , 36-C ) :   1.4281 B( 35-C , 37-C ) :   1.4491 
B( 36-C , 39-C ) :   1.4161 B( 37-C , 38-H ) :   0.8906 B( 37-C , 41-C ) :   1.3516 
B( 39-C , 40-H ) :   0.9177 B( 39-C , 42-C ) :   1.4242 B( 41-C , 42-C ) :   1.3175 
B( 41-C , 43-N ) :   0.9933 B( 42-C , 54-C ) :   0.9361 B( 43-N , 45-C ) :   0.9940 
B( 43-N , 57-C ) :   0.9223 B( 44-C , 45-C ) :   1.3183 B( 44-C , 47-C ) :   1.4204 
B( 44-C , 54-C ) :   0.9336 B( 45-C , 48-C ) :   1.3568 B( 46-H , 47-C ) :   0.9181 
B( 47-C , 49-C ) :   1.4170 B( 48-C , 50-C ) :   1.4400 B( 48-C , 51-H ) :   0.9015 
B( 49-C , 50-C ) :   1.4298 B( 49-C , 52-H ) :   0.9208 B( 50-C , 53-H ) :   0.9206 
B( 54-C , 55-C ) :   1.0251 B( 54-C , 56-C ) :   0.9841 B( 55-C , 75-H ) :   0.9214 
B( 55-C , 76-H ) :   0.9136 B( 55-C , 77-H ) :   0.9135 B( 56-C , 72-H ) :   0.9177 
B( 56-C , 73-H ) :   0.9225 B( 56-C , 74-H ) :   0.9223 B( 57-C , 58-C ) :   1.4060 
B( 57-C , 62-C ) :   1.4441 B( 58-C , 59-C ) :   1.4244 B( 58-C , 64-H ) :   0.9123 
B( 59-C , 60-C ) :   1.3837 B( 59-C , 65-H ) :   0.9169 B( 60-C , 61-C ) :   1.4043 
B( 60-C , 66-C ) :   0.9442 B( 61-C , 62-C ) :   1.3135 B( 62-C , 63-H ) :   0.8874 
B( 66-C , 67-C ) :   0.9409 B( 66-C , 68-H ) :   0.9213 B( 66-C , 69-H ) :   0.9034 
B( 67-C , 70-H ) :   0.8993 B( 67-C , 71-H ) :   0.9193 

-------
TIMINGS
-------

Total SCF time: 0 days 0 hours 3 min 6 sec 

Total time                  ....     186.916 sec
Sum of individual times     ....     185.254 sec  ( 99.1%)

Fock matrix formation       ....     179.185 sec  ( 95.9%)
  XC integration            ....       4.423 sec  (  2.5% of F)
    Basis function eval.    ....       1.494 sec  ( 33.8% of XC)
    Density eval.           ....       1.467 sec  ( 33.2% of XC)
    XC-Functional eval.     ....       0.147 sec  (  3.3% of XC)
    XC-Potential eval.      ....       0.927 sec  ( 21.0% of XC)
Diagonalization             ....       0.374 sec  (  0.2%)
Density matrix formation    ....       0.060 sec  (  0.0%)
Population analysis         ....       1.041 sec  (  0.6%)
Initial guess               ....       0.349 sec  (  0.2%)
Orbital Transformation      ....       0.000 sec  (  0.0%)
Orbital Orthonormalization  ....       0.311 sec  (  0.2%)
DIIS solution               ....       0.126 sec  (  0.1%)
SOSCF solution              ....       1.672 sec  (  0.9%)
Grid generation             ....       2.448 sec  (  1.3%)


-------------------------------------------------------------------------------
                          DFT DISPERSION CORRECTION                            
                                                                               
                              DFTD3 V3.1  Rev 1                                
                          USING Becke-Johnson damping                          
-------------------------------------------------------------------------------
The PBEh-3c composite method is recognized
Using three-body term ABC
Active option DFTDOPT                   ...         4   

molecular C6(AA) [au] = 80160.346066 


            DFT-D V3
 parameters
 s6 scaling factor         :     1.0000 
 a1 scaling factor         :     0.4860 
 s8 scaling factor         :     0.0000 
 a2 scaling factor         :     4.5000 
 Damping factor alpha9(ATM):    16.0000 
 ad hoc parameters k1-k3   :    16.0000     1.3333    -4.0000 

 Edisp/kcal,au: -49.302096746213  -0.078567883873 
 E6   /kcal   : -50.137403783 
 E8   /kcal   :  -0.000000000 
 E6(ABC)      :   0.835307037 
 % E8         :   0.000000000 
 % E6(ABC)    :  -1.694262702 

-------------------------   ----------------
Dispersion correction           -0.078567884
-------------------------   ----------------

------------------   -----------------
gCP correction             0.109167921
------------------   -----------------

-------------------------   --------------------
FINAL SINGLE POINT ENERGY     -1855.533459046954
-------------------------   --------------------

                                *** OPTIMIZATION RUN DONE ***

                            ***************************************
                            *     ORCA property calculations      *
                            ***************************************

                                    ---------------------
                                    Active property flags
                                    ---------------------
   (+) Dipole Moment


------------------------------------------------------------------------------
                       ORCA ELECTRIC PROPERTIES CALCULATION
------------------------------------------------------------------------------

Dipole Moment Calculation                       ... on
Quadrupole Moment Calculation                   ... off
Polarizability Calculation                      ... off
GBWName                                         ... orca_gsopt.gbw
Electron density file                           ... orca_gsopt.scfp.tmp
The origin for moment calculation is the CENTER OF MASS  = ( 2.063028, -11.267762  2.776475)

-------------
DIPOLE MOMENT
-------------
                                X             Y             Z
Electronic contribution:    -19.12711      38.68861      -6.90216
Nuclear contribution   :     19.67768     -41.56698       7.10046
                        -----------------------------------------
Total Dipole Moment    :      0.55057      -2.87837       0.19830
                        -----------------------------------------
Magnitude (a.u.)       :      2.93725
Magnitude (Debye)      :      7.46589


Timings for individual modules:

Sum of individual times         ...     3968.342 sec (=  66.139 min)
GTO integral calculation        ...       28.056 sec (=   0.468 min)   0.7 %
SCF iterations                  ...     2930.960 sec (=  48.849 min)  73.9 %
SCF Gradient evaluation         ...      995.505 sec (=  16.592 min)  25.1 %
Geometry relaxation             ...       13.820 sec (=   0.230 min)   0.3 %
                             ****ORCA TERMINATED NORMALLY****
TOTAL RUN TIME: 0 days 1 hours 6 minutes 28 seconds 336 msec
