mFile = /cm/shared/apps/q-chem/intel/QCHEM_5.0.1_Trunk/bin/mpi/machines
Process 0 of 1 is on ctcp011 - thread support 0
initial socket setup ...start
initial socket setup ...done 
now start server 0 ... 
ctcp011.cm.cluster 10.141.0
Q-Chem Developer Version! Running on 10.141.0.*
                  Welcome to Q-Chem
     A Quantum Leap Into The Future Of Chemistry


 Q-Chem 5.0, Q-Chem, Inc., Pleasanton, CA (2017)

 Yihan Shao,  Zhengting Gan,  E. Epifanovsky,  A. T. B. Gilbert,  M. Wormit,  
 J. Kussmann,  A. W. Lange,  A. Behn,  Jia Deng,  Xintian Feng,  D. Ghosh,  
 M. Goldey,  P. R. Horn,  L. D. Jacobson,  I. Kaliman,  T. Kus,  A. Landau,  
 Jie Liu,  E. I. Proynov,  R. M. Richard,  R. P. Steele,  E. J. Sundstrom,  
 H. L. Woodcock III,  P. M. Zimmerman,  D. Zuev,  B. Albrecht,  E. Alguire,  
 S. A. Baeppler,  Z. Benda,  Y. A. Bernard,  E. J. Berquist,  K. B. Bravaya,  
 D. Casanova,  Chun-Min Chang,  Yunqing Chen,  A. Chien,  K. D. Closser,  
 M. P. Coons,  S. Dasgupta,  M. Diedenhofen,  Hainam Do,  R. G. Edgar,  
 Po-Tung Fang,  S. Fatehi,  Qingguo Feng,  Qinghui Ge,  A. Ghysels,  
 J. Gomes,  J. Gonthier,  A. Gunina,  M. W. D. Hanson-Heine,  
 P. H. P. Harbach,  A. W. Hauser,  J. E. Herr,  E. G. Hohenstein,  
 Z. C. Holden,  Kerwin Hui,  T.-C. Jagau,  Hyunjun Ji,  B. Kaduk,  
 K. Khistyaev,  Jaehoon Kim,  P. Klunzinger,  K. Koh,  D. Kosenkov,  
 T. Kowalczyk,  C. M. Krauter,  A. Kunitsa,  Ka Un Lao,  A. Laurent,  
 K. V. Lawler,  Joonho Lee,  D. Lefrancois,  S. Lehtola,  D. S. Levine,  
 Yi-Pei Li,  You-Sheng Lin,  Fenglai Liu,  E. Livshits,  A. Luenser,  
 P. Manohar,  E. Mansoor,  S. F. Manzer,  Shan-Ping Mao,  Yuezhi Mao,  
 N. Mardirossian,  A. V. Marenich,  L. A. Martinez-Martinez,  S. A. Maurer,  
 N. J. Mayhall,  S. C. McKenzie,  J.-M. Mewes,  A. F. Morrison,  K. Nanda,  
 T. S. Nguyen-Beck,  R. Olivares-Amaya,  J. A. Parkhill,  T. M. Perrine,  
 F. Plasser,  S. Prager,  A. Prociuk,  D. R. Rehn,  F. Rob,  M. Schneider,  
 N. Sergueev,  S. M. Sharada,  S. Sharma,  D. W. Small,  T. Stauch,  
 T. Stein,  Yu-Chuan Su,  A. J. W. Thom,  T. Tsuchimochi,  L. Vogt,  
 O. Vydrov,  M. A. Watson,  J. Wenzel,  M. de Wergifosse,  T. A. Wesolowski,  
 A. White,  J. Witte,  A. Yamada,  Jun Yang,  K. Yao,  S. Yeganeh,  
 S. R. Yost,  Zhi-Qiang You,  A. Zech,  Igor Ying Zhang,  Xing Zhang,  
 Yan Zhao,  Ying Zhu,  B. R. Brooks,  G. K. L. Chan,  C. J. Cramer,  
 M. S. Gordon,  W. J. Hehre,  A. Klamt,  M. W. Schmidt,  C. D. Sherrill,  
 D. G. Truhlar,  A. Aspuru-Guzik,  R. Baer,  A. T. Bell,  N. A. Besley,  
 Jeng-Da Chai,  A. Dreuw,  B. D. Dunietz,  T. R. Furlani,  Chao-Ping Hsu,  
 Yousung Jung,  Jing Kong,  D. S. Lambrecht,  WanZhen Liang,  C. Ochsenfeld,  
 V. A. Rassolov,  L. V. Slipchenko,  J. E. Subotnik,  T. Van Voorhis,  
 J. M. Herbert,  A. I. Krylov,  P. M. W. Gill,  M. Head-Gordon

 Contributors to earlier versions of Q-Chem not listed above: 
 R. D. Adamson,  B. Austin,  J. Baker,  G. J. O. Beran,  K. Brandhorst,  
 S. T. Brown,  E. F. C. Byrd,  A. K. Chakraborty,  C.-L. Cheng,  
 Siu Hung Chien,  D. M. Chipman,  D. L. Crittenden,  H. Dachsel,  
 R. A. DiStasio Jr.,  R. J. Doerksen,  A. D. Dutoi,  L. Fusti-Molnar,  
 W. A. Goddard III,  A. Golubeva-Zadorozhnaya,  S. R. Gwaltney,  G. Hawkins,  
 A. Heyden,  S. Hirata,  G. Kedziora,  F. J. Keil,  C. Kelley,  Jihan Kim,  
 R. A. King,  R. Z. Khaliullin,  P. P. Korambath,  W. Kurlancheek,  
 A. M. Lee,  M. S. Lee,  S. V. Levchenko,  Ching Yeh Lin,  D. Liotard,  
 R. C. Lochan,  I. Lotan,  P. E. Maslen,  N. Nair,  D. P. O'Neill,  
 D. Neuhauser,  E. Neuscamman,  C. M. Oana,  R. Olson,  B. Peters,  
 R. Peverati,  P. A. Pieniazek,  Y. M. Rhee,  J. Ritchie,  M. A. Rohrdanz,  
 E. Rosta,  N. J. Russ,  H. F. Schaefer III,  N. E. Schultz,  N. Shenvi,  
 A. C. Simmonett,  A. Sodt,  D. Stuck,  K. S. Thanthiriwatte,  V. Vanovschi,  
 Tao Wang,  A. Warshel,  C. F. Williams,  Q. Wu,  X. Xu,  W. Zhang

 Please cite Q-Chem as follows:
 Y. Shao et al., Mol. Phys. 113, 184-215 (2015)
 DOI: 10.1080/00268976.2014.952696

 Q-Chem 5.0.1 for Intel X86 EM64T Linux

 Parts of Q-Chem use Armadillo 5.200.1 (Boston Tea Smuggler).
 http://arma.sourceforge.net/

 Q-Chem begins on Thu Oct 18 13:33:47 2018  

Host: ctcp011
0

     Scratch files written to /scratch/mewes1/137702/plot_singlets.out.plots//
 Parallel job on  1  processors

Checking the input file for inconsistencies... 	...done.

--------------------------------------------------------------
User input:
--------------------------------------------------------------
$rem
threads 8
jobtype	sp
method PBEh-3c
basis def2-mSVP
mem_static	1024
mem_total	14000
sym_ignore	true
cis_n_roots             6
cis_singlets            true
cis_triplets		false
rpa                     false
state_analysis 		true
make_cube_files		true
cis_moments		true
sym_ignore              true
$end


$plots
att. det. elec. hole and diff. dens for gsopt.out
205 -17.99 6.56
180 -12.29 9.72
144 -9.19 9.27
0 0 0 2
1 2
$end


$molecule
0 1
C        -0.1823215190   -1.6404751322    1.1882268848
C        -1.3774531025   -1.4724268326    0.4997120637
C        -2.5811048335   -1.3799042944    1.2056766891
C        -2.5707448445   -1.4607145781    2.6033268757
C        -1.3721269146   -1.6592512900    3.2749496013
C        -0.1804145960   -1.7531457559    2.5701659909
N         1.0241301309   -2.0069242093    3.2532695431
C        -1.3861646074   -1.4197591563   -1.0032004133
C        -3.8639559962   -1.3866585921    3.3660527002
C         1.8067355760   -3.1304049574    3.0796174805
C         2.8512196000   -3.1130654313    4.0189259410
C         2.6744984865   -1.9220500817    4.8076144404
C         1.5336915514   -1.2728401183    4.3044171308
C         3.3582425751   -1.3682318310    5.8831278714
C         2.8974512069   -0.1863854643    6.4326101263
C         1.7673038366    0.4495193476    5.9112238206
C         1.0705621936   -0.0791064065    4.8405021601
C         1.6390138196   -4.1865457905    2.1895297436
C         2.5538042834   -5.2219255710    2.2428855450
C         3.6081829563   -5.2146891834    3.1596388423
C         3.7583666813   -4.1678305251    4.0500194597
C        -5.8172750534    0.0986679144   -0.6432157614
C        -4.5510248054    0.0682078542   -0.0099786205
B        -3.9502302559   -1.2925718570    0.4387426023
C        -4.7130670911   -2.6158629346    0.1407011554
C        -5.9861828960   -2.5779410615   -0.4743834171
B        -6.6082912108   -1.2174953778   -0.8819478645
C        -4.1519188928   -3.8457504022    0.4946930375
C        -4.8424246444   -5.0174133806    0.2467870120
C        -6.1188930804   -4.9767095728   -0.3566925893
C        -6.6816734438   -3.7660664125   -0.7123431175
C        -6.3594245384    1.3179812786   -1.0496260116
C        -5.6558792194    2.4893570102   -0.8403053996
C        -4.3903679198    2.4649351734   -0.2150264500
C        -3.8505806765    1.2590297757    0.2017073412
C        -3.4484383782   -7.0826205731    1.0677824664
C        -3.5035429209   -8.4936875937    1.1581808223
C        -4.5818979477   -9.2203737978    0.7115699990
C        -5.6919427105   -8.5593461191    0.1347753534
C        -5.6068391348   -7.1729656353    0.0568761022
C        -4.5101713962   -6.4186704133    0.5116369300
C        -6.8799401832   -9.1430545034   -0.3675037841
C        -7.8694771666   -8.3470137867   -0.8941972294
C        -7.7541631135   -6.9383207882   -0.9598381089
C        -6.6130598950   -6.3496731371   -0.4793733513
C        -2.6545588502    5.8553818702    0.2072718108
C        -2.7654068719    4.4496282018    0.3279484603
C        -3.8977982278    3.8420720314   -0.1441151972
C        -4.8953830044    4.6466798800   -0.7268986291
C        -4.8191013679    6.0268590617   -0.8583982391
C        -3.6385661220    6.6297165071   -0.3620613308
C        -5.9846336715    3.8726694791   -1.1642817516
C        -7.0487131959    4.4993330784   -1.7553462930
C        -7.0016805161    5.9050816649   -1.9004371232
C        -5.9304896691    6.6545223340   -1.4723588538
C       -10.4339232105   -0.9714684257   -1.3029888613
C        -9.1700647717   -0.9873331312   -0.7268169529
C        -8.0400619371   -1.1860717006   -1.5294727957
C        -8.1997864124   -1.3880831399   -2.9054942217
C        -9.4723395750   -1.3934801620   -3.4620149156
C       -10.5869454468   -1.1791722646   -2.6653478292
N       -11.8757280443   -1.1971704720   -3.2348051935
C        -9.0185268608   -0.7971448450    0.7556502469
C        -7.0007446010   -1.6409992422   -3.7758589328
C       -12.8791804005   -2.0862384383   -2.9002082131
C       -13.9810439409   -1.8692076737   -3.7440002637
C       -13.6170447996   -0.8008048136   -4.6324629217
C       -12.3086813331   -0.4190978595   -4.2916436011
C       -14.2751831752   -0.1693949690   -5.6820329566
C       -13.6231839568    0.8333000696   -6.3734498839
C       -12.3247584077    1.2082863414   -6.0180836059
C       -11.6503080652    0.5944102732   -4.9773949027
C       -12.8848529303   -3.1047591671   -1.9537348544
C       -14.0211933297   -3.8887255301   -1.8592270469
C       -15.1287503768   -3.6773895810   -2.6845405941
C       -15.1126206515   -2.6706752135   -3.6306064752
H         0.7534304506   -1.6988071488    0.6447840831
H        -1.3664804308   -1.7706107506    4.3527270657
H        -1.9506992648   -2.2564704453   -1.4223612164
H        -0.3795610093   -1.4659133445   -1.4167470107
H        -1.8538270369   -0.5052870484   -1.3729830435
H        -4.5044627118   -2.2439149511    3.1453735037
H        -4.4321702202   -0.4904598398    3.1081651399
H        -3.6992440010   -1.3715425203    4.4427581417
H         4.2357730973   -1.8577640791    6.2863342236
H         3.4154518270    0.2536766008    7.2738695214
H         1.4278677075    1.3762498895    6.3546485240
H         0.1976317854    0.4190611082    4.4398766809
H         0.8185221470   -4.2075355184    1.4844512583
H         2.4461362565   -6.0564526786    1.5620093932
H         4.3066557020   -6.0405662693    3.1753852055
H         4.5682616184   -4.1759823127    4.7684271293
H        -3.1770408326   -3.8785611796    0.9673761557
H        -7.6626128340   -3.7353634888   -1.1746315341
H        -7.3321726567    1.3395284955   -1.5297126967
H        -2.8839211664    1.2281231700    0.6925337789
H        -2.5767117750   -6.5597140441    1.4401158787
H        -2.6646573045   -9.0164949393    1.5982461617
H        -4.5819769358  -10.2997284544    0.8033883077
H        -7.0121045471  -10.2177909650   -0.3365729711
H        -8.7713721016   -8.8099495843   -1.2731434960
H        -8.5642666062   -6.3585888237   -1.3848261193
H        -1.7591417218    6.3352005057    0.5794045112
H        -1.9622112378    3.8853818825    0.7851944105
H        -3.5070957604    7.7023685077   -0.4305843871
H        -7.9133125128    3.9507495385   -2.1086275220
H        -7.8408256228    6.4053035499   -2.3657467021
H        -5.9398202874    7.7290225000   -1.6064727468
H       -11.3114206082   -0.7936912243   -0.6922838298
H        -9.6027505274   -1.5799978736   -4.5220009642
H        -9.9774273645   -0.6111870373    1.2382005696
H        -8.3642815124    0.0452656409    0.9878727655
H        -8.5820014848   -1.6815091453    1.2254625049
H        -7.2614940618   -1.6377273766   -4.8336571382
H        -6.5483260936   -2.6097592724   -3.5528707945
H        -6.2273252566   -0.8850786248   -3.6263166952
H       -15.2814962939   -0.4620814516   -5.9553325454
H       -14.1174758449    1.3329305649   -7.1958159515
H       -11.8318915066    1.9974120703   -6.5707241412
H       -10.6448945974    0.8941532148   -4.7146395419
H       -12.0308116844   -3.2911932313   -1.3167333566
H       -14.0483409465   -4.6888956634   -1.1310942620
H       -15.9995400766   -4.3113478578   -2.5839550722
H       -15.9646303398   -2.5145300649   -4.2808428676
$end

--------------------------------------------------------------
 Adding empirical dispersion correction 
 ----------------------------------------------------------------
 Doing -D3(BJ) with
 s6 =   1.00000
 s8 =   0.00000
 a1 =   0.48600
 a2 =   4.50000
 -D3 energy including 3body term =     -0.1184721517 hartrees
 ----------------------------------------------------------------
 Adding gCP correction 
 ----------------------------------------------------------------
 gCP energy =      0.1606997302 hartrees
 ----------------------------------------------------------------
             Standard Nuclear Orientation (Angstroms)
    I     Atom           X                Y                Z
 ----------------------------------------------------------------
    1      C      -0.1823215190    -1.6404751322     1.1882268848
    2      C      -1.3774531025    -1.4724268326     0.4997120637
    3      C      -2.5811048335    -1.3799042944     1.2056766891
    4      C      -2.5707448445    -1.4607145781     2.6033268757
    5      C      -1.3721269146    -1.6592512900     3.2749496013
    6      C      -0.1804145960    -1.7531457559     2.5701659909
    7      N       1.0241301309    -2.0069242093     3.2532695431
    8      C      -1.3861646074    -1.4197591563    -1.0032004133
    9      C      -3.8639559962    -1.3866585921     3.3660527002
   10      C       1.8067355760    -3.1304049574     3.0796174805
   11      C       2.8512196000    -3.1130654313     4.0189259410
   12      C       2.6744984865    -1.9220500817     4.8076144404
   13      C       1.5336915514    -1.2728401183     4.3044171308
   14      C       3.3582425751    -1.3682318310     5.8831278714
   15      C       2.8974512069    -0.1863854643     6.4326101263
   16      C       1.7673038366     0.4495193476     5.9112238206
   17      C       1.0705621936    -0.0791064065     4.8405021601
   18      C       1.6390138196    -4.1865457905     2.1895297436
   19      C       2.5538042834    -5.2219255710     2.2428855450
   20      C       3.6081829563    -5.2146891834     3.1596388423
   21      C       3.7583666813    -4.1678305251     4.0500194597
   22      C      -5.8172750534     0.0986679144    -0.6432157614
   23      C      -4.5510248054     0.0682078542    -0.0099786205
   24      B      -3.9502302559    -1.2925718570     0.4387426023
   25      C      -4.7130670911    -2.6158629346     0.1407011554
   26      C      -5.9861828960    -2.5779410615    -0.4743834171
   27      B      -6.6082912108    -1.2174953778    -0.8819478645
   28      C      -4.1519188928    -3.8457504022     0.4946930375
   29      C      -4.8424246444    -5.0174133806     0.2467870120
   30      C      -6.1188930804    -4.9767095728    -0.3566925893
   31      C      -6.6816734438    -3.7660664125    -0.7123431175
   32      C      -6.3594245384     1.3179812786    -1.0496260116
   33      C      -5.6558792194     2.4893570102    -0.8403053996
   34      C      -4.3903679198     2.4649351734    -0.2150264500
   35      C      -3.8505806765     1.2590297757     0.2017073412
   36      C      -3.4484383782    -7.0826205731     1.0677824664
   37      C      -3.5035429209    -8.4936875937     1.1581808223
   38      C      -4.5818979477    -9.2203737978     0.7115699990
   39      C      -5.6919427105    -8.5593461191     0.1347753534
   40      C      -5.6068391348    -7.1729656353     0.0568761022
   41      C      -4.5101713962    -6.4186704133     0.5116369300
   42      C      -6.8799401832    -9.1430545034    -0.3675037841
   43      C      -7.8694771666    -8.3470137867    -0.8941972294
   44      C      -7.7541631135    -6.9383207882    -0.9598381089
   45      C      -6.6130598950    -6.3496731371    -0.4793733513
   46      C      -2.6545588502     5.8553818702     0.2072718108
   47      C      -2.7654068719     4.4496282018     0.3279484603
   48      C      -3.8977982278     3.8420720314    -0.1441151972
   49      C      -4.8953830044     4.6466798800    -0.7268986291
   50      C      -4.8191013679     6.0268590617    -0.8583982391
   51      C      -3.6385661220     6.6297165071    -0.3620613308
   52      C      -5.9846336715     3.8726694791    -1.1642817516
   53      C      -7.0487131959     4.4993330784    -1.7553462930
   54      C      -7.0016805161     5.9050816649    -1.9004371232
   55      C      -5.9304896691     6.6545223340    -1.4723588538
   56      C     -10.4339232105    -0.9714684257    -1.3029888613
   57      C      -9.1700647717    -0.9873331312    -0.7268169529
   58      C      -8.0400619371    -1.1860717006    -1.5294727957
   59      C      -8.1997864124    -1.3880831399    -2.9054942217
   60      C      -9.4723395750    -1.3934801620    -3.4620149156
   61      C     -10.5869454468    -1.1791722646    -2.6653478292
   62      N     -11.8757280443    -1.1971704720    -3.2348051935
   63      C      -9.0185268608    -0.7971448450     0.7556502469
   64      C      -7.0007446010    -1.6409992422    -3.7758589328
   65      C     -12.8791804005    -2.0862384383    -2.9002082131
   66      C     -13.9810439409    -1.8692076737    -3.7440002637
   67      C     -13.6170447996    -0.8008048136    -4.6324629217
   68      C     -12.3086813331    -0.4190978595    -4.2916436011
   69      C     -14.2751831752    -0.1693949690    -5.6820329566
   70      C     -13.6231839568     0.8333000696    -6.3734498839
   71      C     -12.3247584077     1.2082863414    -6.0180836059
   72      C     -11.6503080652     0.5944102732    -4.9773949027
   73      C     -12.8848529303    -3.1047591671    -1.9537348544
   74      C     -14.0211933297    -3.8887255301    -1.8592270469
   75      C     -15.1287503768    -3.6773895810    -2.6845405941
   76      C     -15.1126206515    -2.6706752135    -3.6306064752
   77      H       0.7534304506    -1.6988071488     0.6447840831
   78      H      -1.3664804308    -1.7706107506     4.3527270657
   79      H      -1.9506992648    -2.2564704453    -1.4223612164
   80      H      -0.3795610093    -1.4659133445    -1.4167470107
   81      H      -1.8538270369    -0.5052870484    -1.3729830435
   82      H      -4.5044627118    -2.2439149511     3.1453735037
   83      H      -4.4321702202    -0.4904598398     3.1081651399
   84      H      -3.6992440010    -1.3715425203     4.4427581417
   85      H       4.2357730973    -1.8577640791     6.2863342236
   86      H       3.4154518270     0.2536766008     7.2738695214
   87      H       1.4278677075     1.3762498895     6.3546485240
   88      H       0.1976317854     0.4190611082     4.4398766809
   89      H       0.8185221470    -4.2075355184     1.4844512583
   90      H       2.4461362565    -6.0564526786     1.5620093932
   91      H       4.3066557020    -6.0405662693     3.1753852055
   92      H       4.5682616184    -4.1759823127     4.7684271293
   93      H      -3.1770408326    -3.8785611796     0.9673761557
   94      H      -7.6626128340    -3.7353634888    -1.1746315341
   95      H      -7.3321726567     1.3395284955    -1.5297126967
   96      H      -2.8839211664     1.2281231700     0.6925337789
   97      H      -2.5767117750    -6.5597140441     1.4401158787
   98      H      -2.6646573045    -9.0164949393     1.5982461617
   99      H      -4.5819769358   -10.2997284544     0.8033883077
  100      H      -7.0121045471   -10.2177909650    -0.3365729711
  101      H      -8.7713721016    -8.8099495843    -1.2731434960
  102      H      -8.5642666062    -6.3585888237    -1.3848261193
  103      H      -1.7591417218     6.3352005057     0.5794045112
  104      H      -1.9622112378     3.8853818825     0.7851944105
  105      H      -3.5070957604     7.7023685077    -0.4305843871
  106      H      -7.9133125128     3.9507495385    -2.1086275220
  107      H      -7.8408256228     6.4053035499    -2.3657467021
  108      H      -5.9398202874     7.7290225000    -1.6064727468
  109      H     -11.3114206082    -0.7936912243    -0.6922838298
  110      H      -9.6027505274    -1.5799978736    -4.5220009642
  111      H      -9.9774273645    -0.6111870373     1.2382005696
  112      H      -8.3642815124     0.0452656409     0.9878727655
  113      H      -8.5820014848    -1.6815091453     1.2254625049
  114      H      -7.2614940618    -1.6377273766    -4.8336571382
  115      H      -6.5483260936    -2.6097592724    -3.5528707945
  116      H      -6.2273252566    -0.8850786248    -3.6263166952
  117      H     -15.2814962939    -0.4620814516    -5.9553325454
  118      H     -14.1174758449     1.3329305649    -7.1958159515
  119      H     -11.8318915066     1.9974120703    -6.5707241412
  120      H     -10.6448945974     0.8941532148    -4.7146395419
  121      H     -12.0308116844    -3.2911932313    -1.3167333566
  122      H     -14.0483409465    -4.6888956634    -1.1310942620
  123      H     -15.9995400766    -4.3113478578    -2.5839550722
  124      H     -15.9646303398    -2.5145300649    -4.2808428676
 ----------------------------------------------------------------
 Nuclear Repulsion Energy = 10607.5886061920 hartrees
 There are      252 alpha and      252 beta electrons
 Requested basis set is def2-mSVP
 There are 628 shells and 1236 basis functions

 Total QAlloc Memory Limit  14000 MB
 Mega-Array Size      1001 MB
 MEM_STATIC part      1024 MB
 A cutoff of  1.0D-11 yielded  52869 shell pairs
 There are    212189 function pairs (    234189 Cartesian)
 
 -------------------------------------------------------
 OpenMP Integral Computing Module                       
 Release: version 1.0, May 2013, Q-Chem Inc. Pittsburgh 
 -------------------------------------------------------
 Integral Job Info:
 Integral job number is                      11
 Integral operator is                         1
 short-range coefficients                     0
 long-range coefficients              100000000
 Omega coefficients                           0
 if combine SR and LR in K                    0
 Integral screening is                        0
 Integral computing path is                   2
 max size of driver memory is            800000
 size of driver memory is                593474
 size of scratch memory is              1809772
 max col of scratch BK array               1296
 max len of scratch array in speh3          155
 max len of scratch index in speh4           18
 max int batch size is                      520
 min int batch size is                       52
 fixed nKL is                                52
 max L of basis functions is                  2
 order of int derivative is                   0
 number of shells is                        628
 number of basis is                        1312
 number of cartesian basis is              1312
 number of contracted shell pairs         52869
 number of primitive shell pairs         110573
 maxK2 (contraction) of shell pair           25
 max number of K2 of shell pair               1
 max number of CS2 of shell pair          12654
 max number of PS2 of shell pair          19610
 mem total for path MDJ                  558056
 -------------------------------------------------------
 Smallest overlap matrix eigenvalue = 1.96E-04

 Scale SEOQF with 1.000000e-02/1.000000e-02/1.000000e-02

 Standard Electronic Orientation quadrupole field applied
 Nucleus-field energy     =     0.0000001135 hartrees
 Guess from superposition of atomic densities
 Warning:  Energy on first SCF cycle will be non-variational
 A restricted hybrid HF-DFT SCF calculation will be
 performed using Pulay DIIS extrapolation
 Exchange:     0.4200 Hartree-Fock + 0.5800 PBEh-3c
 Correlation:  1.0000 PBEh-3c
 Using SG-1 standard quadrature grid
 Dispersion:   Grimme D3
 SCF converges when DIIS error is below 1.0E-08
 using 8 threads for integral computing
 -------------------------------------------------------
 OpenMP Integral computing Module                
 Release: version 1.0, May 2013, Q-Chem Inc. Pittsburgh 
 -------------------------------------------------------
 ---------------------------------------
  Cycle       Energy         DIIS Error
 ---------------------------------------
    1   -2952.2054277515      2.43E-02
    2   -2924.9155771040      1.67E-03
    3   -2925.0803649884      1.50E-03
    4   -2925.4604373548      5.82E-04
    5   -2925.5261835227      1.66E-04
    6   -2925.5314020211      6.12E-05
    7   -2925.5321008393      1.68E-05
    8   -2925.5321533784      5.97E-06
    9   -2925.5321607484      1.25E-06
   10   -2925.5321611497      5.23E-07
   11   -2925.5321612314      1.92E-07
   12   -2925.5321612427      7.33E-08
   13   -2925.5321612436      2.64E-08
   14   -2925.5321612256      9.41E-09 Convergence criterion met
 ---------------------------------------
 SCF time:  CPU 5496.68 s  wall 1276.20 s
 SCF   energy in the final basis set = -2925.53216123
 Total energy in the final basis set = -2925.53216123
 
 Direct TDDFT/TDA calculation will be performed
 Exchange:     0.4200 Hartree-Fock + 0.5800 PBEh-3c
 Correlation:  1.0000 PBEh-3c
 Using SG-1 standard quadrature grid
 Dispersion:   Grimme D3
 Singlet excitation energies requested
 CIS energy converged when residual is below 10e- 6
 ---------------------------------------------------
 Iter    Rts Conv    Rts Left    Ttl Dev     Max Dev
 ---------------------------------------------------
   1         0           6      0.000272    0.000132
   2         0           6      0.000100    0.000038
   3         0           6      0.000058    0.000021
   4         2           4      0.000017    0.000008
   5         3           3      0.000010    0.000004
   6         5           1      0.000005    0.000001
   7         6           0      0.000004    0.000001    Roots Converged
 ---------------------------------------------------
 
 ---------------------------------------------------
         TDDFT/TDA Excitation Energies              
 ---------------------------------------------------

 Excited state   1: excitation energy (eV) =    2.9195
 Total energy for state  1:                 -2925.42487195 au
    Multiplicity: Singlet
    Trans. Mom.:  0.1448 X  -0.0793 Y   0.0940 Z
    Strength   :     0.0025815414
    D(251) --> V(  1) amplitude =  0.3560
    D(252) --> V(  1) amplitude =  0.8840

 Excited state   2: excitation energy (eV) =    2.9559
 Total energy for state  2:                 -2925.42353407 au
    Multiplicity: Singlet
    Trans. Mom.:  0.0439 X   0.0123 Y   0.0142 Z
    Strength   :     0.0001652818
    D(241) --> V(  1) amplitude =  0.2123
    D(251) --> V(  1) amplitude =  0.8930
    D(252) --> V(  1) amplitude = -0.3664

 Excited state   3: excitation energy (eV) =    2.9976
 Total energy for state  3:                 -2925.42200185 au
    Multiplicity: Singlet
    Trans. Mom.: -0.0044 X   0.0265 Y   0.0001 Z
    Strength   :     0.0000530323
    D(247) --> V(  1) amplitude =  0.9584

 Excited state   4: excitation energy (eV) =    3.2852
 Total energy for state  4:                 -2925.41143340 au
    Multiplicity: Singlet
    Trans. Mom.: -0.1962 X  -3.3972 Y   0.2351 Z
    Strength   :     0.9364107083
    D(248) --> V(  1) amplitude =  0.9443

 Excited state   5: excitation energy (eV) =    3.5316
 Total energy for state  5:                 -2925.40237608 au
    Multiplicity: Singlet
    Trans. Mom.: -0.0023 X   0.0100 Y  -0.0095 Z
    Strength   :     0.0000168156
    D(250) --> V(  1) amplitude =  0.9988

 Excited state   6: excitation energy (eV) =    3.5428
 Total energy for state  6:                 -2925.40196547 au
    Multiplicity: Singlet
    Trans. Mom.: -0.0050 X  -0.0145 Y  -0.0100 Z
    Strength   :     0.0000289086
    D(249) --> V(  1) amplitude =  0.9984
 
 ---------------------------------------------------
  SETman timing summary (seconds)
  CPU time              8845.26s
  System time              0.01s
  Wall time             1312.98s
================================================================================
                             Excited State Analysis
================================================================================

Created directory /scratch/mewes1/137702/plot_singlets.out.plots/plots
  ----------------------------------------------------------------------------
                            Density Matrix Analysis
  ----------------------------------------------------------------------------

  Excited state   1:
  ------------------
    
    Mulliken Population Analysis
     Atom      Charge (e)              h+              e-           Del q
    ---------------------------------------------------------------------
      1 C       -0.336490        0.022017       -0.000695        0.021322
      2 C        0.068214        0.017364       -0.000949        0.016415
      3 C       -0.150735        0.071277       -0.010560        0.060718
      4 C        0.064631        0.015238       -0.001008        0.014230
      5 C       -0.327365        0.023189       -0.000590        0.022599
      6 C        0.361439        0.041223       -0.000176        0.041047
      7 N       -0.614694        0.123476       -0.000017        0.123459
      8 C       -0.762174        0.001319       -0.002633       -0.001314
      9 C       -0.764704        0.001183       -0.002681       -0.001497
     10 C        0.342234        0.007628       -0.000016        0.007612
     11 C        0.128589        0.024831       -0.000002        0.024829
     12 C        0.117856        0.026991       -0.000003        0.026988
     13 C        0.352017        0.008825       -0.000014        0.008811
     14 C       -0.326448        0.017812       -0.000005        0.017807
     15 C       -0.176476        0.052297       -0.000006        0.052292
     16 C       -0.235431        0.001097       -0.000001        0.001095
     17 C       -0.233402        0.048801       -0.000012        0.048789
     18 C       -0.232251        0.048545       -0.000012        0.048533
     19 C       -0.234598        0.001301       -0.000002        0.001299
     20 C       -0.177801        0.049531       -0.000004        0.049527
     21 C       -0.328014        0.018501       -0.000006        0.018495
     22 C       -0.199639        0.005525       -0.050777       -0.045252
     23 C       -0.194569        0.007752       -0.049599       -0.041847
     24 B        0.536628        0.004094       -0.172439       -0.168345
     25 C       -0.196940        0.008025       -0.051268       -0.043243
     26 C       -0.198573        0.005816       -0.051001       -0.045185
     27 B        0.549219        0.003341       -0.157716       -0.154375
     28 C       -0.397400        0.001942       -0.012785       -0.010843
     29 C        0.059292        0.000361       -0.042325       -0.041964
     30 C        0.049129        0.000336       -0.044006       -0.043670
     31 C       -0.397570        0.001818       -0.011300       -0.009483
     32 C       -0.394661        0.001781       -0.011232       -0.009452
     33 C        0.049469        0.000305       -0.044104       -0.043799
     34 C        0.065830        0.000303       -0.041006       -0.040703
     35 C       -0.405794        0.001813       -0.013396       -0.011584
     36 C       -0.407479        0.000022       -0.024987       -0.024965
     37 C       -0.206112        0.000008       -0.001502       -0.001493
     38 C       -0.354694        0.000032       -0.020945       -0.020913
     39 C        0.250393        0.000008       -0.000422       -0.000414
     40 C       -0.061862        0.000047       -0.000089       -0.000042
     41 C        0.194734        0.000131       -0.004168       -0.004037
     42 C       -0.353905        0.000010       -0.021305       -0.021295
     43 C       -0.206420        0.000000       -0.001524       -0.001524
     44 C       -0.406428        0.000017       -0.025108       -0.025091
     45 C        0.194659        0.000056       -0.004165       -0.004108
     46 C       -0.205393        0.000002       -0.001468       -0.001466
     47 C       -0.407126        0.000018       -0.024060       -0.024042
     48 C        0.192251        0.000119       -0.003929       -0.003809
     49 C       -0.061606        0.000040       -0.000095       -0.000055
     50 C        0.254221        0.000010       -0.000416       -0.000406
     51 C       -0.356168        0.000012       -0.020161       -0.020149
     52 C        0.191735        0.000082       -0.004015       -0.003933
     53 C       -0.402121        0.000024       -0.024995       -0.024971
     54 C       -0.207442        0.000006       -0.001488       -0.001482
     55 C       -0.354577        0.000025       -0.021279       -0.021254
     56 C       -0.349286        0.011761       -0.000565        0.011196
     57 C        0.059162        0.009706       -0.000890        0.008815
     58 C       -0.182279        0.039577       -0.008536        0.031041
     59 C        0.060956        0.009254       -0.001189        0.008065
     60 C       -0.339901        0.012409       -0.000537        0.011873
     61 C        0.349657        0.022993       -0.000194        0.022799
     62 N       -0.678379        0.064101       -0.000020        0.064081
     63 C       -0.763981        0.000658       -0.002359       -0.001701
     64 C       -0.760308        0.000706       -0.002283       -0.001577
     65 C        0.342567        0.003950       -0.000013        0.003936
     66 C        0.109135        0.012929       -0.000002        0.012926
     67 C        0.101135        0.013758       -0.000003        0.013755
     68 C        0.349649        0.004344       -0.000012        0.004332
     69 C       -0.331600        0.009020       -0.000003        0.009017
     70 C       -0.202522        0.026484       -0.000005        0.026479
     71 C       -0.234648        0.000565       -0.000001        0.000564
     72 C       -0.256672        0.025008       -0.000010        0.024998
     73 C       -0.256359        0.024809       -0.000010        0.024799
     74 C       -0.234139        0.000632       -0.000002        0.000630
     75 C       -0.203086        0.025405       -0.000004        0.025400
     76 C       -0.332319        0.009261       -0.000004        0.009257
     77 H        0.237051        0.000046       -0.000241       -0.000195
     78 H        0.238626        0.000035       -0.000230       -0.000196
     79 H        0.247510        0.001374        0.000111        0.001485
     80 H        0.239875        0.000011       -0.001310       -0.001299
     81 H        0.249255        0.000462        0.000199        0.000661
     82 H        0.251109        0.000545        0.000152        0.000697
     83 H        0.247818        0.001031        0.000104        0.001134
     84 H        0.240706        0.000010       -0.001343       -0.001333
     85 H        0.205904        0.000009       -0.000000        0.000009
     86 H        0.214845        0.000002       -0.000000        0.000002
     87 H        0.216927        0.000013       -0.000000        0.000013
     88 H        0.237467        0.000076       -0.000000        0.000076
     89 H        0.234737        0.000105       -0.000001        0.000104
     90 H        0.215965        0.000017       -0.000000        0.000017
     91 H        0.214771        0.000003       -0.000000        0.000003
     92 H        0.205594        0.000044       -0.000000        0.000044
     93 H        0.233266        0.000014        0.000001        0.000015
     94 H        0.232411        0.000065       -0.000000        0.000065
     95 H        0.231456        0.000095        0.000001        0.000095
     96 H        0.229548        0.000203       -0.000001        0.000202
     97 H        0.221524        0.000020        0.000000        0.000020
     98 H        0.229555       -0.000000       -0.000000       -0.000000
     99 H        0.222373        0.000001       -0.000000        0.000001
    100 H        0.222368        0.000001       -0.000000        0.000001
    101 H        0.229470        0.000000       -0.000000       -0.000000
    102 H        0.221131        0.000006       -0.000000        0.000006
    103 H        0.229050        0.000000       -0.000000        0.000000
    104 H        0.220572        0.000003       -0.000000        0.000003
    105 H        0.222558        0.000000       -0.000000        0.000000
    106 H        0.220769        0.000003       -0.000000        0.000003
    107 H        0.229376        0.000000       -0.000000        0.000000
    108 H        0.222346        0.000001       -0.000000        0.000001
    109 H        0.236942        0.000026       -0.000211       -0.000186
    110 H        0.237662        0.000015       -0.000219       -0.000204
    111 H        0.240607        0.000008       -0.001134       -0.001127
    112 H        0.250455        0.000269        0.000148        0.000417
    113 H        0.246415        0.000729        0.000103        0.000832
    114 H        0.239758        0.000016       -0.001108       -0.001092
    115 H        0.249042        0.000355        0.000123        0.000478
    116 H        0.247110        0.000589       -0.000030        0.000559
    117 H        0.205566        0.000006       -0.000000        0.000006
    118 H        0.215059        0.000001       -0.000000        0.000001
    119 H        0.216505        0.000006       -0.000000        0.000006
    120 H        0.234828        0.000040       -0.000000        0.000040
    121 H        0.235117        0.000057       -0.000000        0.000057
    122 H        0.216413        0.000009       -0.000000        0.000009
    123 H        0.214955        0.000001       -0.000000        0.000001
    124 H        0.205372        0.000021       -0.000000        0.000021
    ---------------------------------------------------------------------
     Sum:       -0.000000        1.000000       -1.000000       -0.000000
    
    Exciton analysis of the difference density matrix
      <r_h> [Ang]:                  [ -3.507206,  -1.763873,   0.989957]
      <r_e> [Ang]:                  [ -5.243697,  -1.282573,  -0.253306]
      |<r_e - r_h>| [Ang]:            2.189235
      Hole size [Ang]:                7.337374
        Cartesian components [Ang]: [  6.279038,   1.575027,   3.453988]
      Electron size [Ang]:            4.025756
        Cartesian components [Ang]: [  1.527896,   3.554588,   1.112273]

  Excited state   2:
  ------------------
    
    Mulliken Population Analysis
     Atom      Charge (e)              h+              e-           Del q
    ---------------------------------------------------------------------
      1 C       -0.346944        0.011463       -0.000595        0.010868
      2 C        0.057975        0.007090       -0.000914        0.006176
      3 C       -0.186018        0.033771       -0.008337        0.025434
      4 C        0.055330        0.005854       -0.000925        0.004929
      5 C       -0.337946        0.012532       -0.000514        0.012018
      6 C        0.339047        0.018789       -0.000133        0.018655
      7 N       -0.667728        0.070440       -0.000016        0.070425
      8 C       -0.762517        0.000696       -0.002352       -0.001657
      9 C       -0.765053        0.000542       -0.002388       -0.001846
     10 C        0.339265        0.004654       -0.000011        0.004643
     11 C        0.117965        0.014207       -0.000001        0.014205
     12 C        0.106243        0.015377       -0.000002        0.015375
     13 C        0.348518        0.005321       -0.000009        0.005311
     14 C       -0.333604        0.010655       -0.000003        0.010651
     15 C       -0.198197        0.030574       -0.000004        0.030571
     16 C       -0.235901        0.000627       -0.000001        0.000626
     17 C       -0.253822        0.028377       -0.000009        0.028368
     18 C       -0.252398        0.028396       -0.000009        0.028386
     19 C       -0.235159        0.000740       -0.000002        0.000737
     20 C       -0.198158        0.029172       -0.000003        0.029169
     21 C       -0.335409        0.011105       -0.000005        0.011100
     22 C       -0.199987        0.004438       -0.050038       -0.045600
     23 C       -0.200542        0.002504       -0.050324       -0.047820
     24 B        0.551497        0.000282       -0.153758       -0.153476
     25 C       -0.202914        0.002463       -0.051680       -0.049217
     26 C       -0.197941        0.005364       -0.049918       -0.044553
     27 B        0.533664        0.001054       -0.170984       -0.169931
     28 C       -0.396751        0.000303       -0.010498       -0.010195
     29 C        0.056996        0.000747       -0.045006       -0.044259
     30 C        0.051643        0.000579       -0.041735       -0.041156
     31 C       -0.400534        0.000432       -0.012879       -0.012447
     32 C       -0.397509        0.000442       -0.012741       -0.012299
     33 C        0.051778        0.000711       -0.042199       -0.041489
     34 C        0.063086        0.000496       -0.043943       -0.043447
     35 C       -0.404996        0.000226       -0.011012       -0.010787
     36 C       -0.408243        0.000102       -0.025831       -0.025729
     37 C       -0.206135        0.000088       -0.001605       -0.001517
     38 C       -0.355593        0.000209       -0.022021       -0.021811
     39 C        0.250389        0.000017       -0.000435       -0.000418
     40 C       -0.061491        0.000427       -0.000098        0.000329
     41 C        0.194512        0.000190       -0.004450       -0.004259
     42 C       -0.353901        0.000039       -0.021330       -0.021290
     43 C       -0.206450        0.000028       -0.001582       -0.001553
     44 C       -0.406503        0.000016       -0.025182       -0.025166
     45 C        0.194580        0.000138       -0.004326       -0.004188
     46 C       -0.205504        0.000023       -0.001599       -0.001576
     47 C       -0.408308        0.000014       -0.025237       -0.025223
     48 C        0.191794        0.000056       -0.004323       -0.004266
     49 C       -0.061250        0.000392       -0.000090        0.000302
     50 C        0.254210        0.000016       -0.000434       -0.000418
     51 C       -0.357503        0.000031       -0.021514       -0.021484
     52 C        0.191661        0.000255       -0.004262       -0.004007
     53 C       -0.402339        0.000106       -0.025295       -0.025189
     54 C       -0.207461        0.000085       -0.001586       -0.001501
     55 C       -0.354669        0.000211       -0.021556       -0.021346
     56 C       -0.338905        0.022236       -0.000660        0.021577
     57 C        0.063364        0.013920       -0.000903        0.013018
     58 C       -0.156651        0.067057       -0.010388        0.056670
     59 C        0.064955        0.013341       -0.001277        0.012064
     60 C       -0.329151        0.023228       -0.000606        0.022622
     61 C        0.364113        0.037508       -0.000253        0.037255
     62 N       -0.613193        0.129289       -0.000022        0.129267
     63 C       -0.763796        0.001097       -0.002612       -0.001515
     64 C       -0.759963        0.001292       -0.002524       -0.001232
     65 C        0.347096        0.008485       -0.000019        0.008466
     66 C        0.122358        0.026153       -0.000003        0.026150
     67 C        0.115084        0.027707       -0.000004        0.027704
     68 C        0.354554        0.009255       -0.000018        0.009237
     69 C       -0.321547        0.019076       -0.000006        0.019070
     70 C       -0.174267        0.054742       -0.000008        0.054734
     71 C       -0.234071        0.001142       -0.000002        0.001141
     72 C       -0.230236        0.051449       -0.000016        0.051433
     73 C       -0.229950        0.051224       -0.000015        0.051208
     74 C       -0.233501        0.001270       -0.000002        0.001268
     75 C       -0.175694        0.052798       -0.000006        0.052792
     76 C       -0.321971        0.019611       -0.000007        0.019605
     77 H        0.237055        0.000029       -0.000219       -0.000190
     78 H        0.238637        0.000021       -0.000206       -0.000185
     79 H        0.246711        0.000612        0.000073        0.000686
     80 H        0.240013        0.000005       -0.001166       -0.001160
     81 H        0.248934        0.000180        0.000160        0.000340
     82 H        0.250724        0.000183        0.000129        0.000312
     83 H        0.247196        0.000447        0.000064        0.000512
     84 H        0.240851        0.000006       -0.001194       -0.001188
     85 H        0.205899        0.000004       -0.000000        0.000004
     86 H        0.214844        0.000001       -0.000000        0.000001
     87 H        0.216920        0.000006       -0.000000        0.000006
     88 H        0.237429        0.000037       -0.000000        0.000037
     89 H        0.234681        0.000049       -0.000001        0.000048
     90 H        0.215957        0.000008       -0.000000        0.000008
     91 H        0.214770        0.000001       -0.000000        0.000001
     92 H        0.205571        0.000022       -0.000000        0.000022
     93 H        0.233250       -0.000000        0.000000       -0.000000
     94 H        0.232421        0.000076       -0.000001        0.000075
     95 H        0.231487        0.000126        0.000001        0.000126
     96 H        0.229498        0.000152       -0.000001        0.000151
     97 H        0.221507        0.000003       -0.000000        0.000003
     98 H        0.229556        0.000000       -0.000000        0.000000
     99 H        0.222373        0.000001       -0.000000        0.000001
    100 H        0.222368        0.000000       -0.000000        0.000000
    101 H        0.229471        0.000001       -0.000000        0.000001
    102 H        0.221129        0.000003       -0.000000        0.000003
    103 H        0.229051        0.000001       -0.000000        0.000001
    104 H        0.220570        0.000000       -0.000000        0.000000
    105 H        0.222559        0.000001       -0.000000        0.000001
    106 H        0.220767        0.000002       -0.000000        0.000001
    107 H        0.229377        0.000001       -0.000000        0.000001
    108 H        0.222346        0.000001       -0.000000        0.000000
    109 H        0.236949        0.000052       -0.000232       -0.000180
    110 H        0.237657        0.000032       -0.000241       -0.000209
    111 H        0.240472        0.000014       -0.001276       -0.001262
    112 H        0.250557        0.000347        0.000172        0.000519
    113 H        0.246850        0.001141        0.000126        0.001267
    114 H        0.239644        0.000034       -0.001240       -0.001206
    115 H        0.249197        0.000498        0.000135        0.000633
    116 H        0.247440        0.000914       -0.000026        0.000889
    117 H        0.205569        0.000010       -0.000000        0.000009
    118 H        0.215060        0.000001       -0.000000        0.000001
    119 H        0.216508        0.000010       -0.000000        0.000010
    120 H        0.234857        0.000068       -0.000000        0.000068
    121 H        0.235158        0.000099       -0.000001        0.000098
    122 H        0.216420        0.000016       -0.000000        0.000016
    123 H        0.214956        0.000002       -0.000000        0.000002
    124 H        0.205387        0.000036       -0.000000        0.000036
    ---------------------------------------------------------------------
     Sum:       -0.000000        1.000000       -1.000000        0.000000
    
    Exciton analysis of the difference density matrix
      <r_h> [Ang]:                  [ -7.325570,  -1.550153,  -0.958211]
      <r_e> [Ang]:                  [ -5.297433,  -1.269266,  -0.282158]
      |<r_e - r_h>| [Ang]:            2.156219
      Hole size [Ang]:                7.597877
        Cartesian components [Ang]: [  6.522645,   1.585276,   3.559458]
      Electron size [Ang]:            4.064684
        Cartesian components [Ang]: [  1.530482,   3.597772,   1.111447]

  Excited state   3:
  ------------------
    
    Mulliken Population Analysis
     Atom      Charge (e)              h+              e-           Del q
    ---------------------------------------------------------------------
      1 C       -0.358085        0.000263       -0.000536       -0.000273
      2 C        0.050750        0.000063       -0.001112       -0.001049
      3 C       -0.217309        0.000257       -0.006114       -0.005857
      4 C        0.049558        0.000235       -0.001078       -0.000843
      5 C       -0.350430        0.000021       -0.000488       -0.000466
      6 C        0.320382        0.000098       -0.000108       -0.000010
      7 N       -0.737714        0.000455       -0.000017        0.000438
      8 C       -0.762633        0.000299       -0.002073       -0.001773
      9 C       -0.764821        0.000479       -0.002093       -0.001614
     10 C        0.334654        0.000038       -0.000006        0.000032
     11 C        0.103859        0.000100       -0.000002        0.000099
     12 C        0.090960        0.000093       -0.000002        0.000091
     13 C        0.343231        0.000031       -0.000006        0.000025
     14 C       -0.344187        0.000071       -0.000002        0.000069
     15 C       -0.228578        0.000192       -0.000002        0.000190
     16 C       -0.236523        0.000004       -0.000001        0.000003
     17 C       -0.282013        0.000183       -0.000005        0.000178
     18 C       -0.280591        0.000198       -0.000004        0.000193
     19 C       -0.235893        0.000005       -0.000002        0.000003
     20 C       -0.227122        0.000207       -0.000001        0.000206
     21 C       -0.346433        0.000078       -0.000002        0.000076
     22 C       -0.108489        0.093827       -0.047928        0.045899
     23 C       -0.102775        0.097160       -0.047213        0.049947
     24 B        0.539368        0.001618       -0.167223       -0.165605
     25 C       -0.104708        0.096234       -0.047245        0.048989
     26 C       -0.104292        0.095293       -0.046197        0.049096
     27 B        0.537379        0.001577       -0.167793       -0.166216
     28 C       -0.395975        0.003459       -0.012877       -0.009418
     29 C        0.137128        0.076053       -0.040181        0.035872
     30 C        0.130374        0.077098       -0.039524        0.037574
     31 C       -0.397737        0.003516       -0.013166       -0.009650
     32 C       -0.394739        0.003530       -0.013060       -0.009530
     33 C        0.129011        0.077089       -0.041345        0.035744
     34 C        0.143611        0.077799       -0.040720        0.037078
     35 C       -0.403812        0.003541       -0.013143       -0.009602
     36 C       -0.403423        0.005106       -0.026016       -0.020910
     37 C       -0.199184        0.007319       -0.001884        0.005435
     38 C       -0.340788        0.014809       -0.021815       -0.007007
     39 C        0.251943        0.001716       -0.000579        0.001136
     40 C       -0.001503        0.060817       -0.000500        0.060317
     41 C        0.203156        0.010524       -0.006139        0.004385
     42 C       -0.339086        0.015267       -0.021743       -0.006476
     43 C       -0.199324        0.007449       -0.001876        0.005573
     44 C       -0.401872        0.005375       -0.025910       -0.020535
     45 C        0.203527        0.010899       -0.006139        0.004760
     46 C       -0.198510        0.007456       -0.002038        0.005417
     47 C       -0.404836        0.005186       -0.026938       -0.021751
     48 C        0.200028        0.010600       -0.006633        0.003968
     49 C        0.000137        0.062209       -0.000521        0.061689
     50 C        0.255754        0.001742       -0.000615        0.001127
     51 C       -0.343596        0.015099       -0.022676       -0.007577
     52 C        0.200529        0.011404       -0.006543        0.004861
     53 C       -0.398780        0.005581       -0.027211       -0.021631
     54 C       -0.200283        0.007725       -0.002048        0.005677
     55 C       -0.340497        0.015920       -0.023093       -0.007173
     56 C       -0.360940        0.000050       -0.000509       -0.000459
     57 C        0.049606        0.000329       -0.001070       -0.000741
     58 C       -0.218898        0.000521       -0.006098       -0.005577
     59 C        0.051621        0.000041       -0.001311       -0.001270
     60 C       -0.351896        0.000383       -0.000506       -0.000123
     61 C        0.326939        0.000229       -0.000147        0.000081
     62 N       -0.741483        0.000998       -0.000021        0.000977
     63 C       -0.763878        0.000454       -0.002052       -0.001598
     64 C       -0.760483        0.000245       -0.001996       -0.001751
     65 C        0.338689        0.000066       -0.000007        0.000059
     66 C        0.096400        0.000194       -0.000002        0.000192
     67 C        0.087599        0.000221       -0.000002        0.000219
     68 C        0.345396        0.000085       -0.000007        0.000078
     69 C       -0.340461        0.000157       -0.000002        0.000156
     70 C       -0.228557        0.000447       -0.000002        0.000444
     71 C       -0.235204        0.000009       -0.000001        0.000008
     72 C       -0.281261        0.000414       -0.000005        0.000409
     73 C       -0.280767        0.000398       -0.000006        0.000392
     74 C       -0.234760        0.000011       -0.000002        0.000009
     75 C       -0.228082        0.000406       -0.000002        0.000404
     76 C       -0.341420        0.000158       -0.000002        0.000156
     77 H        0.237034        0.000001       -0.000213       -0.000212
     78 H        0.238622        0.000001       -0.000200       -0.000199
     79 H        0.246199        0.000066        0.000108        0.000174
     80 H        0.240147        0.000005       -0.001032       -0.001027
     81 H        0.248834        0.000077        0.000163        0.000240
     82 H        0.250654        0.000106        0.000136        0.000242
     83 H        0.246884        0.000090        0.000110        0.000200
     84 H        0.241000        0.000013       -0.001052       -0.001039
     85 H        0.205896        0.000000       -0.000000       -0.000000
     86 H        0.214843        0.000000       -0.000000        0.000000
     87 H        0.216914        0.000000       -0.000000       -0.000000
     88 H        0.237391        0.000000       -0.000000       -0.000000
     89 H        0.234633        0.000001       -0.000001        0.000000
     90 H        0.215949        0.000000       -0.000000        0.000000
     91 H        0.214769        0.000000       -0.000000       -0.000000
     92 H        0.205550        0.000000       -0.000000        0.000000
     93 H        0.233258        0.000015       -0.000007        0.000008
     94 H        0.232349        0.000010       -0.000007        0.000003
     95 H        0.231367        0.000014       -0.000007        0.000007
     96 H        0.229352        0.000012       -0.000007        0.000005
     97 H        0.221502        0.000002       -0.000004       -0.000002
     98 H        0.229555        0.000001       -0.000001        0.000000
     99 H        0.222366        0.000010       -0.000016       -0.000006
    100 H        0.222361        0.000011       -0.000017       -0.000006
    101 H        0.229470        0.000001       -0.000001        0.000000
    102 H        0.221124        0.000002       -0.000004       -0.000002
    103 H        0.229050        0.000001       -0.000001        0.000000
    104 H        0.220567        0.000002       -0.000004       -0.000002
    105 H        0.222552        0.000011       -0.000017       -0.000006
    106 H        0.220763        0.000002       -0.000004       -0.000002
    107 H        0.229376        0.000001       -0.000001        0.000000
    108 H        0.222338        0.000012       -0.000018       -0.000007
    109 H        0.236925        0.000003       -0.000206       -0.000203
    110 H        0.237658        0.000001       -0.000210       -0.000208
    111 H        0.240743        0.000005       -0.000996       -0.000991
    112 H        0.250298        0.000107        0.000153        0.000260
    113 H        0.245795        0.000087        0.000125        0.000213
    114 H        0.239891        0.000016       -0.000975       -0.000959
    115 H        0.248735        0.000056        0.000116        0.000172
    116 H        0.246652        0.000075        0.000027        0.000101
    117 H        0.205560        0.000000       -0.000000        0.000000
    118 H        0.215058        0.000000        0.000000        0.000000
    119 H        0.216499        0.000000       -0.000000        0.000000
    120 H        0.234790        0.000001       -0.000000        0.000001
    121 H        0.235060        0.000000       -0.000001       -0.000000
    122 H        0.216404        0.000000       -0.000000       -0.000000
    123 H        0.214954        0.000000       -0.000000        0.000000
    124 H        0.205351        0.000000       -0.000000        0.000000
    ---------------------------------------------------------------------
     Sum:       -0.000000        1.000000       -1.000000       -0.000000
    
    Exciton analysis of the difference density matrix
      <r_h> [Ang]:                  [ -5.276849,  -1.232861,  -0.298243]
      <r_e> [Ang]:                  [ -5.264425,  -1.211964,  -0.274281]
      |<r_e - r_h>| [Ang]:            0.034135
      Hole size [Ang]:                4.405418
        Cartesian components [Ang]: [  1.145406,   4.152655,   0.922607]
      Electron size [Ang]:            4.126892
        Cartesian components [Ang]: [  1.527332,   3.670257,   1.108022]

  Excited state   4:
  ------------------
    
    Mulliken Population Analysis
     Atom      Charge (e)              h+              e-           Del q
    ---------------------------------------------------------------------
      1 C       -0.358273        0.000014       -0.000475       -0.000460
      2 C        0.051189        0.000203       -0.000813       -0.000610
      3 C       -0.217912        0.000069       -0.006529       -0.006460
      4 C        0.049714        0.000092       -0.000779       -0.000687
      5 C       -0.350378        0.000011       -0.000425       -0.000414
      6 C        0.320302        0.000014       -0.000103       -0.000090
      7 N       -0.738068        0.000102       -0.000017        0.000085
      8 C       -0.762280        0.000622       -0.002042       -0.001420
      9 C       -0.764743        0.000539       -0.002076       -0.001537
     10 C        0.334633        0.000031       -0.000020        0.000012
     11 C        0.103783        0.000034       -0.000011        0.000023
     12 C        0.090888        0.000029       -0.000010        0.000019
     13 C        0.343220        0.000026       -0.000012        0.000014
     14 C       -0.344243        0.000026       -0.000014        0.000012
     15 C       -0.228718        0.000054       -0.000005        0.000050
     16 C       -0.236527        0.000014       -0.000015       -0.000001
     17 C       -0.282154        0.000052       -0.000015        0.000037
     18 C       -0.280748        0.000058       -0.000021        0.000037
     19 C       -0.235898        0.000017       -0.000018       -0.000001
     20 C       -0.227272        0.000064       -0.000009        0.000055
     21 C       -0.346499        0.000027       -0.000017        0.000010
     22 C       -0.174455        0.027946       -0.048014       -0.020068
     23 C       -0.173251        0.027077       -0.047606       -0.020529
     24 B        0.564623        0.001160       -0.141510       -0.140350
     25 C       -0.173504        0.029722       -0.049529       -0.019807
     26 C       -0.169921        0.031948       -0.048482       -0.016533
     27 B        0.561834        0.001212       -0.142972       -0.141760
     28 C       -0.323826        0.076421       -0.013690        0.062731
     29 C        0.061054        0.007517       -0.047719       -0.040202
     30 C        0.052591        0.006719       -0.046928       -0.040208
     31 C       -0.326695        0.075418       -0.014026        0.061392
     32 C       -0.328990        0.069807       -0.013588        0.056219
     33 C        0.053328        0.006471       -0.046410       -0.039939
     34 C        0.067311        0.006594       -0.045816       -0.039222
     35 C       -0.339146        0.068912       -0.013848        0.055064
     36 C       -0.378860        0.032446       -0.028792        0.003654
     37 C       -0.189447        0.017411       -0.002240        0.015172
     38 C       -0.307683        0.050282       -0.024183        0.026099
     39 C        0.250528        0.001227       -0.001505       -0.000279
     40 C       -0.059760        0.002971       -0.000911        0.002060
     41 C        0.239724        0.047498       -0.006545        0.040953
     42 C       -0.307879        0.048901       -0.024169        0.024731
     43 C       -0.190636        0.016473       -0.002212        0.014261
     44 C       -0.377760        0.032300       -0.028723        0.003577
     45 C        0.238383        0.046162       -0.006546        0.039616
     46 C       -0.191035        0.015029       -0.002137        0.012892
     47 C       -0.382408        0.028538       -0.027861        0.000676
     48 C        0.230687        0.040924       -0.006297        0.034627
     49 C       -0.059743        0.002628       -0.000820        0.001809
     50 C        0.254338        0.001089       -0.001378       -0.000289
     51 C       -0.315702        0.043683       -0.023367        0.020317
     52 C        0.230810        0.041373       -0.006231        0.035142
     53 C       -0.376043        0.029160       -0.028054        0.001106
     54 C       -0.193364        0.014780       -0.002184        0.012596
     55 C       -0.312587        0.044532       -0.023796        0.020736
     56 C       -0.360923        0.000007       -0.000449       -0.000442
     57 C        0.049701        0.000117       -0.000763       -0.000646
     58 C       -0.219821        0.000067       -0.006568       -0.006501
     59 C        0.052050        0.000165       -0.001006       -0.000841
     60 C       -0.352205        0.000012       -0.000443       -0.000431
     61 C        0.326723        0.000008       -0.000142       -0.000135
     62 N       -0.742428        0.000052       -0.000021        0.000032
     63 C       -0.763784        0.000530       -0.002034       -0.001504
     64 C       -0.760098        0.000624       -0.001991       -0.001367
     65 C        0.338632        0.000020       -0.000018        0.000002
     66 C        0.096217        0.000019       -0.000011        0.000008
     67 C        0.087391        0.000022       -0.000010        0.000011
     68 C        0.345325        0.000022       -0.000014        0.000008
     69 C       -0.340618        0.000014       -0.000014       -0.000000
     70 C       -0.228974        0.000033       -0.000006        0.000027
     71 C       -0.235214        0.000013       -0.000015       -0.000002
     72 C       -0.281659        0.000028       -0.000018        0.000011
     73 C       -0.281147        0.000030       -0.000019        0.000011
     74 C       -0.234770        0.000015       -0.000016       -0.000001
     75 C       -0.228463        0.000030       -0.000007        0.000023
     76 C       -0.341575        0.000016       -0.000015        0.000001
     77 H        0.237057        0.000002       -0.000191       -0.000188
     78 H        0.238646        0.000002       -0.000178       -0.000176
     79 H        0.246213        0.000131        0.000057        0.000188
     80 H        0.240208        0.000010       -0.000975       -0.000966
     81 H        0.248886        0.000173        0.000120        0.000292
     82 H        0.250668        0.000156        0.000099        0.000255
     83 H        0.246838        0.000087        0.000067        0.000154
     84 H        0.241064        0.000022       -0.000997       -0.000975
     85 H        0.205896        0.000000       -0.000000       -0.000000
     86 H        0.214843        0.000000       -0.000000       -0.000000
     87 H        0.216913        0.000001       -0.000001       -0.000001
     88 H        0.237390        0.000001       -0.000002       -0.000001
     89 H        0.234630        0.000001       -0.000004       -0.000002
     90 H        0.215947        0.000001       -0.000002       -0.000001
     91 H        0.214768        0.000000       -0.000000       -0.000000
     92 H        0.205550        0.000000       -0.000000       -0.000000
     93 H        0.233263        0.000035       -0.000022        0.000013
     94 H        0.232357        0.000035       -0.000024        0.000011
     95 H        0.231371        0.000031       -0.000021        0.000010
     96 H        0.229356        0.000031       -0.000022        0.000010
     97 H        0.221461        0.000043       -0.000086       -0.000043
     98 H        0.229537        0.000018       -0.000036       -0.000018
     99 H        0.222329        0.000045       -0.000088       -0.000043
    100 H        0.222325        0.000044       -0.000086       -0.000042
    101 H        0.229452        0.000018       -0.000036       -0.000018
    102 H        0.221084        0.000042       -0.000085       -0.000042
    103 H        0.229033        0.000016       -0.000033       -0.000016
    104 H        0.220532        0.000038       -0.000075       -0.000037
    105 H        0.222519        0.000040       -0.000079       -0.000039
    106 H        0.220726        0.000039       -0.000078       -0.000039
    107 H        0.229359        0.000017       -0.000034       -0.000017
    108 H        0.222305        0.000042       -0.000082       -0.000040
    109 H        0.236947        0.000003       -0.000184       -0.000181
    110 H        0.237680        0.000003       -0.000189       -0.000186
    111 H        0.240796        0.000009       -0.000947       -0.000938
    112 H        0.250305        0.000154        0.000113        0.000268
    113 H        0.245770        0.000107        0.000080        0.000187
    114 H        0.239961        0.000045       -0.000934       -0.000889
    115 H        0.248826        0.000184        0.000079        0.000262
    116 H        0.246626        0.000096       -0.000020        0.000075
    117 H        0.205560        0.000000       -0.000000       -0.000000
    118 H        0.215058        0.000000       -0.000000       -0.000000
    119 H        0.216498        0.000001       -0.000001       -0.000001
    120 H        0.234787        0.000001       -0.000003       -0.000002
    121 H        0.235058        0.000001       -0.000003       -0.000002
    122 H        0.216403        0.000001       -0.000002       -0.000001
    123 H        0.214954        0.000000       -0.000000       -0.000000
    124 H        0.205351        0.000000       -0.000000       -0.000000
    ---------------------------------------------------------------------
     Sum:       -0.000000        1.000000       -1.000000       -0.000000
    
    Exciton analysis of the difference density matrix
      <r_h> [Ang]:                  [ -5.270227,  -1.529151,  -0.289378]
      <r_e> [Ang]:                  [ -5.269703,  -1.298732,  -0.272687]
      |<r_e - r_h>| [Ang]:            0.231023
      Hole size [Ang]:                5.492805
        Cartesian components [Ang]: [  1.521873,   5.169029,   1.065810]
      Electron size [Ang]:            4.268739
        Cartesian components [Ang]: [  1.522302,   3.832941,   1.101494]

  Excited state   5:
  ------------------
    
    Mulliken Population Analysis
     Atom      Charge (e)              h+              e-           Del q
    ---------------------------------------------------------------------
      1 C       -0.358316        0.000000       -0.000504       -0.000504
      2 C        0.050965        0.000001       -0.000835       -0.000834
      3 C       -0.218324        0.000001       -0.006873       -0.006872
      4 C        0.049598        0.000001       -0.000803       -0.000802
      5 C       -0.350411        0.000000       -0.000447       -0.000447
      6 C        0.320295        0.000001       -0.000098       -0.000097
      7 N       -0.738166        0.000001       -0.000015       -0.000014
      8 C       -0.763025        0.000000       -0.002165       -0.002165
      9 C       -0.765404        0.000000       -0.002198       -0.002198
     10 C        0.334616        0.000001       -0.000006       -0.000005
     11 C        0.103760        0.000001       -0.000001       -0.000000
     12 C        0.090867        0.000000       -0.000001       -0.000001
     13 C        0.343201        0.000000       -0.000005       -0.000005
     14 C       -0.344256        0.000001       -0.000002       -0.000001
     15 C       -0.228769        0.000001       -0.000002       -0.000001
     16 C       -0.236527        0.000000       -0.000001       -0.000001
     17 C       -0.282195        0.000001       -0.000005       -0.000004
     18 C       -0.280788        0.000001       -0.000005       -0.000004
     19 C       -0.235898        0.000000       -0.000002       -0.000002
     20 C       -0.227328        0.000001       -0.000001        0.000000
     21 C       -0.346511        0.000000       -0.000002       -0.000002
     22 C       -0.204131        0.000029       -0.049772       -0.049744
     23 C       -0.202883        0.000007       -0.050167       -0.050161
     24 B        0.564140        0.000002       -0.140835       -0.140833
     25 C       -0.204728        0.000003       -0.051034       -0.051031
     26 C       -0.202514        0.000003       -0.049129       -0.049126
     27 B        0.545050        0.000048       -0.158593       -0.158545
     28 C       -0.395227        0.000001       -0.008671       -0.008671
     29 C        0.054507        0.000001       -0.046749       -0.046748
     30 C        0.049987        0.000000       -0.042813       -0.042812
     31 C       -0.399016        0.000003       -0.010932       -0.010929
     32 C       -0.396017        0.000002       -0.010810       -0.010808
     33 C        0.049474        0.000001       -0.043794       -0.043793
     34 C        0.060433        0.000000       -0.046100       -0.046100
     35 C       -0.403282        0.000005       -0.009077       -0.009072
     36 C       -0.410551        0.000000       -0.028038       -0.028038
     37 C       -0.206775        0.000000       -0.002157       -0.002156
     38 C       -0.358809        0.000001       -0.025028       -0.025028
     39 C        0.250306        0.000000       -0.000501       -0.000501
     40 C       -0.061898        0.000000       -0.000078       -0.000077
     41 C        0.193100        0.000001       -0.005672       -0.005671
     42 C       -0.357200        0.000000       -0.024590       -0.024590
     43 C       -0.206918        0.000000       -0.002021       -0.002021
     44 C       -0.409647        0.000000       -0.028310       -0.028310
     45 C        0.192961        0.000000       -0.005807       -0.005806
     46 C       -0.206115        0.000000       -0.002188       -0.002188
     47 C       -0.411009        0.000000       -0.027924       -0.027924
     48 C        0.190345        0.000000       -0.005716       -0.005716
     49 C       -0.061623        0.000000       -0.000071       -0.000071
     50 C        0.254120        0.000000       -0.000507       -0.000507
     51 C       -0.360912        0.000000       -0.024893       -0.024893
     52 C        0.189845        0.000000       -0.005824       -0.005823
     53 C       -0.405807        0.000000       -0.028657       -0.028657
     54 C       -0.208048        0.000000       -0.002088       -0.002088
     55 C       -0.358466        0.000000       -0.025143       -0.025143
     56 C       -0.360798        0.000325       -0.000642       -0.000316
     57 C        0.050081        0.000628       -0.000895       -0.000266
     58 C       -0.221971        0.000126       -0.008777       -0.008651
     59 C        0.051874        0.000253       -0.001270       -0.001016
     60 C       -0.351810        0.000536       -0.000573       -0.000037
     61 C        0.326710        0.000117       -0.000264       -0.000147
     62 N       -0.740838        0.001648       -0.000027        0.001621
     63 C       -0.764728        0.000035       -0.002482       -0.002447
     64 C       -0.761123        0.000015       -0.002406       -0.002391
     65 C        0.444456        0.105842       -0.000016        0.105826
     66 C        0.216348        0.120142       -0.000003        0.120140
     67 C        0.200542        0.113165       -0.000004        0.113162
     68 C        0.445974        0.100672       -0.000016        0.100656
     69 C       -0.275493        0.065131       -0.000007        0.065124
     70 C       -0.197941        0.031067       -0.000007        0.031060
     71 C       -0.070078        0.165137       -0.000003        0.165134
     72 C       -0.264411        0.017274       -0.000016        0.017258
     73 C       -0.266790        0.014383       -0.000014        0.014369
     74 C       -0.068631        0.166142       -0.000004        0.166138
     75 C       -0.191910        0.036581       -0.000005        0.036576
     76 C       -0.281091        0.060491       -0.000007        0.060484
     77 H        0.237045       -0.000000       -0.000201       -0.000201
     78 H        0.238635        0.000000       -0.000186       -0.000186
     79 H        0.246066        0.000000        0.000041        0.000041
     80 H        0.240103        0.000000       -0.001071       -0.001071
     81 H        0.248721        0.000000        0.000127        0.000127
     82 H        0.250522        0.000000        0.000110        0.000110
     83 H        0.246712        0.000000        0.000028        0.000028
     84 H        0.240947        0.000000       -0.001093       -0.001093
     85 H        0.205896        0.000000       -0.000000       -0.000000
     86 H        0.214843       -0.000000        0.000000        0.000000
     87 H        0.216914        0.000000       -0.000000       -0.000000
     88 H        0.237391        0.000000       -0.000000       -0.000000
     89 H        0.234632       -0.000000       -0.000000       -0.000000
     90 H        0.215949        0.000000       -0.000000       -0.000000
     91 H        0.214769       -0.000000       -0.000000       -0.000000
     92 H        0.205550        0.000000       -0.000000       -0.000000
     93 H        0.233251        0.000000        0.000000        0.000001
     94 H        0.232346        0.000000       -0.000000       -0.000000
     95 H        0.231362        0.000001        0.000001        0.000002
     96 H        0.229347        0.000001       -0.000001        0.000000
     97 H        0.221504        0.000000       -0.000000       -0.000000
     98 H        0.229555        0.000000       -0.000000       -0.000000
     99 H        0.222372        0.000000       -0.000000        0.000000
    100 H        0.222367        0.000000       -0.000000       -0.000000
    101 H        0.229470       -0.000000       -0.000000       -0.000000
    102 H        0.221126        0.000000        0.000000        0.000000
    103 H        0.229050        0.000000       -0.000000       -0.000000
    104 H        0.220569        0.000000       -0.000000       -0.000000
    105 H        0.222558        0.000000       -0.000000        0.000000
    106 H        0.220765       -0.000000       -0.000000       -0.000000
    107 H        0.229376        0.000000       -0.000000       -0.000000
    108 H        0.222345       -0.000000        0.000000        0.000000
    109 H        0.236918        0.000018       -0.000227       -0.000210
    110 H        0.237642        0.000012       -0.000237       -0.000224
    111 H        0.240494        0.000000       -0.001240       -0.001240
    112 H        0.250219        0.000043        0.000139        0.000181
    113 H        0.245710        0.000042        0.000086        0.000128
    114 H        0.239634        0.000000       -0.001217       -0.001216
    115 H        0.248703        0.000018        0.000122        0.000140
    116 H        0.246484        0.000017       -0.000084       -0.000067
    117 H        0.205561        0.000001       -0.000000        0.000001
    118 H        0.215058       -0.000000        0.000000       -0.000000
    119 H        0.216499        0.000001       -0.000000        0.000000
    120 H        0.234792        0.000004       -0.000000        0.000004
    121 H        0.235066        0.000006       -0.000001        0.000005
    122 H        0.216404        0.000001       -0.000000        0.000000
    123 H        0.214956        0.000002       -0.000000        0.000002
    124 H        0.205355        0.000004       -0.000000        0.000004
    ---------------------------------------------------------------------
     Sum:       -0.000000        1.000000       -1.000000        0.000000
    
    Exciton analysis of the difference density matrix
      <r_h> [Ang]:                  [-13.435848,  -1.343255,  -4.022806]
      <r_e> [Ang]:                  [ -5.300969,  -1.253047,  -0.290688]
      |<r_e - r_h>| [Ang]:            8.950592
      Hole size [Ang]:                2.687023
        Cartesian components [Ang]: [  1.043066,   1.879917,   1.611837]
      Electron size [Ang]:            4.245224
        Cartesian components [Ang]: [  1.533184,   3.799712,   1.110614]

  Excited state   6:
  ------------------
    
    Mulliken Population Analysis
     Atom      Charge (e)              h+              e-           Del q
    ---------------------------------------------------------------------
      1 C       -0.358186        0.000303       -0.000676       -0.000373
      2 C        0.051637        0.000772       -0.000933       -0.000161
      3 C       -0.220000        0.000216       -0.008763       -0.008547
      4 C        0.049614        0.000203       -0.000990       -0.000787
      5 C       -0.349899        0.000618       -0.000554        0.000065
      6 C        0.320388        0.000172       -0.000176       -0.000004
      7 N       -0.736397        0.001777       -0.000021        0.001756
      8 C       -0.763303        0.000043       -0.002485       -0.002443
      9 C       -0.765731        0.000013       -0.002538       -0.002525
     10 C        0.443482        0.108873       -0.000013        0.108860
     11 C        0.225245        0.121486       -0.000002        0.121485
     12 C        0.202789        0.111923       -0.000002        0.111921
     13 C        0.443937        0.100743       -0.000012        0.100730
     14 C       -0.280065        0.064196       -0.000006        0.064190
     15 C       -0.197320        0.031453       -0.000005        0.031447
     16 C       -0.072352        0.164177       -0.000003        0.164174
     17 C       -0.265101        0.017103       -0.000013        0.017090
     18 C       -0.267847        0.012949       -0.000011        0.012938
     19 C       -0.070311        0.165590       -0.000005        0.165586
[...]
  0.556   0.558   0.558   0.561   0.564   0.566   0.569   0.569
  0.571   0.575   0.576   0.577   0.578   0.578   0.582   0.583
  0.584   0.584   0.586   0.587   0.589   0.590   0.592   0.596
  0.598   0.599   0.600   0.600   0.601   0.601   0.601   0.605
  0.608   0.609   0.612   0.614   0.614   0.615   0.616   0.617
  0.618   0.622   0.623   0.624   0.625   0.627   0.629   0.630
  0.634   0.636   0.637   0.638   0.639   0.641   0.642   0.644
  0.644   0.645   0.647   0.649   0.651   0.653   0.654   0.655
  0.658   0.659   0.659   0.664   0.666   0.673   0.674   0.677
  0.678   0.680   0.681   0.682   0.685   0.685   0.691   0.692
  0.696   0.697   0.698   0.702   0.704   0.705   0.706   0.709
  0.716   0.720   0.723   0.724   0.725   0.726   0.727   0.731
  0.732   0.733   0.736   0.741   0.742   0.750   0.751   0.752
  0.753   0.755   0.757   0.759   0.769   0.773   0.774   0.775
  0.777   0.780   0.783   0.785   0.788   0.789   0.791   0.793
  0.795   0.797   0.803   0.806   0.816   0.818   0.821   0.825
  0.829   0.833   0.838   0.843   0.845   0.849   0.853   0.856
  0.863   0.868   0.871   0.875   0.881   0.897   0.899   0.903
  0.903   0.909   0.910   0.912   0.919   0.923   0.925   0.934
  0.935   0.938   0.939   0.941   0.942   0.944   0.945   0.946
  0.950   0.952   0.958   0.960   0.963   0.966   0.968   0.970
  0.972   0.977   0.982   0.982   0.983   0.984   0.986   0.989
  0.989   0.992   0.996   0.996   0.998   1.002   1.004   1.005
  1.006   1.009   1.011   1.012   1.016   1.018   1.022   1.025
  1.025   1.030   1.032   1.034   1.035   1.038   1.039   1.042
  1.047   1.050   1.051   1.053   1.054   1.056   1.058   1.060
  1.064   1.065   1.066   1.067   1.075   1.076   1.078   1.080
  1.082   1.083   1.084   1.086   1.087   1.088   1.095   1.097
  1.104   1.113   1.115   1.115   1.119   1.122   1.124   1.126
  1.126   1.130   1.132   1.135   1.137   1.139   1.140   1.142
  1.144   1.153   1.156   1.157   1.159   1.159   1.163   1.165
  1.168   1.173   1.182   1.184   1.193   1.199   1.200   1.203
  1.209   1.218   1.222   1.229   1.230   1.232   1.235   1.246
  1.248   1.249   1.253   1.260   1.266   1.267   1.273   1.274
  1.279   1.281   1.288   1.293   1.294   1.295   1.299   1.301
  1.306   1.309   1.311   1.312   1.315   1.317   1.318   1.322
  1.322   1.325   1.326   1.335   1.339   1.339   1.343   1.349
  1.354   1.356   1.362   1.366   1.367   1.371   1.371   1.372
  1.377   1.379   1.387   1.387   1.393   1.396   1.398   1.403
  1.405   1.406   1.407   1.410   1.413   1.418   1.432   1.437
  1.437   1.438   1.440   1.449   1.457   1.459   1.468   1.477
  1.478   1.498   1.503   1.504   1.506   1.507   1.508   1.509
  1.510   1.513   1.513   1.514   1.516   1.518   1.520   1.526
  1.528   1.529   1.532   1.533   1.535   1.537   1.539   1.539
  1.541   1.546   1.548   1.551   1.552   1.553   1.554   1.556
  1.557   1.561   1.562   1.562   1.565   1.567   1.570   1.572
  1.577   1.581   1.582   1.587   1.588   1.597   1.599   1.599
  1.603   1.606   1.611   1.629   1.637   1.645   1.650   1.650
  1.658   1.670   1.683   1.692   1.697   1.702   1.738   1.742
  1.743   1.745   1.759   1.768   1.772   1.780   1.791   1.803
  1.804   1.804   1.807   1.808   1.809   1.811   1.815   1.816
  1.827   1.828   1.830   1.831   1.831   1.841   1.846   1.850
  1.852   1.854   1.872   1.878   1.890   1.899   1.900   1.903
  1.904   1.904   1.909   1.914   1.915   1.915   1.919   1.924
  1.924   1.926   1.932   1.935   1.937   1.939   1.941   1.944
  1.946   1.951   1.951   1.953   1.953   1.975   1.980   1.981
  1.982   1.983   1.984   1.990   1.995   2.004   2.005   2.019
  2.028   2.035   2.038   2.040   2.041   2.042   2.044   2.045
  2.054   2.058   2.061   2.062   2.064   2.066   2.068   2.082
  2.082   2.085   2.091   2.094   2.107   2.108   2.116   2.123
  2.126   2.129   2.136   2.136   2.138   2.147   2.148   2.150
  2.152   2.153   2.154   2.162   2.162   2.167   2.171   2.177
  2.183   2.186   2.193   2.199   2.200   2.202   2.205   2.212
  2.215   2.219   2.225   2.228   2.229   2.232   2.234   2.238
  2.241   2.248   2.251   2.255   2.257   2.258   2.260   2.265
  2.270   2.271   2.274   2.275   2.277   2.281   2.282   2.286
  2.287   2.290   2.291   2.293   2.305   2.308   2.316   2.318
  2.318   2.321   2.322   2.335   2.337   2.337   2.340   2.342
  2.345   2.347   2.347   2.348   2.350   2.353   2.354   2.355
  2.358   2.364   2.368   2.371   2.381   2.382   2.383   2.385
  2.388   2.390   2.392   2.397   2.404   2.406   2.410   2.411
  2.414   2.417   2.420   2.428   2.429   2.433   2.444   2.446
  2.452   2.454   2.460   2.469   2.473   2.475   2.475   2.477
  2.487   2.488   2.489   2.493   2.501   2.503   2.511   2.534
  2.540   2.543   2.549   2.569   2.576   2.583   2.601   2.602
  2.609   2.625   2.632   2.633   2.638   2.640   2.640   2.657
  2.659   2.659   2.680   2.680   2.681   2.684   2.700   2.703
  2.706   2.713   2.714   2.718   2.719   2.720   2.722   2.723
  2.726   2.727   2.732   2.738   2.739   2.744   2.754   2.758
  2.766   2.768   2.772   2.773   2.774   2.779   2.782   2.784
  2.788   2.789   2.794   2.794   2.798   2.798   2.801   2.806
  2.811   2.818   2.833   2.834   2.842   2.846   2.848   2.852
  2.864   2.866   2.869   2.873   2.874   2.890   2.894   2.895
  2.897   2.900   2.915   2.916   2.923   2.926   2.931   2.935
  2.945   2.946   2.951   2.970   2.972   2.975   2.981   3.003
  3.003   3.004   3.005   3.015   3.015   3.038   3.048   3.067
  3.080   3.084   3.110   3.133   3.134   3.229   3.250   3.253
  3.272   3.273   3.330   3.335   3.400   3.436   3.440   3.445
  3.446   3.454   3.468   3.489   3.490   3.491   3.566   3.571
  3.615   3.616   3.665   3.678   9.578   9.720  13.137  13.171
 13.222  13.224  13.425  13.432  13.433  13.491  13.507  13.514
 13.522  13.541  13.672  13.676  13.699  13.702  13.713  13.719
 13.725  13.785  13.790  13.800  13.810  13.812  13.849  13.855
 13.882  13.885  13.904  13.919  13.937  13.953  13.954  13.994
 13.999  14.006  14.030  14.039  14.109  14.111  14.121  14.157
 14.158  14.186  14.188  14.191  14.211  14.217  14.218  14.224
 14.231  14.257  14.268  14.268  14.304  14.307  14.325  14.326
 14.332  14.335  14.509  14.513  14.565  14.571  14.575  14.576
 14.581  14.583  14.599  14.602  14.612  14.613  19.576  19.579
 --------------------------------------------------------------
 
 -----------------------------------------------------------------
                    Cartesian Multipole Moments
 -----------------------------------------------------------------
    Charge (ESU x 10^10)
                -0.0000
    Dipole Moment (Debye)
         X       0.0678      Y       0.2101      Z      -0.2662
       Tot       0.3458
    Quadrupole Moments (Debye-Ang)
        XX    -446.1733     XY       4.2406     YY    -371.8420
        XZ       0.2815     YZ      -4.2353     ZZ    -434.7884
    Octopole Moments (Debye-Ang^2)
       XXX    7117.7838    XXY     501.6099    XYY    2015.2700
       YYY    1690.1513    XXZ      71.2448    XYZ      71.9183
       YYZ      44.1486    XZZ    2334.3271    YZZ     741.7486
       ZZZ     174.9490
    Hexadecapole Moments (Debye-Ang^3)
      XXXX -141840.1886   XXXY   -7193.0021   XXYY  -27821.0288
      XYYY   -7816.6256   YYYY  -35207.9812   XXXZ  -16122.4728
      XXYZ    -196.7287   XYYZ   -5238.1532   YYYZ    1415.5048
      XXZZ  -26239.0067   XYZZ   -3853.3123   YYZZ  -11010.0864
      XZZZ  -16680.6025   YZZZ    1957.5026   ZZZZ  -20907.8977
 -----------------------------------------------------------------
 -----------------------------------------------------------------
               TDA Excited-State Multipoles, State  1
 -----------------------------------------------------------------
    Charge (ESU x 10^10)
                -0.0000
    Dipole Moment (Debye)
         X       8.4085      Y      -2.1017      Z       5.7054
       Tot      10.3765
    Quadrupole Moments (Debye-Ang)
        XX    -341.0024     XY     -14.6667     YY    -413.5729
        XZ      69.8088     YZ     -15.7849     ZZ    -379.0292
    Octopole Moments (Debye-Ang^2)
       XXX    5128.0471    XXY     363.3437    XYY    2349.2331
       YYY    1836.5170    XXZ    -599.3419    XYZ     -31.0075
       YYZ     103.0502    XZZ    2187.0970    YZZ     668.2358
       ZZZ     278.8947
    Hexadecapole Moments (Debye-Ang^3)
      XXXX -110173.1329   XXXY   -4587.6786   XXYY  -28846.3036
      XYYY   -9227.8649   YYYY  -37914.7574   XXXZ   -6206.9783
      XXYZ     471.1209   XYYZ   -5004.5867   YYYZ    1314.3171
      XXZZ  -22824.7955   XYZZ   -3865.0239   YYZZ  -10830.0917
      XZZZ  -15048.9377   YZZZ    1732.1431   ZZZZ  -19404.3749
 -----------------------------------------------------------------
 -----------------------------------------------------------------
               TDA Excited-State Multipoles, State  2
 -----------------------------------------------------------------
    Charge (ESU x 10^10)
                -0.0000
    Dipole Moment (Debye)
         X      -9.6738      Y      -1.1391      Z      -3.5135
       Tot      10.3549
    Quadrupole Moments (Debye-Ang)
        XX    -130.1048     XY      11.6193     YY    -418.1397
        XZ     125.6896     YZ      -3.1691     ZZ    -375.8387
    Octopole Moments (Debye-Ang^2)
       XXX    2289.3282    XXY      78.0721    XYY    2265.5905
       YYY    1857.3383    XXZ   -1425.6947    XYZ     -75.4178
       YYZ      60.7019    XZZ    1887.8526    YZZ     684.9099
       ZZZ      97.2199
    Hexadecapole Moments (Debye-Ang^3)
      XXXX  -72914.9627   XXXY    -445.3037   XXYY  -27952.0388
      XYYY   -8949.0228   YYYY  -38068.8706   XXXZ    4237.0785
      XXYZ    1306.9639   XYYZ   -4852.1218   YYYZ    1463.9459
      XXZZ  -19462.7519   XYZZ   -3656.7909   YYZZ  -10870.2049
      XZZZ  -13936.9894   YZZZ    1868.2208   ZZZZ  -19313.3926
 -----------------------------------------------------------------
 -----------------------------------------------------------------
               TDA Excited-State Multipoles, State  3
 -----------------------------------------------------------------
    Charge (ESU x 10^10)
                -0.0000
    Dipole Moment (Debye)
         X       0.0081      Y       0.1097      Z      -0.3813
       Tot       0.3969
    Quadrupole Moments (Debye-Ang)
        XX    -450.4473     XY       6.1453     YY    -353.4705
        XZ      -1.1547     YZ      -5.2085     ZZ    -436.5309
    Octopole Moments (Debye-Ang^2)
       XXX    7184.5823    XXY     489.2941    XYY    1914.0225
       YYY    1617.6851    XXZ      88.7921    XYZ      79.1435
       YYZ      40.9710    XZZ    2343.8016    YZZ     744.7277
       ZZZ     175.6876
    Hexadecapole Moments (Debye-Ang^3)
      XXXX -142451.8344   XXXY   -7143.9111   XXYY  -27314.6937
      XYYY   -7401.0973   YYYY  -34669.7417   XXXZ  -16225.8842
      XXYZ    -247.6441   XYYZ   -5251.4567   YYYZ    1415.4616
      XXZZ  -26275.1863   XYZZ   -3867.7240   YYZZ  -11016.0478
      XZZZ  -16680.1870   YZZZ    1955.5069   ZZZZ  -20914.6769
 -----------------------------------------------------------------
 -----------------------------------------------------------------
               TDA Excited-State Multipoles, State  4
 -----------------------------------------------------------------
    Charge (ESU x 10^10)
                -0.0000
    Dipole Moment (Debye)
         X       0.0653      Y      -0.8967      Z      -0.3464
       Tot       0.9635
    Quadrupole Moments (Debye-Ang)
        XX    -446.1531     XY      13.3612     YY    -310.9421
        XZ       0.7017     YZ      -7.8506     ZZ    -435.1148
    Octopole Moments (Debye-Ang^2)
       XXX    7117.9614    XXY     433.4298    XYY    1685.7326
       YYY    1419.4045    XXZ      69.1035    XYZ      89.1208
       YYZ      36.5624    XZZ    2336.1834    YZZ     743.7132
       ZZZ     174.8856
    Hexadecapole Moments (Debye-Ang^3)
      XXXX -141857.7169   XXXY   -6688.6633   XXYY  -25886.6105
      XYYY   -6217.4461   YYYY  -31405.3745   XXXZ  -16113.0048
      XXYZ    -281.4487   XYYZ   -5155.3652   YYYZ    1271.1203
      XXZZ  -26252.1754   XYZZ   -3865.5722   YYZZ  -10937.8463
      XZZZ  -16683.6753   YZZZ    1944.1922   ZZZZ  -20914.7721
 -----------------------------------------------------------------
 -----------------------------------------------------------------
               TDA Excited-State Multipoles, State  5
 -----------------------------------------------------------------
    Charge (ESU x 10^10)
                -0.0000
    Dipole Moment (Debye)
         X     -39.0057      Y      -0.2232      Z     -18.1924
       Tot      43.0402
    Quadrupole Moments (Debye-Ang)
        XX     279.8746     XY      60.1249     YY    -423.0899
        XZ     245.7420     YZ      13.0309     ZZ    -350.9099
    Octopole Moments (Debye-Ang^2)
       XXX   -3846.5766    XXY    -575.5097    XYY    2072.6523
       YYY    1881.3451    XXZ   -3266.5436    XYZ    -147.5827
       YYZ     -13.8460    XZZ    1187.3909    YZZ     716.9963
       ZZZ    -282.1639
    Hexadecapole Moments (Debye-Ang^3)
      XXXX   14531.2208   XXXY    9838.0376   XXYY  -25286.0496
      XYYY   -8287.7286   YYYY  -38512.7974   XXXZ   29133.6813
      XXYZ    2869.0453   XYYZ   -4384.2563   YYYZ    1727.7134
      XXZZ  -10858.9484   XYZZ   -3416.3221   YYZZ  -10861.2049
      XZZZ  -10712.9509   YZZZ    1983.2764   ZZZZ  -18410.9399
 -----------------------------------------------------------------
 -----------------------------------------------------------------
               TDA Excited-State Multipoles, State  6
 -----------------------------------------------------------------
    Charge (ESU x 10^10)
                -0.0000
    Dipole Moment (Debye)
         X      36.8298      Y      -5.0800      Z      21.0833
       Tot      42.7404
    Quadrupole Moments (Debye-Ang)
        XX    -557.5086     XY     -64.5575     YY    -400.6434
        XZ      38.1009     YZ     -39.6618     ZZ    -346.0766
    Octopole Moments (Debye-Ang^2)
       XXX    8081.0558    XXY     643.3529    XYY    2566.1947
       YYY    1762.6387    XXZ     268.5812    XYZ     -38.9185
       YYZ     209.0959    XZZ    2586.5393    YZZ     607.1181
       ZZZ     664.3923
    Hexadecapole Moments (Debye-Ang^3)
      XXXX -147087.3840   XXXY   -8983.1870   XXYY  -29915.9087
      XYYY  -10114.5311   YYYY  -37865.1773   XXXZ  -16245.5740
      XXYZ    -471.5262   XYYZ   -4968.2354   YYYZ     908.4535
      XXZZ  -25869.0321   XYZZ   -4254.4111   YYZZ  -10577.3884
      XZZZ  -15630.2381   YZZZ    1407.6342   ZZZZ  -18310.8409
 -----------------------------------------------------------------
Archival summary:
1\1\ctcp011\SP\ProcedureUnspecified\BasisUnspecified\272248\mewes1\FriOct1919:34:512018FriOct1919:34:512018\0\\#,ProcedureUnspecified,BasisUnspecified,\\0,1\N\C,1,1.37965\C,1,1.38016,2,108.636\C,2,1.38812,1,128.946,3,-179.555,0\H,4,1.08198,2,121.475,1,-0.27833,0\C,4,1.38251,2,117.373,1,179.577,0\H,6,1.08198,4,119.131,2,-179.668,0\C,3,1.39134,1,129.054,2,176.528,0\H,8,1.08203,3,121.534,1,1.26638,0\C,8,1.38264,3,117.645,1,-178.164,0\H,10,1.08241,8,119.161,3,179.955,0\C,10,1.39721,8,121.381,3,0.224997,0\H,12,1.08175,10,119.528,8,179.993,0\C,12,1.38248,10,120.563,8,0.474383,0\H,14,1.08264,12,120.194,10,179.018,0\C,14,1.39155,12,119.259,10,-0.412085,0\C,6,1.39766,4,121.497,2,0.284523,0\H,17,1.08153,6,119.494,4,-179.734,0\C,17,1.3824,6,120.679,4,0.341755,0\H,19,1.08272,17,120.576,6,179.802,0\C,19,1.38959,17,118.971,6,-0.449099,0\C,1,1.40782,2,126.142,3,172.881,0\C,22,1.38653,1,119.963,2,127.106,0\H,23,1.08368,22,119.621,1,-3.08143,0\C,22,1.3877,1,120.035,2,-55.0021,0\H,25,1.08353,22,119.588,1,0.727614,0\C,25,1.38823,22,120.36,1,-177.503,0\C,23,1.38947,22,120.324,1,176.021,0\C,28,1.39847,23,119.879,22,1.74407,0\C,27,1.50321,25,120.289,22,178.777,0\H,30,1.08934,27,111.846,25,7.59969,0\H,30,1.09204,27,111.607,25,128.08,0\H,30,1.09263,27,111.296,25,-112.546,0\C,28,1.50386,23,120.293,22,-176.912,0\H,34,1.08922,28,111.876,23,-3.44785,0\H,34,1.09165,28,111.737,23,-124.201,0\H,34,1.09292,28,111.067,23,116.572,0\B,29,1.57172,28,120.471,23,-175.63,0\C,38,1.55371,29,121.764,28,-88.2809,0\C,39,1.39767,38,120.576,29,3.15211,0\H,40,1.08457,39,119.402,38,-0.590903,0\C,40,1.38537,39,120.053,38,179.341,0\C,42,1.41177,40,119.839,39,0.707115,0\C,43,1.38236,42,120.572,40,-0.446966,0\H,44,1.08498,43,120.429,42,179.953,0\C,44,1.39493,43,119.919,42,-0.107682,0\C,43,1.45828,42,108.475,40,179.584,0\C,47,1.36906,43,134.856,42,-179.695,0\H,48,1.08318,47,121.963,43,0.0720264,0\C,47,1.40601,43,106.167,42,0.285358,0\C,50,1.38853,47,124.076,43,179.79,0\C,50,1.40791,47,111.29,43,-0.098533,0\C,52,1.36904,50,118.372,47,179.729,0\H,53,1.08285,52,121.862,50,-179.913,0\C,48,1.414,47,118.262,43,-179.963,0\H,55,1.08208,48,118.549,47,-179.917,0\C,55,1.37563,48,122.384,47,0.0913011,0\H,57,1.08288,55,119.692,48,179.927,0\C,53,1.41527,52,118.436,50,0.0343331,0\H,59,1.08189,53,118.425,52,-179.934,0\C,59,1.3755,53,122.576,52,0.101944,0\H,61,1.08285,59,119.801,53,179.946,0\B,46,1.55402,44,119.85,43,-179.875,0\C,63,1.55046,46,119.902,44,177.931,0\C,64,1.39713,63,120.111,46,-178.671,0\H,65,1.08485,64,119.909,63,-0.573006,0\C,65,1.38162,64,119.904,63,179.508,0\C,67,1.41252,65,120.22,64,-0.00240394,0\C,68,1.38241,67,120.237,65,0.481223,0\H,69,1.08392,68,120.119,67,179.356,0\C,69,1.39743,68,119.996,67,-0.382474,0\C,68,1.46426,67,108.054,65,179.877,0\C,72,1.37018,68,135.477,67,-179.712,0\H,73,1.08258,72,121.972,68,-0.169582,0\C,72,1.40657,68,106.129,67,-0.097593,0\C,75,1.39117,72,124.333,68,-179.565,0\C,75,1.40636,72,111.542,68,0.0333179,0\C,77,1.37094,75,118.542,72,-179.651,0\H,78,1.08304,77,122.024,75,-179.987,0\C,76,1.41487,75,116.131,72,-0.200971,0\H,80,1.08325,76,120.001,75,179.993,0\C,80,1.37491,76,120.055,75,0.113253,0\H,82,1.082,80,119,76,179.878,0\C,78,1.41493,77,118.624,75,0.0434981,0\H,84,1.08228,78,118.524,77,179.946,0\C,84,1.37487,78,122.382,77,-0.0238086,0\H,86,1.08327,84,119.839,78,179.925,0\C,63,1.5717,46,120.667,44,-2.30176,0\C,88,1.39991,63,120.399,46,95.6624,0\C,89,1.38893,88,119.93,63,178.299,0\H,90,1.08414,89,120.174,88,-178.108,0\C,90,1.38671,89,120.374,88,0.996856,0\C,92,1.38657,90,119.928,89,-0.652325,0\H,93,1.08377,92,119.267,90,179.301,0\C,93,1.38909,92,120.414,90,-0.52922,0\N,92,1.4091,90,120.066,89,-179.467,0\C,96,1.38178,92,125.068,90,118.274,0\C,96,1.38194,92,126.044,90,-55.6034,0\C,98,1.38957,96,129.764,92,-4.54698,0\H,99,1.08155,98,121.513,96,-0.294245,0\C,99,1.38375,98,117.632,96,179.436,0\H,101,1.08215,99,119.051,98,-179.721,0\C,97,1.39041,96,129.727,92,1.65038,0\H,103,1.08163,97,121.597,96,1.83162,0\C,103,1.38376,97,117.701,96,-177.53,0\H,105,1.08221,103,119.042,97,179.888,0\C,105,1.39731,103,121.66,97,0.258897,0\H,107,1.0818,105,119.635,103,179.874,0\C,107,1.38158,105,120.358,103,0.270381,0\H,109,1.0831,107,120.462,105,179.116,0\C,109,1.39129,107,119.017,105,-0.274601,0\C,101,1.39743,99,121.674,98,0.17019,0\H,112,1.08178,101,119.6,99,-179.727,0\C,112,1.38151,101,120.398,99,0.235868,0\H,114,1.08306,112,120.554,101,-179.997,0\C,114,1.39048,112,118.946,101,-0.23876,0\C,95,1.50228,93,119.977,92,-178.392,0\H,117,1.08946,95,111.71,93,-2.73792,0\H,117,1.09161,95,111.597,93,-123.183,0\H,117,1.09242,95,111.236,93,117.292,0\C,89,1.50306,88,120.162,63,0.17021,0\H,121,1.08947,89,111.765,88,-171.883,0\H,121,1.09177,89,111.672,88,-51.4325,0\H,121,1.0922,89,111.19,88,68.0326,0\\\@

 Total job time:  108063.49s(wall), 119890.39s(cpu) 
 Fri Oct 19 19:34:51 2018

        *************************************************************
        *                                                           *
        *  Thank you very much for using Q-Chem.  Have a nice day.  *
        *                                                           *
        *************************************************************


0 sent ACK to 0 
now end server 0 ... 
