mFile = /cm/shared/apps/q-chem/intel/QCHEM_5.1.0_Trunk/bin/mpi/machines
Process 0 of 1 is on ctcp010 - thread support 0
initial socket setup ...start
initial socket setup ...done 
now start server 0 ... 
Q-Chem Developer Version!
                  Welcome to Q-Chem
     A Quantum Leap Into The Future Of Chemistry


 Q-Chem 5.1, Q-Chem, Inc., Pleasanton, CA (2018)

 Yihan Shao,  Zhengting Gan,  E. Epifanovsky,  A. T. B. Gilbert,  M. Wormit,  
 J. Kussmann,  A. W. Lange,  A. Behn,  Jia Deng,  Xintian Feng,  D. Ghosh,  
 M. Goldey,  P. R. Horn,  L. D. Jacobson,  I. Kaliman,  T. Kus,  A. Landau,  
 Jie Liu,  E. I. Proynov,  R. M. Richard,  R. P. Steele,  E. J. Sundstrom,  
 H. L. Woodcock III,  P. M. Zimmerman,  D. Zuev,  B. Albrecht,  E. Alguire,  
 S. A. Baeppler,  D. Barton,  Z. Benda,  Y. A. Bernard,  E. J. Berquist,  
 K. B. Bravaya,  H. Burton,  D. Casanova,  Chun-Min Chang,  Yunqing Chen,  
 A. Chien,  K. D. Closser,  M. P. Coons,  S. Coriani,  S. Dasgupta,  
 A. L. Dempwolff,  M. Diedenhofen,  Hainam Do,  R. G. Edgar,  Po-Tung Fang,  
 S. Faraji,  S. Fatehi,  Qingguo Feng,  K. D. Fenk,  J. Fosso-Tande,  
 Qinghui Ge,  A. Ghysels,  G. Gidofalvi,  J. Gomes,  J. Gonthier,  A. Gunina,  
 D. Hait,  M. W. D. Hanson-Heine,  P. H. P. Harbach,  A. W. Hauser,  
 J. E. Herr,  E. G. Hohenstein,  Z. C. Holden,  Kerwin Hui,  B. C. Huynh,  
 T.-C. Jagau,  Hyunjun Ji,  B. Kaduk,  K. Khistyaev,  Jaehoon Kim,  
 P. Klunzinger,  K. Koh,  D. Kosenkov,  L. Koulias,  T. Kowalczyk,  
 C. M. Krauter,  A. Kunitsa,  Ka Un Lao,  A. Laurent,  K. V. Lawler,  
 Joonho Lee,  D. Lefrancois,  S. Lehtola,  D. S. Levine,  Yi-Pei Li,  
 You-Sheng Lin,  Fenglai Liu,  E. Livshits,  A. Luenser,  P. Manohar,  
 E. Mansoor,  S. F. Manzer,  Shan-Ping Mao,  Yuezhi Mao,  N. Mardirossian,  
 A. V. Marenich,  T. Markovich,  L. A. Martinez-Martinez,  S. A. Maurer,  
 N. J. Mayhall,  S. C. McKenzie,  J.-M. Mewes,  A. F. Morrison,  
 J. W. Mullinax,  K. Nanda,  T. S. Nguyen-Beck,  R. Olivares-Amaya,  
 J. A. Parkhill,  T. M. Perrine,  F. Plasser,  P. Pokhilko,  S. Prager,  
 A. Prociuk,  E. Ramos,  D. R. Rehn,  F. Rob,  M. Schneider,  N. Sergueev,  
 S. M. Sharada,  S. Sharma,  D. W. Small,  T. Stauch,  T. Stein,  
 Yu-Chuan Su,  A. J. W. Thom,  A. Tkatchenko,  T. Tsuchimochi,  N. M. Tubman,  
 L. Vogt,  M. L. Vidal,  O. Vydrov,  M. A. Watson,  J. Wenzel,  
 M. de Wergifosse,  T. A. Wesolowski,  A. White,  J. Witte,  A. Yamada,  
 Jun Yang,  K. Yao,  S. Yeganeh,  S. R. Yost,  Zhi-Qiang You,  A. Zech,  
 Igor Ying Zhang,  Xing Zhang,  Yan Zhao,  Ying Zhu,  B. R. Brooks,  
 G. K. L. Chan,  C. J. Cramer,  M. S. Gordon,  W. J. Hehre,  A. Klamt,  
 M. W. Schmidt,  C. D. Sherrill,  D. G. Truhlar,  A. Aspuru-Guzik,  R. Baer,  
 A. T. Bell,  N. A. Besley,  Jeng-Da Chai,  A. E. DePrince, III,  
 R. A. DiStasio Jr.,  A. Dreuw,  B. D. Dunietz,  T. R. Furlani,  
 Chao-Ping Hsu,  Yousung Jung,  Jing Kong,  D. S. Lambrecht,  WanZhen Liang,  
 C. Ochsenfeld,  V. A. Rassolov,  L. V. Slipchenko,  J. E. Subotnik,  
 T. Van Voorhis,  J. M. Herbert,  A. I. Krylov,  P. M. W. Gill,  M. Head-Gordon

 Contributors to earlier versions of Q-Chem not listed above: 
 R. D. Adamson,  B. Austin,  J. Baker,  G. J. O. Beran,  K. Brandhorst,  
 S. T. Brown,  E. F. C. Byrd,  A. K. Chakraborty,  C.-L. Cheng,  
 Siu Hung Chien,  D. M. Chipman,  D. L. Crittenden,  H. Dachsel,  
 R. J. Doerksen,  A. D. Dutoi,  L. Fusti-Molnar,  W. A. Goddard III,  
 A. Golubeva-Zadorozhnaya,  S. R. Gwaltney,  G. Hawkins,  A. Heyden,  
 S. Hirata,  G. Kedziora,  F. J. Keil,  C. Kelley,  Jihan Kim,  R. A. King,  
 R. Z. Khaliullin,  P. P. Korambath,  W. Kurlancheek,  A. M. Lee,  M. S. Lee,  
 S. V. Levchenko,  Ching Yeh Lin,  D. Liotard,  R. C. Lochan,  I. Lotan,  
 P. E. Maslen,  N. Nair,  D. P. O'Neill,  D. Neuhauser,  E. Neuscamman,  
 C. M. Oana,  R. Olson,  B. Peters,  R. Peverati,  P. A. Pieniazek,  
 Y. M. Rhee,  J. Ritchie,  M. A. Rohrdanz,  E. Rosta,  N. J. Russ,  
 H. F. Schaefer III,  N. E. Schultz,  N. Shenvi,  A. C. Simmonett,  A. Sodt,  
 D. Stuck,  K. S. Thanthiriwatte,  V. Vanovschi,  Tao Wang,  A. Warshel,  
 C. F. Williams,  Q. Wu,  X. Xu,  W. Zhang

 Please cite Q-Chem as follows:
 Y. Shao et al., Mol. Phys. 113, 184-215 (2015)
 DOI: 10.1080/00268976.2014.952696

 Q-Chem 5.1.1 for Intel X86 EM64T Linux

 Parts of Q-Chem use Armadillo 8.300.2 (Tropical Shenanigans).
 http://arma.sourceforge.net/

 Q-Chem begins on Thu Oct 25 22:18:05 2018  

Host: ctcp010
0

     Scratch files written to /scratch/mewes/138419/qchem103481//
 Parallel job on  1  processors
The previous job contains 0 fragments, simply inherited here
Input Ideriv = 1
Curr. Ideriv = -1
Max.  Ideriv = 1

Checking the input file for inconsistencies... 	...done.

--------------------------------------------------------------
User input:
--------------------------------------------------------------
$rem
threads 8
jobtype	opt
method PBEh-3c
basis def2-mSVP
mem_static	1024
mem_total	12000
sym_ignore	true
cis_n_roots             2
cis_singlets            true
cis_triplets		false
rpa                     false
cis_state_deriv         1
$end


$molecule
read s1opt.mol
$end

--------------------------------------------------------------
 Adding empirical dispersion correction 
 ----------------------------------------------------------------
 Doing -D3(BJ) with
 s6 =   1.00000
 s8 =   0.00000
 a1 =   0.48600
 a2 =   4.50000
 -D3 energy including 3body term =     -0.0864406676 hartrees
 ----------------------------------------------------------------
 Adding gCP correction 
 ----------------------------------------------------------------
 gCP energy =      0.1134392105 hartrees
 ----------------------------------------------------------------
             Standard Nuclear Orientation (Angstroms)
    I     Atom           X                Y                Z
 ----------------------------------------------------------------
    1      C       0.0000000000     0.0000000000     0.0000000000
    2      C       0.0000000000     0.0000000000     1.4130850000
    3      H       0.9346230733     0.0000000000     1.9643562752
    4      C      -1.1795513383     0.0010398936     2.1106553440
    5      C      -2.4217881123     0.0051897114     1.4116958158
    6      C      -2.4428293837     0.0008957786     0.0380866746
    7      H      -3.3900572260     0.0059325307    -0.4912094182
    8      C      -1.2464685127    -0.0011976367    -0.6972834069
    9      C      -3.4980022397     0.0202001915     2.3977751381
   10      C      -4.8702273775     0.0419784894     2.3484236622
   11      H      -5.4079371181     0.0514229587     1.4085902451
   12      C      -2.8740716967     0.0178822266     3.6611945697
   13      C      -3.5622068044     0.0318401816     4.8724372110
   14      C      -1.4704591114     0.0071364248     3.5451189217
   15      C      -0.7259032511     0.0090016119     4.6977925521
   16      H       0.3566193002     0.0037846439     4.6788409154
   17      C      -1.3960701154     0.0190320653     5.9420621319
   18      H      -0.8048231112     0.0201492190     6.8488716091
   19      C      -2.7676200857     0.0298754020     6.0427146529
   20      H      -3.2398314840     0.0396934357     7.0177583599
   21      C      -5.5931724720     0.0571722488     3.5631161330
   22      H      -6.6748423981     0.0762379760     3.5192478583
   23      C      -4.9759801443     0.0508169491     4.7921143311
   24      H      -5.5714074324     0.0631215369     5.6970460950
   25      B       1.2917718606     0.0206564819    -0.8056012201
   26      C       1.2950763290     0.0349778267    -2.3271812362
   27      C       2.4924838471     0.0776272848    -3.0773358203
   28      H       3.4500047294     0.0739757259    -2.5655379792
   29      C       2.4589796359     0.1344857269    -4.4496138082
   30      C       1.2046275565     0.1457436706    -5.1258587156
   31      C       0.0292209832     0.0892337283    -4.4150443512
   32      H      -0.9242425199     0.0996225593    -4.9328410219
   33      C       0.0396415204     0.0369410662    -3.0126246297
   34      C       1.4572217127     0.2517576440    -6.5538759328
   35      C       0.6664110684     0.3352908277    -7.6712815796
   36      H      -0.4145683691     0.3150889391    -7.6073964760
   37      C       2.8570601159     0.2962627162    -6.7083330823
   38      C       3.5010362576     0.4236417838    -7.9339398043
   39      C       3.5122693322     0.2247405287    -5.4617417173
   40      C       4.8824013959     0.2735721292    -5.4469277531
   41      H       5.4454510220     0.2271096704    -4.5230632677
   42      C       1.2952636783     0.4608405934    -8.9299105785
   43      H       0.6732008417     0.5294101162    -9.8132162444
   44      C       2.6630360186     0.5045313666    -9.0733604950
   45      H       3.0981891776     0.6062883143   -10.0597915851
   46      C       5.5667982612     0.3949676077    -6.6776222146
   47      H       6.6484558077     0.4343803789    -6.6640857030
   48      C       4.9146041247     0.4697911002    -7.8869483863
   49      H       5.4849870325     0.5683680478    -8.8022390228
   50      B      -1.2832495759     0.0056610287    -2.2311911605
   51      C       2.6438814708     0.0695178453     0.0083679428
   52      C       3.2846363019    -1.1105862216     0.4625933208
   53      C       2.7446771014    -2.3706999169     0.1601806263
   54      H       1.8429263522    -2.4276764647    -0.4334652186
   55      C       3.3506647479    -3.5323897822     0.6222702521
   56      H       2.9178430169    -4.4929197514     0.3818268144
   57      C       4.5018293029    -3.4601470429     1.3921324544
   58      H       4.9698229201    -4.3649371529     1.7537960315
   59      C       5.0565702287    -2.2242346580     1.7044985596
   60      H       5.9532587671    -2.1720398119     2.3091212474
   61      C       4.4618079037    -1.0460207932     1.2492741133
   62      C       4.9929506885     0.2240084095     1.5652452725
   63      H       5.8922401052     0.2867089558     2.1651280382
   64      C       4.3764920051     1.3803706841     1.1279327539
   65      H       4.8012906168     2.3402317772     1.3906434137
   66      C       3.2141612059     1.3314634206     0.3651625434
   67      C       2.5394264023     2.5822129961    -0.0756559135
   68      H       3.0767807827     3.4730670581     0.2437833397
   69      H       2.4362109675     2.6019160392    -1.1619163406
   70      H       1.5232341918     2.6235501317     0.3226369675
   71      C      -2.6754125861    -0.0293209633    -2.9807754291
   72      C      -3.2840153237    -1.2362868820    -3.2645633903
   73      C      -4.5327990555    -1.2662829582    -3.9240223181
   74      H      -4.9899361435    -2.2251182616    -4.1400570750
   75      C      -5.1715310090    -0.1171815199    -4.2911160074
   76      H      -6.1282445123    -0.1571886080    -4.7986844984
   77      C      -4.5939027572     1.1370237568    -4.0088331290
   78      C      -5.2334310653     2.3477054888    -4.3618541410
   79      H      -6.1899932600     2.3047747353    -4.8699086022
   80      C      -4.6634454378     3.5538820965    -4.0690160296
   81      H      -5.1631607340     4.4743483364    -4.3424016194
   82      C      -3.4210945285     3.6006624065    -3.4066534609
   83      H      -2.9743156051     4.5586143872    -3.1736069295
   84      C      -2.7795378986     2.4449977238    -3.0586023778
   85      H      -1.8252788936     2.4936219141    -2.5477951610
   86      C      -3.3383289952     1.1753118119    -3.3477710969
   87      C      -2.6380656137    -2.5293899872    -2.8519575596
   88      H      -3.1667976068    -3.3923471421    -3.2572765305
   89      H      -1.6015678008    -2.5859097577    -3.1891801461
   90      H      -2.6237915244    -2.6303539691    -1.7643350118
 ----------------------------------------------------------------
 Nuclear Repulsion Energy =  6720.4343017380 hartrees
 There are      184 alpha and      184 beta electrons
 Requested basis set is def2-mSVP
 There are 460 shells and 908 basis functions

 Total QAlloc Memory Limit  12000 MB
 Mega-Array Size      1001 MB
 MEM_STATIC part      1024 MB
 A cutoff of  1.0D-11 yielded  38694 shell pairs
 There are    158096 function pairs (    174490 Cartesian)
 
 -------------------------------------------------------
 OpenMP Integral Computing Module                       
 Release: version 1.0, May 2013, Q-Chem Inc. Pittsburgh 
 -------------------------------------------------------
 Integral Job Info:
 Integral job number is                      11
 Integral operator is                         1
 short-range coefficients                     0
 long-range coefficients              100000000
 Omega coefficients                           0
 if combine SR and LR in K                    0
 Integral screening is                        0
 Integral computing path is                   2
 max size of driver memory is            800000
 size of driver memory is                593474
 size of scratch memory is              1809772
 max col of scratch BK array               1296
 max len of scratch array in speh3          155
 max len of scratch index in speh4           18
 max int batch size is                      520
 min int batch size is                       52
 fixed nKL is                                52
 max L of basis functions is                  2
 order of int derivative is                   0
 number of shells is                        460
 number of basis is                         964
 number of cartesian basis is               964
 number of contracted shell pairs         38694
 number of primitive shell pairs          80867
 maxK2 (contraction) of shell pair           25
 max number of K2 of shell pair               1
 max number of CS2 of shell pair           9058
 max number of PS2 of shell pair          14260
 mem total for path MDJ                  929468
 -------------------------------------------------------
 Smallest overlap matrix eigenvalue = 1.97E-04

 Scale SEOQF with 1.000000e-02/1.000000e-01/1.000000e-02

 Standard Electronic Orientation quadrupole field applied
 Nucleus-field energy     =    -0.0000000022 hartrees
 Guess from superposition of atomic densities
 Warning:  Energy on first SCF cycle will be non-variational
 SAD guess density has 368.000000 electrons

 -----------------------------------------------------------------------
  General SCF calculation program by
  Eric Jon Sundstrom, Paul Horn, Yuezhi Mao, Dmitri Zuev, Alec White,
  David Stuck, Shaama M.S., Shane Yost, Joonho Lee, David Small,
  Daniel Levine, Susi Lehtola, Hugh Burton, Evgeny Epifanovsky
 -----------------------------------------------------------------------
 Exchange:     0.4200 Hartree-Fock + 0.5800 PBEh-3c
 Correlation:  1.0000 PBEh-3c
 Using SG-1 standard quadrature grid
 Dispersion:   Grimme D3
 using 8 threads for integral computing
 -------------------------------------------------------
 OpenMP Integral computing Module                
 Release: version 2.0, May 2017, Q-Chem Inc. Pleasanton 
 -------------------------------------------------------
 -------------------------------------------------------
 OpenMP BLAS3 based DFT computing Module                
 Release: version 1.0, May 2013, Q-Chem Inc. Pittsburgh 
 -------------------------------------------------------
 A restricted SCF calculation will be
 performed using DIIS
 SCF converges when DIIS error is below 1.0e-08
 ---------------------------------------
  Cycle       Energy         DIIS error
 ---------------------------------------
    1   -2142.4809536277      2.85e-02  
    2   -2122.9622902607      1.80e-03  
    3   -2123.1593567355      1.34e-03  
    4   -2123.3394155593      5.08e-04  
    5   -2123.3647529348      2.32e-04  
    6   -2123.3707833720      6.26e-05  
    7   -2123.3711771230      1.62e-05  
    8   -2123.3712044281      5.96e-06  
    9   -2123.3712084891      1.53e-06  
   10   -2123.3712088263      7.96e-07  
   11   -2123.3712089193      2.40e-07  
   12   -2123.3712089296      8.77e-08  
   13   -2123.3712089309      3.64e-08  
   14   -2123.3712089311      1.45e-08  
   15   -2123.3712089311      7.41e-09  Convergence criterion met
 ---------------------------------------
 SCF time:   CPU 5717.67s  wall 715.00s 
 SCF   energy in the final basis set =    -2123.3712089311
 Total energy in the final basis set =    -2123.3712089311
 
 Direct TDDFT/TDA calculation will be performed
 Exchange:     0.4200 Hartree-Fock + 0.5800 PBEh-3c
 Correlation:  1.0000 PBEh-3c
 Using SG-1 standard quadrature grid
 Dispersion:   Grimme D3
 Singlet excitation energies requested
 CIS energy converged when residual is below 10e- 6
 ---------------------------------------------------
 Iter    Rts Conv    Rts Left    Ttl Dev     Max Dev
 ---------------------------------------------------
   1         0           2      0.000084    0.000044
   2         0           2      0.000061    0.000035
   3         0           2      0.000016    0.000009
   4         0           2      0.000009    0.000005
   5         0           2      0.000004    0.000003
   6         1           1      0.000005    0.000004
   7         1           1      0.000004    0.000004
   8         1           1      0.000004    0.000003
   9         1           1      0.000003    0.000002
  10         1           1      0.000002    0.000002
  11         2           0      0.000002    0.000001    Roots Converged
 ---------------------------------------------------
 
 ---------------------------------------------------
         TDDFT/TDA Excitation Energies              
 ---------------------------------------------------

 Excited state   1: excitation energy (eV) =    2.4736
 Total energy for state  1:                 -2123.28030718 au
    Multiplicity: Singlet
    Trans. Mom.: -0.1919 X   0.0138 Y   0.1620 Z
    Strength   :     0.0038336578
    D(184) --> V(  1) amplitude =  0.9770

 Excited state   2: excitation energy (eV) =    2.7606
 Total energy for state  2:                 -2123.26975740 au
    Multiplicity: Singlet
    Trans. Mom.: -0.1976 X  -0.0149 Y   0.2797 Z
    Strength   :     0.0079461946
    D(183) --> V(  1) amplitude =  0.9591
 
 ---------------------------------------------------
 Calculating Relaxed Density
 ---------------------------------------------------
 Iter    Rts Conv    Rts Left    Ttl Dev     Max Dev
 ---------------------------------------------------
   1         0           2      0.000412    0.000209
   2         0           2      0.000128    0.000065
   3         0           2      0.000053    0.000027
   4         0           2      0.000016    0.000008
   5         0           2      0.000007    0.000003
   6         0           2      0.000002    0.000001
   7         2           0      0.000000    0.000000    Roots Converged
 ---------------------------------------------------
  SETman timing summary (seconds)
  CPU time              9222.29s
  System time              0.00s
  Wall time             1293.21s
 
 --------------------------------------------------------------
 
                    Orbital Energies (a.u.)
 --------------------------------------------------------------
 
 Alpha MOs
 -- Occupied --
-10.465 -10.464 -10.464 -10.464 -10.464 -10.464 -10.463 -10.462
-10.462 -10.462 -10.462 -10.462 -10.462 -10.461 -10.461 -10.460
-10.460 -10.460 -10.459 -10.459 -10.459 -10.458 -10.455 -10.453
-10.453 -10.453 -10.452 -10.452 -10.452 -10.451 -10.448 -10.447
-10.447 -10.446 -10.445 -10.443 -10.443 -10.443 -10.443 -10.442
-10.442 -10.442 -10.442 -10.441 -10.441 -10.440 -10.435 -10.434
-10.433 -10.433 -10.428 -10.428 -10.428 -10.425  -6.947  -6.942
 -1.015  -1.014  -0.975  -0.972  -0.960  -0.958  -0.933  -0.932
 -0.922  -0.918  -0.907  -0.898  -0.869  -0.865  -0.855  -0.854
 -0.847  -0.846  -0.845  -0.845  -0.823  -0.815  -0.811  -0.808
 -0.804  -0.803  -0.765  -0.760  -0.735  -0.730  -0.727  -0.720
 -0.700  -0.698  -0.689  -0.687  -0.679  -0.672  -0.669  -0.666
 -0.664  -0.656  -0.646  -0.645  -0.597  -0.594  -0.592  -0.589
 -0.583  -0.576  -0.576  -0.575  -0.571  -0.566  -0.564  -0.548
 -0.545  -0.544  -0.531  -0.527  -0.526  -0.512  -0.507  -0.504
 -0.503  -0.502  -0.499  -0.496  -0.493  -0.489  -0.485  -0.483
 -0.482  -0.482  -0.479  -0.479  -0.478  -0.474  -0.471  -0.470
 -0.466  -0.464  -0.453  -0.450  -0.447  -0.443  -0.440  -0.437
 -0.436  -0.435  -0.433  -0.430  -0.430  -0.422  -0.421  -0.414
 -0.407  -0.400  -0.398  -0.394  -0.394  -0.393  -0.391  -0.388
 -0.385  -0.380  -0.379  -0.368  -0.368  -0.364  -0.354  -0.353
 -0.350  -0.335  -0.322  -0.319  -0.316  -0.312  -0.295  -0.293
 -0.280  -0.276  -0.275  -0.261  -0.255  -0.254  -0.244  -0.234
 -- Virtual --
 -0.096  -0.059  -0.035  -0.030  -0.021  -0.016  -0.003   0.007
  0.015   0.019   0.023   0.045   0.056   0.057   0.071   0.085
  0.090   0.093   0.123   0.128   0.136   0.137   0.144   0.144
  0.153   0.158   0.159   0.159   0.164   0.167   0.169   0.172
  0.175   0.178   0.186   0.189   0.194   0.195   0.196   0.198
  0.202   0.210   0.212   0.214   0.215   0.216   0.218   0.220
  0.222   0.227   0.228   0.231   0.234   0.243   0.243   0.246
  0.246   0.248   0.251   0.252   0.253   0.254   0.258   0.264
  0.267   0.269   0.277   0.279   0.281   0.284   0.285   0.286
  0.289   0.294   0.299   0.303   0.307   0.308   0.309   0.312
  0.315   0.316   0.324   0.327   0.333   0.334   0.337   0.338
  0.346   0.348   0.351   0.353   0.361   0.364   0.370   0.374
  0.376   0.384   0.391   0.403   0.414   0.417   0.419   0.421
  0.430   0.431   0.443   0.452   0.453   0.456   0.463   0.469
  0.477   0.484   0.485   0.488   0.491   0.498   0.501   0.504
  0.506   0.509   0.524   0.525   0.527   0.530   0.530   0.531
  0.531   0.533   0.536   0.536   0.538   0.540   0.546   0.549
  0.553   0.553   0.558   0.559   0.561   0.562   0.563   0.564
  0.564   0.567   0.569   0.577   0.578   0.581   0.585   0.589
  0.590   0.591   0.591   0.595   0.596   0.596   0.598   0.599
  0.600   0.601   0.602   0.608   0.609   0.610   0.612   0.613
  0.617   0.619   0.620   0.621   0.622   0.623   0.625   0.626
  0.628   0.630   0.632   0.642   0.643   0.648   0.650   0.652
  0.653   0.653   0.656   0.657   0.658   0.660   0.661   0.661
  0.664   0.672   0.674   0.675   0.683   0.686   0.691   0.696
  0.705   0.706   0.708   0.710   0.716   0.721   0.724   0.726
  0.727   0.731   0.732   0.734   0.737   0.745   0.749   0.752
  0.758   0.759   0.766   0.766   0.773   0.775   0.776   0.780
  0.781   0.783   0.786   0.787   0.798   0.800   0.801   0.809
  0.814   0.826   0.828   0.832   0.836   0.842   0.845   0.854
  0.858   0.866   0.868   0.869   0.888   0.893   0.902   0.907
  0.911   0.913   0.915   0.919   0.920   0.922   0.924   0.932
  0.947   0.949   0.950   0.954   0.957   0.964   0.969   0.971
  0.975   0.978   0.980   0.985   0.986   0.986   0.990   0.993
  0.995   0.996   0.999   1.002   1.003   1.013   1.014   1.017
  1.022   1.025   1.027   1.032   1.034   1.037   1.039   1.041
  1.046   1.046   1.046   1.053   1.060   1.061   1.065   1.072
  1.076   1.077   1.078   1.083   1.084   1.089   1.090   1.094
  1.100   1.107   1.116   1.117   1.120   1.123   1.128   1.131
  1.134   1.139   1.141   1.145   1.149   1.158   1.162   1.165
  1.167   1.172   1.177   1.183   1.186   1.195   1.200   1.202
  1.206   1.210   1.224   1.226   1.239   1.242   1.253   1.254
  1.260   1.264   1.266   1.269   1.273   1.282   1.288   1.292
  1.297   1.300   1.301   1.304   1.307   1.316   1.326   1.333
  1.337   1.339   1.341   1.345   1.348   1.348   1.355   1.364
  1.370   1.374   1.377   1.380   1.383   1.390   1.397   1.400
  1.404   1.408   1.409   1.411   1.422   1.428   1.435   1.441
  1.442   1.442   1.446   1.447   1.452   1.458   1.471   1.477
  1.486   1.492   1.504   1.505   1.511   1.512   1.516   1.518
  1.518   1.518   1.521   1.529   1.529   1.531   1.532   1.533
  1.536   1.538   1.541   1.544   1.552   1.556   1.558   1.560
  1.560   1.568   1.569   1.574   1.578   1.583   1.586   1.594
  1.596   1.611   1.614   1.616   1.627   1.633   1.634   1.655
  1.658   1.670   1.677   1.696   1.706   1.719   1.722   1.730
  1.746   1.753   1.778   1.783   1.790   1.806   1.807   1.809
  1.811   1.812   1.814   1.815   1.819   1.826   1.827   1.835
  1.843   1.846   1.870   1.876   1.891   1.896   1.897   1.904
  1.907   1.910   1.915   1.918   1.921   1.923   1.932   1.937
  1.949   1.956   1.964   1.967   1.973   1.984   1.984   1.986
  1.991   1.999   2.011   2.018   2.021   2.032   2.039   2.045
  2.046   2.048   2.050   2.058   2.071   2.071   2.073   2.076
  2.080   2.087   2.098   2.100   2.105   2.106   2.111   2.111
  2.112   2.126   2.133   2.139   2.146   2.152   2.155   2.160
  2.162   2.174   2.178   2.182   2.185   2.197   2.199   2.202
  2.205   2.231   2.232   2.234   2.238   2.240   2.245   2.254
  2.259   2.261   2.262   2.263   2.267   2.272   2.274   2.278
  2.281   2.281   2.285   2.291   2.292   2.317   2.322   2.323
  2.337   2.339   2.344   2.347   2.348   2.350   2.356   2.357
  2.358   2.360   2.361   2.367   2.370   2.372   2.382   2.387
  2.391   2.393   2.395   2.405   2.409   2.411   2.416   2.419
  2.422   2.424   2.426   2.427   2.433   2.434   2.447   2.449
  2.478   2.480   2.490   2.495   2.499   2.500   2.512   2.513
  2.535   2.553   2.564   2.570   2.575   2.601   2.609   2.620
  2.638   2.643   2.644   2.646   2.661   2.665   2.684   2.688
  2.703   2.708   2.711   2.713   2.716   2.722   2.724   2.729
  2.730   2.738   2.743   2.749   2.768   2.771   2.777   2.780
  2.783   2.786   2.786   2.789   2.792   2.792   2.805   2.807
  2.808   2.812   2.812   2.822   2.824   2.829   2.843   2.847
  2.858   2.861   2.862   2.872   2.873   2.885   2.902   2.919
  2.924   2.932   2.938   2.945   2.954   2.983   2.988   2.995
  2.996   3.003   3.019   3.034   3.042   3.047   3.065   3.072
  3.082   3.086   3.138   3.144   3.155   3.240   3.258   3.260
  3.404   3.444   3.449   3.472   3.488   3.492   3.493   3.494
  3.566   3.576   3.668   3.678   9.604   9.739  13.144  13.175
 13.297  13.349  13.499  13.503  13.510  13.523  13.529  13.546
 13.742  13.747  13.761  13.775  13.789  13.794  13.798  13.802
 13.861  13.868  13.890  13.894  13.963  14.006  14.013  14.018
 14.032  14.038  14.113  14.127  14.139  14.155  14.161  14.163
 14.173  14.206  14.219  14.256  14.263  14.268  14.312  14.316
 14.327  14.350  14.503  14.514  14.516  14.532  14.564  14.567
 14.573  14.575  14.582  14.584
 --------------------------------------------------------------
 
          Ground-State Mulliken Net Atomic Charges

     Atom                 Charge (a.u.)
  ----------------------------------------
      1 C                    -0.147032
      2 C                    -0.382517
      3 H                     0.233389
      4 C                     0.108118
      5 C                     0.098140
      6 C                    -0.386532
      7 H                     0.232819
      8 C                    -0.152227
      9 C                     0.198829
     10 C                    -0.378535
     11 H                     0.222246
     12 C                    -0.066258
     13 C                     0.249930
     14 C                     0.204244
     15 C                    -0.381882
     16 H                     0.222623
     17 C                    -0.203046
     18 H                     0.226959
     19 C                    -0.333934
     20 H                     0.220513
     21 C                    -0.204644
     22 H                     0.226716
     23 C                    -0.331653
     24 H                     0.220716
     25 B                     0.682536
     26 C                    -0.149622
     27 C                    -0.393002
     28 H                     0.230382
     29 C                     0.111933
     30 C                     0.099804
     31 C                    -0.383644
     32 H                     0.232036
     33 C                    -0.152337
     34 C                     0.193530
     35 C                    -0.373985
     36 H                     0.223026
     37 C                    -0.064809
     38 C                     0.253353
     39 C                     0.200237
     40 C                    -0.381775
     41 H                     0.222234
     42 C                    -0.205957
     43 H                     0.227172
     44 C                    -0.331951
     45 H                     0.220800
     46 C                    -0.203107
     47 H                     0.227090
     48 C                    -0.335805
     49 H                     0.220985
     50 B                     0.702037
     51 C                    -0.249246
     52 C                     0.099164
     53 C                    -0.340257
     54 H                     0.235235
     55 C                    -0.233262
     56 H                     0.218691
     57 C                    -0.230340
     58 H                     0.216883
     59 C                    -0.299600
     60 H                     0.210743
     61 C                     0.156342
     62 C                    -0.325345
     63 H                     0.208400
     64 C                    -0.262895
     65 H                     0.207511
     66 C                     0.024630
     67 C                    -0.754707
     68 H                     0.233979
     69 H                     0.248192
     70 H                     0.248064
     71 C                    -0.229343
     72 C                     0.016302
     73 C                    -0.265222
     74 H                     0.208194
     75 C                    -0.313530
     76 H                     0.209817
     77 C                     0.130646
     78 C                    -0.284348
     79 H                     0.210185
     80 C                    -0.231611
     81 H                     0.217684
     82 C                    -0.234239
     83 H                     0.219841
     84 C                    -0.327385
     85 H                     0.234837
     86 C                     0.083617
     87 C                    -0.755274
     88 H                     0.234830
     89 H                     0.247835
     90 H                     0.246844
  ----------------------------------------
  Sum of atomic charges =    -0.000000

 -----------------------------------------------------------------
                    Cartesian Multipole Moments
 -----------------------------------------------------------------
    Charge (ESU x 10^10)
                -0.0000
    Dipole Moment (Debye)
         X      -0.3327      Y       0.3396      Z      -0.1282
       Tot       0.4924
    Quadrupole Moments (Debye-Ang)
        XX    -280.3758     XY       4.0567     YY    -315.4537
        XZ      -4.1702     YZ      -1.9353     ZZ    -271.9535
    Octopole Moments (Debye-Ang^2)
       XXX       1.8530    XXY     -15.6831    XYY       6.0384
       YYY     -96.6412    XXZ     409.7284    XYZ     -17.6489
       YYZ     464.9653    XZZ      29.8402    YZZ       0.3586
       ZZZ    1203.7696
    Hexadecapole Moments (Debye-Ang^3)
      XXXX  -19752.3358   XXXY    1080.5425   XXYY   -4260.6781
      XYYY     876.7259   YYYY   -3714.9289   XXXZ    2496.4577
      XXYZ     241.7159   XYYZ    1401.3495   YYYZ    1212.1581
      XXZZ   -7819.9700   XYZZ     442.2247   YYZZ   -6792.5264
      XZZZ    1575.5942   YZZZ     976.0936   ZZZZ  -29143.0938
 -----------------------------------------------------------------
 Calculating analytic gradient of the CIS energy
 -5.342769692170642E-004 -5.342882701546568E-004
 -5.342838298782266E-004 -5.342814928854557E-004
 -5.342817601909639E-004 -5.342834718923024E-004
 -5.342889183012989E-004 -5.342763000497518E-004
 -5.342841207726292E-004 -5.342812064884790E-004
 -5.342868960322596E-004 -5.342783514562520E-004
 -5.342941038177793E-004 -5.342711314045925E-004
 -5.342865478464635E-004 -5.342787318172518E-004
 -5.342816209175097E-004 -5.342836236085450E-004
 -5.342941480520760E-004 -5.342710929411258E-004
 -5.342833364444589E-004 -5.342819928258615E-004
 -5.342632873228805E-004 -5.343019483172737E-004
 -5.342938602081632E-004 -5.342713806778857E-004
 -5.342827310400225E-004 -5.342825988215171E-004
 -5.342643441684900E-004 -5.343008913851338E-004
 -5.342759018785624E-004 -5.342893453494766E-004
 -5.342828617387686E-004 -5.342824661616436E-004
 -5.342774367558068E-004 -5.342877826590397E-004
 -5.342775200950761E-004 -5.342877380127659E-004
 -5.342810570098920E-004 -5.342842229658333E-004
 -5.342723875180613E-004 -5.342928348514537E-004
 -5.342863817068537E-004 -5.342788520728946E-004
 -5.342819135753595E-004 -5.342834097391684E-004
 -5.342879519166260E-004 -5.342772885284207E-004
 -5.342798752624031E-004 -5.342853529380943E-004
 -5.342829446139884E-004 -5.342823895603304E-004
 -5.342784021409444E-004 -5.342868426013502E-004
 -5.342750576521614E-004 -5.342901833407357E-004
 -5.342836717276959E-004 -5.342816506359901E-004
 -5.342393197989524E-004 -5.343259153376584E-004
 -5.342837636772433E-004 -5.342814557189006E-004
 -5.342814505310443E-004 -5.342838100500273E-004
 -5.342757226819168E-004 -5.342895155106720E-004
 -5.342973574367550E-004 -5.342679018908941E-004
 -5.342823527521034E-004 -5.342829822287151E-004
 -5.342586349795137E-004 -5.343066201850552E-004
 -5.342655036678496E-004 -5.342997203991560E-004
 -5.342830541308380E-004 -5.342822603884859E-004
 -5.343132511307063E-004 -5.342519944027122E-004
 -5.342874723243317E-004 -5.342777513405889E-004
 -5.342825743828747E-004 -5.342827594735742E-004
 -5.342828590227457E-004 -5.342823904391370E-004
 -5.343242868170860E-004 -5.342409617386573E-004
 -5.342822130838112E-004 -5.342831083479514E-004
 -5.342673778201529E-004 -5.342978498116802E-004
 -5.342878169100216E-004 -5.342774283735825E-004
 -5.342842058345086E-004 -5.342810540261417E-004
 -5.342770893849186E-004 -5.342881240532213E-004
 -5.342701491444986E-004 -5.342950516502366E-004
 -5.342823287540303E-004 -5.342829841573256E-004
 -5.343043861371812E-004 -5.342608759248922E-004
 -5.342923013275431E-004 -5.342729047786493E-004
 -5.342823232929601E-004 -5.342829379504931E-004
 -5.342714184276097E-004 -5.342938273585135E-004
 -5.342965651845739E-004 -5.342686843474656E-004
 -5.342819466730377E-004 -5.342833703552892E-004
 -5.342587105635524E-004 -5.343065040654117E-004
 -5.342724686765551E-004 -5.342927862702844E-004
 -5.342826640998982E-004 -5.342826216946446E-004
 -5.342961609567608E-004 -5.342690479089990E-004
 -5.342698356175934E-004 -5.342953841467965E-004
 -5.342839265193266E-004 -5.342813866727552E-004
 -5.343049320279305E-004 -5.342603116123745E-004
 -5.342873253261291E-004 -5.342778975150393E-004
 -5.342832776817530E-004 -5.342819834254089E-004
 -5.342687548755805E-004 -5.342964752873634E-004
 -5.342959665898963E-004 -5.342692605763635E-004
 -5.342830478017034E-004 -5.342822691517755E-004
 -5.342586720907789E-004 -5.343065646416655E-004
 -5.342762895252964E-004 -5.342889541675176E-004
 -5.342833285572296E-004 -5.342819570650982E-004
 -5.342982770316311E-004 -5.342669430855769E-004
 -5.342904847937798E-004 -5.342747521507700E-004
 -5.342846347449749E-004 -5.342806711221955E-004
 -5.342881149060958E-004 -5.342771329616789E-004
 -5.342776880357884E-004 -5.342875461457668E-004
 -5.342808877089271E-004 -5.342844358846491E-004
 -5.342805407707720E-004 -5.342846976517823E-004
 -5.342895527537988E-004 -5.342756958125558E-004
 -5.342798255600549E-004 -5.342855032844594E-004
 -5.342899947642259E-004 -5.342752249832281E-004
 -5.342897914309715E-004 -5.342754646049271E-004
 -5.342836149585400E-004 -5.342816650561986E-004
 -5.342959081202523E-004 -5.342693148972792E-004
 -5.342709022409525E-004 -5.342943389874738E-004
 -5.342778134570590E-004 -5.342875178165932E-004
 -5.343013605108325E-004 -5.342638777939148E-004
 -5.342716228009790E-004 -5.342936209428018E-004
 -5.342773772907826E-004 -5.342879535991133E-004
 -5.343021220294322E-004 -5.342631148745707E-004
 -5.342728563588341E-004 -5.342923631622749E-004
 -5.342794042857063E-004 -5.342859236031067E-004
 -5.342788862215011E-004 -5.342863614041434E-004
 -5.342691495828806E-004 -5.342960856847431E-004
 -5.342791120788811E-004 -5.342861673681016E-004
 -5.342840354583720E-004 -5.342812069116466E-004
 -5.342862817213947E-004 -5.342789585137632E-004
 -5.342795504145048E-004 -5.342857738108568E-004
 -5.342860443411781E-004 -5.342791880380414E-004
 -5.342771708512509E-004 -5.342880514172274E-004
 -5.342812210574764E-004 -5.342841117311492E-004
 -5.342777253904687E-004 -5.342875252678325E-004
 -5.342426001464387E-004 -5.343226485514436E-004
 -5.342809430199797E-004 -5.342843768302871E-004
 -5.343008088308103E-004 -5.342644186261720E-004
 -5.342774365708634E-004 -5.342878091440007E-004
 -5.342811582189870E-004 -5.342841021284622E-004
 -5.342853399205871E-004 -5.342798734642993E-004
 -5.342697128701089E-004 -5.342955477852241E-004
 -5.342800919665248E-004 -5.342852421990560E-004
 -5.343054656733812E-004 -5.342597874359484E-004
 -5.342975703676968E-004 -5.342676557858040E-004
 -5.342876359080975E-004 -5.342776753116611E-004
 -5.342494222147463E-004 -5.343158207996613E-004
 -5.342881100595943E-004 -5.342771152769436E-004
 -5.342805968690841E-004 -5.342847364574233E-004
 -5.342834934807877E-004 -5.342817540908504E-004
 -5.342900279392276E-004 -5.342752094429231E-004
 -5.342792054303210E-004 -5.342861169455336E-004
 -5.343249946259610E-004 -5.342402435722311E-004
 -5.342831918818359E-004 -5.342820261001955E-004
 -5.342835080552446E-004 -5.342817521855806E-004
 -5.342872578308195E-004 -5.342779818290807E-004
 -5.342929460183809E-004 -5.342722545636024E-004
 -5.342870329864115E-004 -5.342782776829638E-004
 -5.342581918978742E-004 -5.343070726893434E-004
 -5.342740898911848E-004 -5.342911158175556E-004
 -5.342835528947326E-004 -5.342817063346406E-004
 -5.342948219528189E-004 -5.342704269399299E-004
 -5.342717917151340E-004 -5.342934581213602E-004
 -5.342822296647531E-004 -5.342830822999191E-004
 -5.343069759788157E-004 -5.342582408651308E-004
 -5.342915819726640E-004 -5.342736753507746E-004
 -5.342861190135209E-004 -5.342791636321450E-004
 -5.342694446427853E-004 -5.342957636208415E-004
 -5.342944818709743E-004 -5.342707392820857E-004
 -5.342857712723037E-004 -5.342795408931110E-004
 -5.342576122418681E-004 -5.343076367368264E-004
 -5.342782468352402E-004 -5.342869822826574E-004
 -5.342829070657466E-004 -5.342823539653836E-004
 -5.342955675227813E-004 -5.342696662694046E-004
 -5.342717585049885E-004 -5.342934711797533E-004
 -5.342814638400171E-004 -5.342838476872526E-004
 -5.343062265825298E-004 -5.342590064339710E-004
 -5.342875856917679E-004 -5.342776604853668E-004
 -5.342856037919066E-004 -5.342796783667320E-004
 -5.342673853921259E-004 -5.342978322716032E-004
 -5.342743610126736E-004 -5.342908737927469E-004
 -5.342809601800690E-004 -5.342843449714688E-004
 -5.342772044995144E-004 -5.342880433296214E-004
 -5.342918290924541E-004 -5.342734202844565E-004
 -5.342899016810874E-004 -5.342753341952393E-004
 -5.342873143672929E-004 -5.342779169305746E-004
 -5.342566384874277E-004 -5.343085973362635E-004
 -5.342653165710761E-004 -5.342999154015623E-004
 -5.342630392482521E-004 -5.343021917325021E-004
 -5.342693242650507E-004 -5.342959268606945E-004
 -5.343063747990695E-004 -5.342588320511104E-004
 -5.342712519081273E-004 -5.342939880991891E-004
 -5.342652729099289E-004 -5.342999629395370E-004
 -5.342763109696905E-004 -5.342889223169935E-004
 -5.342717308278783E-004 -5.342935072356730E-004
 -5.342611528438484E-004 -5.343040688483268E-004
 -5.342610540739926E-004 -5.343041891341028E-004
 -5.342700725876534E-004 -5.342951614467468E-004
 -5.342698489311041E-004 -5.342953630955164E-004
 -5.343086787205759E-004 -5.342565599073890E-004
 -5.342771176295441E-004 -5.342881029461190E-004
 -5.342803652071986E-004 -5.342849085291635E-004
 -5.343247651515830E-004 -5.342404458450657E-004
 -5.342808175397747E-004 -5.342844509172163E-004
 -5.342742578421685E-004 -5.342910235909853E-004
 -5.342791860550016E-004 -5.342860525516622E-004
 -5.342831331756462E-004 -5.342821410242592E-004
 -5.342550248981609E-004 -5.343102063764396E-004
 -5.342656359451404E-004 -5.342996124238918E-004
 -5.342654079242104E-004 -5.342998361321820E-004
 -5.342815172622548E-004 -5.342837282483287E-004
 -5.342957885682112E-004 -5.342694661895944E-004
 -5.342865479138098E-004 -5.342787060269588E-004
 -5.342985407861455E-004 -5.342667103286973E-004
 -5.343010796276813E-004 -5.342641358399424E-004
 -5.342912105246453E-004 -5.342740365847984E-004
 -5.342522572140729E-004 -5.343129720183493E-004
 -5.342779353291031E-004 -5.342873077123963E-004
 -5.342627609703720E-004 -5.343024771511519E-004
 -5.342749110373373E-004 -5.342903382622011E-004
 -5.342809416081773E-004 -5.342843205024453E-004
 -5.342814537383120E-004 -5.342838036706105E-004
 -5.342981232917960E-004 -5.342671348261321E-004
 -5.342763472795273E-004 -5.342888538737229E-004
 -5.342941278554899E-004 -5.342711181558430E-004
 -5.342592229780058E-004 -5.343060278539598E-004
 -5.342729110164807E-004 -5.342923100253249E-004
 -5.342710341205788E-004 -5.342942059581948E-004
 -5.342542170170291E-004 -5.343110178791565E-004
 -5.342984488304113E-004 -5.342667870855680E-004
 -5.342650165235100E-004 -5.343002173481360E-004
 -5.342771252868142E-004 -5.342881280862901E-004
 -5.342679042590625E-004 -5.342973064064163E-004
 -5.342817330574359E-004 -5.342835128328492E-004
 -5.342669023068029E-004 -5.342983538901599E-004
 -5.342686818876057E-004 -5.342965405649517E-004
 -5.342754732118721E-004 -5.342897699100352E-004
 -5.342726602500082E-004 -5.342925788999158E-004
 -5.342812716976419E-004 -5.342839628354665E-004
 -5.342691889488751E-004 -5.342960476201773E-004
 -5.342645902915705E-004 -5.343006459680570E-004
 -5.342829581777670E-004 -5.342822751745253E-004
 -5.342824422995635E-004 -5.342827933156335E-004
 -5.342729345350557E-004 -5.342923149615017E-004
 -5.342799296134360E-004 -5.342853054270620E-004
 -5.342770083892190E-004 -5.342882203430080E-004
 -5.343109445585825E-004 -5.342542861866660E-004
 -5.342659768738929E-004 -5.342992600459509E-004
 -5.342969948212441E-004 -5.342682409050133E-004
 -5.342660709624039E-004 -5.342991885210749E-004
 -5.342913245717165E-004 -5.342738763399845E-004
 -5.342731434597981E-004 -5.342921003777332E-004
 -5.343050159118892E-004 -5.342602385195659E-004
 -5.342917053213378E-004 -5.342735162701421E-004
 -5.342945583810135E-004 -5.342706813058363E-004
 -5.343155100362911E-004 -5.342497183305418E-004
 -5.342856360492622E-004 -5.342796072243690E-004
 -5.343000398311481E-004 -5.342651994552113E-004
 -5.342881632682646E-004 -5.342770833954428E-004
 -5.342852847332331E-004 -5.342799779198975E-004
 -5.342864935419263E-004 -5.342787669403869E-004
 -5.342669870795236E-004 -5.342982661876833E-004
 -5.342679517664646E-004 -5.342972627841231E-004
 -5.342748460794006E-004 -5.342903981617709E-004
 -5.343131239337085E-004 -5.342521022802485E-004
 -5.342980244468909E-004 -5.342672234761862E-004
 -5.342992400961880E-004 -5.342660036649795E-004
 -5.342813905594978E-004 -5.342838493451462E-004
 -5.342697199964695E-004 -5.342955354988057E-004
 -5.342823246289359E-004 -5.342829352418804E-004
 -5.342835729493291E-004 -5.342817005086760E-004
 -5.342411645191014E-004 -5.343240426011640E-004
 -5.342842521199418E-004 -5.342810149645533E-004
 -5.342900867132274E-004 -5.342751934881772E-004
 -5.342855480418835E-004 -5.342796909694956E-004
 -5.342867703195879E-004 -5.342785053142640E-004
 -5.343071887049162E-004 -5.342580296314248E-004
 -5.343024068605614E-004 -5.342628344550492E-004
 -5.342968615742317E-004 -5.342683714868785E-004
 -5.342944222633984E-004 -5.342707898020067E-004
 -5.342556033884507E-004 -5.343096323561457E-004
 -5.342898249294971E-004 -5.342753939677857E-004
 -5.342969101894762E-004 -5.342683396748001E-004
 -5.342600930727181E-004 -5.343051137073792E-004
 -5.342915968387610E-004 -5.342736398577737E-004
 -5.343011446510503E-004 -5.342640883255293E-004
 -5.342883589677767E-004 -5.342768753195426E-004
 -5.342932827527944E-004 -5.342719565722214E-004
 -5.343126876181867E-004 -5.342525444307874E-004
 -5.342997101256029E-004 -5.342655206112256E-004
 -5.342987539436786E-004 -5.342664761288663E-004
 -5.342886960841681E-004 -5.342765562971273E-004
 -5.343006475423103E-004 -5.342645640391784E-004
 -5.342853955623150E-004 -5.342798501251277E-004
 -5.342962880278676E-004 -5.342689675638839E-004
 -5.342958943410573E-004 -5.342693317266959E-004
 -5.342887587086588E-004 -5.342764873738824E-004
 -5.342988175755643E-004 -5.342664172229367E-004
 -5.342823689800896E-004 -5.342828637613542E-004
 -5.342836499489239E-004 -5.342815863329579E-004
 -5.342911829044562E-004 -5.342740540196698E-004
 -5.342844961484490E-004 -5.342807354191052E-004
 -5.342964933820009E-004 -5.342687411285757E-004
 CIS relaxed dipole moment
            1
    1   4.4781171
    2  -1.0285606
    3   2.8078156
	Magnitude:	 5.385 au	13.687 Debye
 CIS 1 State Energy is -2123.2803071814
 Gradient of the state energy (including CIS Excitation Energy)
            1           2           3           4           5           6
    1  -0.0008224  -0.0001401  -0.0003016   0.0005716   0.0009227  -0.0000490
    2  -0.0000894   0.0000013   0.0002100  -0.0001684  -0.0001159  -0.0000273
    3  -0.0007186   0.0001444  -0.0001785  -0.0026535  -0.0029977  -0.0001018
            7           8           9          10          11          12
    1  -0.0001742   0.0005149  -0.0011959  -0.0001613  -0.0001590   0.0003510
    2   0.0000551  -0.0001856   0.0000868   0.0000229   0.0000475  -0.0001039
    3   0.0000900   0.0004030   0.0001161   0.0004193   0.0002823  -0.0029265
           13          14          15          16          17          18
    1   0.0003390  -0.0000137  -0.0001989  -0.0001442   0.0005001  -0.0000780
    2   0.0000152   0.0000095   0.0000927   0.0000376  -0.0000228   0.0000250
    3   0.0004218   0.0000558   0.0007937   0.0003801   0.0003423   0.0001913
           19          20          21          22          23          24
    1   0.0004742  -0.0001205   0.0000067  -0.0000498  -0.0001252  -0.0000277
    2  -0.0001047   0.0000235   0.0000515   0.0000655   0.0000030  -0.0000061
    3   0.0003653   0.0002223   0.0007150   0.0001433   0.0005766   0.0002377
           25          26          27          28          29          30
    1  -0.0000352  -0.0002151  -0.0000648  -0.0004412   0.0001561   0.0000691
    2   0.0000496   0.0001144   0.0000171   0.0002194  -0.0002060  -0.0001904
    3   0.0001098  -0.0012134   0.0000083   0.0004722  -0.0024615  -0.0021772
           31          32          33          34          35          36
    1   0.0000565  -0.0001565   0.0009082  -0.0002279  -0.0003699  -0.0001454
    2  -0.0000793   0.0001017  -0.0001085   0.0000432   0.0001007   0.0000438
    3  -0.0001212   0.0004611   0.0000957  -0.0007225   0.0006486   0.0002875
           37          38          39          40          41          42
    1   0.0005175  -0.0001743   0.0004750   0.0004856  -0.0001069  -0.0001601
    2  -0.0003820   0.0000297  -0.0001981  -0.0000966   0.0000352   0.0001471
    3  -0.0026422   0.0004678   0.0002025   0.0006532   0.0003160   0.0006281
           43          44          45          46          47          48
    1  -0.0000215  -0.0001734  -0.0000373  -0.0001339  -0.0000270   0.0002315
    2   0.0000411   0.0000141   0.0000529   0.0001623   0.0000011   0.0001025
    3   0.0001960   0.0007167   0.0002446   0.0007164   0.0002005   0.0006437
           49          50          51          52          53          54
    1  -0.0000272   0.0001379   0.0000427   0.0000382  -0.0001194  -0.0000044
    2   0.0000127   0.0000882  -0.0010456  -0.0012594  -0.0000738   0.0002877
    3   0.0002483   0.0008555   0.0004565   0.0004097   0.0001911   0.0002372
           55          56          57          58          59          60
    1  -0.0000065  -0.0000500  -0.0000584  -0.0000316  -0.0000039  -0.0000827
    2   0.0001222   0.0001150   0.0002072   0.0000990   0.0001850   0.0001705
    3   0.0001739   0.0000465   0.0000915  -0.0000013   0.0000825   0.0000401
           61          62          63          64          65          66
    1   0.0000790   0.0001302  -0.0000516  -0.0000969   0.0000260  -0.0000788
    2  -0.0004460   0.0001182   0.0001498   0.0001361   0.0001329   0.0002857
    3  -0.0000049   0.0002446   0.0000621  -0.0000299  -0.0000272   0.0004239
           67          68          69          70          71          72
    1  -0.0000016  -0.0000069  -0.0000457  -0.0000314   0.0000317  -0.0000181
    2   0.0002759   0.0000828   0.0001916   0.0001339  -0.0006403  -0.0000297
    3   0.0003480   0.0000343   0.0001364  -0.0000108   0.0000323   0.0002636
           73          74          75          76          77          78
    1  -0.0001477  -0.0000502   0.0000438   0.0000137  -0.0002428  -0.0000887
    2   0.0000318   0.0001217   0.0000502   0.0001269  -0.0008536   0.0002012
    3   0.0000372   0.0000424   0.0000985  -0.0000367   0.0001358   0.0000773
           79          80          81          82          83          84
    1   0.0000158  -0.0001318  -0.0000131   0.0000128   0.0000072  -0.0000088
    2   0.0001774   0.0001548   0.0001109   0.0001405   0.0001150   0.0002039
    3  -0.0000639  -0.0000058  -0.0000071   0.0000947  -0.0000155   0.0002115
           85          86          87          88          89          90
    1  -0.0000907   0.0006692  -0.0001474   0.0000220   0.0000393  -0.0000009
    2   0.0001591  -0.0005819   0.0001804   0.0001462   0.0000678   0.0002101
    3   0.0000851   0.0004553   0.0001295   0.0000040   0.0002453   0.0001541
 Gradient time:  CPU 3012.77 s  wall 461.59 s
 Geometry Optimization Parameters
   NAtoms,    NIC,     NZ,  NCons,   NDum,   NFix, NCnnct, MaxDiis
       90     732      90       0       0       0       0       0


** GEOMETRY OPTIMIZATION IN DELOCALIZED INTERNAL COORDINATES **
   Searching for a Minimum

   Optimization Cycle:   1

                       Coordinates (Angstroms)
     ATOM                X               Y               Z
      1  C         0.0000000000    0.0000000000    0.0000000000
      2  C         0.0000000000    0.0000000000    1.4130850000
      3  H         0.9346230733    0.0000000000    1.9643562752
      4  C        -1.1795513383    0.0010398936    2.1106553440
      5  C        -2.4217881123    0.0051897114    1.4116958158
      6  C        -2.4428293837    0.0008957786    0.0380866746
      7  H        -3.3900572260    0.0059325307   -0.4912094182
      8  C        -1.2464685127   -0.0011976367   -0.6972834069
      9  C        -3.4980022397    0.0202001915    2.3977751381
     10  C        -4.8702273775    0.0419784894    2.3484236622
     11  H        -5.4079371181    0.0514229587    1.4085902451
     12  C        -2.8740716967    0.0178822266    3.6611945697
     13  C        -3.5622068044    0.0318401816    4.8724372110
     14  C        -1.4704591114    0.0071364248    3.5451189217
     15  C        -0.7259032511    0.0090016119    4.6977925521
     16  H         0.3566193002    0.0037846439    4.6788409154
     17  C        -1.3960701154    0.0190320653    5.9420621319
     18  H        -0.8048231112    0.0201492190    6.8488716091
     19  C        -2.7676200857    0.0298754020    6.0427146529
     20  H        -3.2398314840    0.0396934357    7.0177583599
     21  C        -5.5931724720    0.0571722488    3.5631161330
     22  H        -6.6748423981    0.0762379760    3.5192478583
     23  C        -4.9759801443    0.0508169491    4.7921143311
     24  H        -5.5714074324    0.0631215369    5.6970460950
     25  B         1.2917718606    0.0206564819   -0.8056012201
     26  C         1.2950763290    0.0349778267   -2.3271812362
     27  C         2.4924838471    0.0776272848   -3.0773358203
     28  H         3.4500047294    0.0739757259   -2.5655379792
     29  C         2.4589796359    0.1344857269   -4.4496138082
     30  C         1.2046275565    0.1457436706   -5.1258587156
     31  C         0.0292209832    0.0892337283   -4.4150443512
     32  H        -0.9242425199    0.0996225593   -4.9328410219
     33  C         0.0396415204    0.0369410662   -3.0126246297
     34  C         1.4572217127    0.2517576440   -6.5538759328
     35  C         0.6664110684    0.3352908277   -7.6712815796
     36  H        -0.4145683691    0.3150889391   -7.6073964760
     37  C         2.8570601159    0.2962627162   -6.7083330823
     38  C         3.5010362576    0.4236417838   -7.9339398043
     39  C         3.5122693322    0.2247405287   -5.4617417173
     40  C         4.8824013959    0.2735721292   -5.4469277531
     41  H         5.4454510220    0.2271096704   -4.5230632677
     42  C         1.2952636783    0.4608405934   -8.9299105785
     43  H         0.6732008417    0.5294101162   -9.8132162444
     44  C         2.6630360186    0.5045313666   -9.0733604950
     45  H         3.0981891776    0.6062883143  -10.0597915851
     46  C         5.5667982612    0.3949676077   -6.6776222146
     47  H         6.6484558077    0.4343803789   -6.6640857030
     48  C         4.9146041247    0.4697911002   -7.8869483863
     49  H         5.4849870325    0.5683680478   -8.8022390228
     50  B        -1.2832495759    0.0056610287   -2.2311911605
     51  C         2.6438814708    0.0695178453    0.0083679428
     52  C         3.2846363019   -1.1105862216    0.4625933208
     53  C         2.7446771014   -2.3706999169    0.1601806263
     54  H         1.8429263522   -2.4276764647   -0.4334652186
     55  C         3.3506647479   -3.5323897822    0.6222702521
     56  H         2.9178430169   -4.4929197514    0.3818268144
     57  C         4.5018293029   -3.4601470429    1.3921324544
     58  H         4.9698229201   -4.3649371529    1.7537960315
     59  C         5.0565702287   -2.2242346580    1.7044985596
     60  H         5.9532587671   -2.1720398119    2.3091212474
     61  C         4.4618079037   -1.0460207932    1.2492741133
     62  C         4.9929506885    0.2240084095    1.5652452725
     63  H         5.8922401052    0.2867089558    2.1651280382
     64  C         4.3764920051    1.3803706841    1.1279327539
     65  H         4.8012906168    2.3402317772    1.3906434137
     66  C         3.2141612059    1.3314634206    0.3651625434
     67  C         2.5394264023    2.5822129961   -0.0756559135
     68  H         3.0767807827    3.4730670581    0.2437833397
     69  H         2.4362109675    2.6019160392   -1.1619163406
     70  H         1.5232341918    2.6235501317    0.3226369675
     71  C        -2.6754125861   -0.0293209633   -2.9807754291
     72  C        -3.2840153237   -1.2362868820   -3.2645633903
     73  C        -4.5327990555   -1.2662829582   -3.9240223181
     74  H        -4.9899361435   -2.2251182616   -4.1400570750
     75  C        -5.1715310090   -0.1171815199   -4.2911160074
     76  H        -6.1282445123   -0.1571886080   -4.7986844984
     77  C        -4.5939027572    1.1370237568   -4.0088331290
     78  C        -5.2334310653    2.3477054888   -4.3618541410
     79  H        -6.1899932600    2.3047747353   -4.8699086022
     80  C        -4.6634454378    3.5538820965   -4.0690160296
     81  H        -5.1631607340    4.4743483364   -4.3424016194
     82  C        -3.4210945285    3.6006624065   -3.4066534609
     83  H        -2.9743156051    4.5586143872   -3.1736069295
     84  C        -2.7795378986    2.4449977238   -3.0586023778
     85  H        -1.8252788936    2.4936219141   -2.5477951610
     86  C        -3.3383289952    1.1753118119   -3.3477710969
     87  C        -2.6380656137   -2.5293899872   -2.8519575596
     88  H        -3.1667976068   -3.3923471421   -3.2572765305
     89  H        -1.6015678008   -2.5859097577   -3.1891801461
     90  H        -2.6237915244   -2.6303539691   -1.7643350118
   Point Group: c1    Number of degrees of freedom:   264


   Energy is  -2123.280307181


 Attempting to Generate Delocalized Internal Coordinates

264 Hessian modes will be used to form the next step
  Hessian Eigenvalues:
     0.007971    0.008310    0.008755    0.010774    0.012343    0.013655
     0.014927    0.016034    0.016854    0.017097    0.017116    0.017601
     0.017670    0.017946    0.017964    0.018228    0.018369    0.018562
     0.018899    0.019326    0.019489    0.019669    0.019955    0.020136
     0.020462    0.020485    0.020502    0.020681    0.020766    0.020904
     0.020988    0.021046    0.021076    0.021241    0.021320    0.021408
     0.021458    0.021555    0.021695    0.021725    0.022279    0.022296
     0.022299    0.022537    0.022541    0.022599    0.022685    0.022703
     0.022716    0.022728    0.022842    0.023049    0.023164    0.023198
     0.023223    0.023234    0.023294    0.023361    0.023368    0.023429
     0.023555    0.023573    0.023587    0.023636    0.023773    0.023791
     0.023824    0.023842    0.023857    0.023890    0.023904    0.024001
     0.024011    0.024012    0.024099    0.024247    0.024295    0.024351
     0.024484    0.024680    0.024739    0.024817    0.025366    0.071518
     0.072251    0.072727    0.075859    0.159980    0.159993    0.159993
     0.159994    0.159995    0.159996    0.159996    0.159997    0.159997
     0.159998    0.159998    0.159999    0.159999    0.159999    0.159999
     0.159999    0.159999    0.159999    0.159999    0.160000    0.160000
     0.160000    0.160000    0.160000    0.160000    0.160000    0.160000
     0.160000    0.160000    0.160000    0.160000    0.160000    0.160000
     0.160000    0.220000    0.220000    0.220608    0.220610    0.222131
     0.222136    0.223779    0.223855    0.226870    0.227029    0.231518
     0.231847    0.233765    0.233787    0.237355    0.237390    0.239747
     0.240051    0.243457    0.243521    0.246280    0.246420    0.248810
     0.249011    0.249538    0.249600    0.249717    0.249728    0.249829
     0.249870    0.249897    0.249906    0.249924    0.249944    0.249949
     0.249961    0.249968    0.249980    0.249982    0.249988    0.249994
     0.251356    0.253281    0.284418    0.287663    0.298282    0.300060
     0.320439    0.335742    0.336627    0.336764    0.343010    0.345038
     0.345377    0.345548    0.346468    0.346593    0.347895    0.350090
     0.353115    0.353863    0.353863    0.353921    0.355178    0.355198
     0.355443    0.355788    0.355847    0.355959    0.356278    0.356386
     0.356414    0.356442    0.356550    0.356553    0.356643    0.356668
     0.356699    0.356892    0.356900    0.356987    0.356991    0.357057
     0.357493    0.358596    0.358792    0.359181    0.367224    0.370390
     0.373907    0.377050    0.380874    0.383191    0.393992    0.397393
     0.401072    0.403213    0.407385    0.407630    0.407951    0.408602
     0.411357    0.414448    0.415017    0.416886    0.417039    0.418040
     0.420158    0.420396    0.430415    0.430697    0.431477    0.431528
     0.432966    0.433454    0.434462    0.437512    0.440166    0.440717
     0.447427    0.451192    0.454060    0.460700    0.463848    0.468664
     0.475814    0.477880    0.479512    0.482737    0.482761    0.484996
     0.485166    0.485555    0.487894    0.495692    0.496438    0.496782
     0.498355    0.498432    0.499902    0.500495    0.507413    0.510674

 Minimum Search - Taking Simple RFO Step
 Searching for Lamda that Minimizes Along All modes
 Value Taken    Lamda =  -0.00200978
 Step Taken.  Stepsize is  0.244335

                             Maximum     Tolerance    Cnvgd?
         Gradient           0.009636      0.000300      NO
         Displacement       0.113455      0.001200      NO
         Energy change     *********      0.000001      NO


 New Cartesian Coordinates Obtained by Inverse Iteration

 Displacement from previous Coordinates is:  2.840358
 Adding empirical dispersion correction 
 ----------------------------------------------------------------
 Doing -D3(BJ) with
 s6 =   1.00000
 s8 =   0.00000
 a1 =   0.48600
 a2 =   4.50000
 -D3 energy including 3body term =     -0.0863867284 hartrees
 ----------------------------------------------------------------
 Adding gCP correction 
 ----------------------------------------------------------------
 gCP energy =      0.1133975318 hartrees
 ----------------------------------------------------------------
             Standard Nuclear Orientation (Angstroms)
    I     Atom           X                Y                Z
 ----------------------------------------------------------------
    1      C      -0.0121362062     0.0895544945     0.0775980463
    2      C      -0.0250172752     0.0710754180     1.4947636632
    3      H       0.9056546404     0.0668965625     2.0536680472
    4      C      -1.2123171523     0.0542987756     2.1860958577
    5      C      -2.4452337807     0.0543269255     1.4722708925
    6      C      -2.4552186933     0.0665123391     0.0988172035
    7      H      -3.3983274609     0.0637856966    -0.4374836390
    8      C      -1.2566086446     0.0858255060    -0.6300177055
    9      C      -3.5349979838     0.0402385597     2.4355694967
   10      C      -4.9045626249     0.0407929548     2.3505858649
   11      H      -5.4173536502     0.0528337760     1.3966668435
   12      C      -2.9362021713     0.0301326123     3.7098264757
   13      C      -3.6518859288     0.0181895188     4.9027208720
   14      C      -1.5295662784     0.0378524563     3.6160316073
   15      C      -0.8077223283     0.0313429653     4.7812329411
   16      H       0.2751721322     0.0376160100     4.7818739555
   17      C      -1.5054648741     0.0176724191     6.0109989068
   18      H      -0.9317235822     0.0126118298     6.9287555587
   19      C      -2.8794977706     0.0114890388     6.0867328386
   20      H      -3.3693591887     0.0015566770     7.0526110870
   21      C      -5.6552591264     0.0284594625     3.5466675036
   22      H      -6.7357176286     0.0295724053     3.4775140723
   23      C      -5.0642849316     0.0169764919     4.7888051929
   24      H      -5.6805557067     0.0079685598     5.6793268219
   25      B       1.2822353612     0.1224077391    -0.7333638610
   26      C       1.2862067526     0.1419052279    -2.2529906680
   27      C       2.4860102975     0.1689633443    -3.0033855730
   28      H       3.4455887121     0.1609283911    -2.4949638037
   29      C       2.4524699911     0.1910782427    -4.3766174558
   30      C       1.1966248858     0.1842044025    -5.0506296230
   31      C       0.0217357392     0.1538905631    -4.3413223768
   32      H      -0.9297003715     0.1405117482    -4.8630094801
   33      C       0.0323248473     0.1341796871    -2.9398476586
   34      C       1.4425637835     0.2188206058    -6.4838816177
   35      C       0.6485974046     0.2396463512    -7.6038766195
   36      H      -0.4319766553     0.2238689668    -7.5362248414
   37      C       2.8404447801     0.2458501651    -6.6461440105
   38      C       3.4767182990     0.2936079690    -7.8843519141
   39      C       3.5016055523     0.2322208134    -5.4009393680
   40      C       4.8729426873     0.2644503307    -5.4047290495
   41      H       5.4462474272     0.2548392335    -4.4864242778
   42      C       1.2696192166     0.2845497184    -8.8724094322
   43      H       0.6433152719     0.2998122200    -9.7554977033
   44      C       2.6359794360     0.3112340705    -9.0246659384
   45      H       3.0677143465     0.3461835117   -10.0175856162
   46      C       5.5493607795     0.3087092216    -6.6464176362
   47      H       6.6316148627     0.3319093286    -6.6439782487
   48      C       4.8898571314     0.3240259078    -7.8532467067
   49      H       5.4532304235     0.3601678156    -8.7778143389
   50      B      -1.2901016610     0.0958584293    -2.1672924506
   51      C       2.6505265452     0.1280735694     0.0496175402
   52      C       3.3220202491    -1.0765167177     0.3723345504
   53      C       2.7864667962    -2.3130364951    -0.0237144913
   54      H       1.8610607389    -2.3320576326    -0.5827586639
   55      C       3.4302377513    -3.5020304311     0.2964430791
   56      H       3.0014814574    -4.4435733932    -0.0161754587
   57      C       4.6154885165    -3.4814097274     1.0158820495
   58      H       5.1138338705    -4.4075053313     1.2664302787
   59      C       5.1682535749    -2.2698076929     1.4157668803
   60      H       6.0958888707    -2.2590699928     1.9741925220
   61      C       4.5374624994    -1.0641580789     1.1002111570
   62      C       5.0753258853     0.1820614195     1.4896986116
   63      H       6.0053701320     0.2055369511     2.0437551767
   64      C       4.4362270751     1.3638564969     1.1668307198
   65      H       4.8744397476     2.3044586394     1.4728527854
   66      C       3.2402234797     1.3640414451     0.4556752292
   67      C       2.5520529695     2.6372616040     0.1134628430
   68      H       3.1054161541     3.5088584206     0.4573753981
   69      H       2.4032073855     2.7146583363    -0.9650877475
   70      H       1.5538262688     2.6567215548     0.5562522162
   71      C      -2.6678958921     0.0247091102    -2.9440735044
   72      C      -3.2245623772    -1.1993462576    -3.2628160649
   73      C      -4.4467601932    -1.2638448383    -3.9675746809
   74      H      -4.8626579487    -2.2354767085    -4.2089671855
   75      C      -5.1060658369    -0.1332223474    -4.3548242034
   76      H      -6.0398528836    -0.2010242258    -4.9006904260
   77      C      -4.5737804739     1.1369174599    -4.0542673207
   78      C      -5.2278421031     2.3281339944    -4.4421082104
   79      H      -6.1626525397     2.2570921060    -4.9861887120
   80      C      -4.6966580479     3.5494824027    -4.1400368410
   81      H      -5.2062902236     4.4554091695    -4.4416361972
   82      C      -3.4806829056     3.6310267818    -3.4335531665
   83      H      -3.0636876313     4.6008777427    -3.1952646830
   84      C      -2.8269869548     2.4940323677    -3.0492911101
   85      H      -1.8920911058     2.5680874811    -2.5066195971
   86      C      -3.3474134058     1.2101820463    -3.3437734726
   87      C      -2.5437323152    -2.4776901038    -2.8579537936
   88      H      -3.0309080108    -3.3500770002    -3.2944842286
   89      H      -1.4981355360    -2.4912692570    -3.1708892707
   90      H      -2.5530171372    -2.6026372951    -1.7729815518
 ----------------------------------------------------------------
 Nuclear Repulsion Energy =  6718.3329596253 hartrees
 There are      184 alpha and      184 beta electrons
 Applying Cartesian multipole field
    Component          Value
    ---------          -----
     (2,0,0)        1.00000E-12
     (0,2,0)        2.00000E-11
     (0,0,2)       -3.00000E-12
 Nucleus-field energy     =    -0.0000000017 hartrees
 Requested basis set is def2-mSVP
 There are 460 shells and 908 basis functions
 A cutoff of  1.0D-11 yielded  38641 shell pairs
 There are    157927 function pairs (    174297 Cartesian)
 Smallest overlap matrix eigenvalue = 1.97E-04
 Guess MOs from SCF MO coefficient file

 -----------------------------------------------------------------------
  General SCF calculation program by
  Eric Jon Sundstrom, Paul Horn, Yuezhi Mao, Dmitri Zuev, Alec White,
  David Stuck, Shaama M.S., Shane Yost, Joonho Lee, David Small,
  Daniel Levine, Susi Lehtola, Hugh Burton, Evgeny Epifanovsky
 -----------------------------------------------------------------------
 Exchange:     0.4200 Hartree-Fock + 0.5800 PBEh-3c
 Correlation:  1.0000 PBEh-3c
 Using SG-1 standard quadrature grid
 Dispersion:   Grimme D3
 using 8 threads for integral computing
 -------------------------------------------------------
 OpenMP Integral computing Module                
 Release: version 2.0, May 2017, Q-Chem Inc. Pleasanton 
 -------------------------------------------------------
 -------------------------------------------------------
 OpenMP BLAS3 based DFT computing Module                
 Release: version 1.0, May 2013, Q-Chem Inc. Pittsburgh 
 -------------------------------------------------------
 A restricted SCF calculation will be
 performed using DIIS
 SCF converges when DIIS error is below 1.0e-08
 ---------------------------------------
  Cycle       Energy         DIIS error
 ---------------------------------------
    1   -2123.3155703178      6.29e-04  
    2   -2123.3690323606      8.35e-05  
    3   -2123.3710400872      2.67e-05  
    4   -2123.3710710558      2.83e-05  
    5   -2123.3711620526      6.39e-06  
    6   -2123.3711663051      2.32e-06  
    7   -2123.3711668755      8.84e-07  
    8   -2123.3711669592      3.84e-07  
    9   -2123.3711669758      1.02e-07  
   10   -2123.3711669771      3.70e-08  
   11   -2123.3711669773      1.30e-08  
   12   -2123.3711669773      6.05e-09  Convergence criterion met
 ---------------------------------------
 SCF time:   CPU 4786.02s  wall 599.00s 
 SCF   energy in the final basis set =    -2123.3711669773
 Total energy in the final basis set =    -2123.3711669773
 
 Direct TDDFT/TDA calculation will be performed
 Exchange:     0.4200 Hartree-Fock + 0.5800 PBEh-3c
 Correlation:  1.0000 PBEh-3c
 Using SG-1 standard quadrature grid
 Dispersion:   Grimme D3
 Singlet excitation energies requested
 CIS energy converged when residual is below 10e- 6
 ---------------------------------------------------
 Iter    Rts Conv    Rts Left    Ttl Dev     Max Dev
 ---------------------------------------------------
   1         0           2      0.000084    0.000045
   2         0           2      0.000059    0.000036
   3         0           2      0.000016    0.000009
   4         0           2      0.000009    0.000005
   5         1           1      0.000004    0.000003
   6         0           2      0.000005    0.000004
   7         1           1      0.000005    0.000004
   8         1           1      0.000004    0.000004
   9         1           1      0.000003    0.000003
  10         1           1      0.000003    0.000002
  11         1           1      0.000002    0.000001
  12         2           0      0.000001    0.000001    Roots Converged
 ---------------------------------------------------
 
 ---------------------------------------------------
         TDDFT/TDA Excitation Energies              
 ---------------------------------------------------

 Excited state   1: excitation energy (eV) =    2.4685
 Total energy for state  1:                 -2123.28045076 au
    Multiplicity: Singlet
    Trans. Mom.: -0.0749 X   0.0013 Y   0.1964 Z
    Strength   :     0.0026720368
    D(184) --> V(  1) amplitude =  0.9773

 Excited state   2: excitation energy (eV) =    2.7612
 Total energy for state  2:                 -2123.26969603 au
    Multiplicity: Singlet
    Trans. Mom.: -0.1794 X  -0.0138 Y   0.2929 Z
    Strength   :     0.0079945016
    D(183) --> V(  1) amplitude =  0.9566
 
 ---------------------------------------------------
 Calculating Relaxed Density
 ---------------------------------------------------
 Iter    Rts Conv    Rts Left    Ttl Dev     Max Dev
 ---------------------------------------------------
   1         0           2      0.000411    0.000209
   2         0           2      0.000128    0.000065
   3         0           2      0.000053    0.000027
   4         0           2      0.000016    0.000008
   5         0           2      0.000007    0.000003
   6         0           2      0.000002    0.000001
   7         2           0      0.000000    0.000000    Roots Converged
 ---------------------------------------------------
  SETman timing summary (seconds)
  CPU time              9551.41s
  System time              0.00s
  Wall time             1331.78s
 
 --------------------------------------------------------------
 
                    Orbital Energies (a.u.)
 --------------------------------------------------------------
 
 Alpha MOs
 -- Occupied --
-10.465 -10.464 -10.464 -10.464 -10.464 -10.464 -10.464 -10.463
-10.462 -10.462 -10.462 -10.462 -10.462 -10.462 -10.461 -10.461
-10.459 -10.459 -10.459 -10.459 -10.459 -10.459 -10.456 -10.455
-10.453 -10.453 -10.452 -10.451 -10.451 -10.451 -10.448 -10.447
-10.447 -10.446 -10.445 -10.443 -10.443 -10.443 -10.443 -10.442
-10.442 -10.442 -10.442 -10.441 -10.441 -10.439 -10.435 -10.435
-10.434 -10.434 -10.429 -10.428 -10.427 -10.426  -6.947  -6.942
 -1.015  -1.014  -0.975  -0.972  -0.960  -0.958  -0.933  -0.933
 -0.922  -0.918  -0.907  -0.898  -0.869  -0.865  -0.854  -0.854
 -0.847  -0.846  -0.846  -0.845  -0.823  -0.815  -0.811  -0.808
 -0.804  -0.803  -0.765  -0.760  -0.735  -0.730  -0.727  -0.720
 -0.700  -0.698  -0.689  -0.687  -0.679  -0.672  -0.669  -0.666
 -0.664  -0.656  -0.645  -0.645  -0.597  -0.594  -0.592  -0.589
 -0.583  -0.576  -0.576  -0.575  -0.571  -0.566  -0.564  -0.548
 -0.545  -0.544  -0.531  -0.527  -0.526  -0.512  -0.507  -0.504
 -0.503  -0.502  -0.499  -0.496  -0.493  -0.489  -0.485  -0.483
 -0.482  -0.482  -0.479  -0.479  -0.478  -0.474  -0.471  -0.470
 -0.466  -0.464  -0.453  -0.450  -0.447  -0.443  -0.440  -0.437
 -0.436  -0.435  -0.433  -0.430  -0.429  -0.422  -0.421  -0.414
 -0.407  -0.400  -0.398  -0.394  -0.394  -0.393  -0.392  -0.388
 -0.385  -0.379  -0.379  -0.369  -0.368  -0.364  -0.354  -0.354
 -0.350  -0.335  -0.322  -0.319  -0.316  -0.312  -0.295  -0.294
 -0.281  -0.276  -0.275  -0.261  -0.255  -0.253  -0.244  -0.233
 -- Virtual --
 -0.096  -0.059  -0.035  -0.030  -0.020  -0.016  -0.003   0.007
  0.014   0.019   0.023   0.044   0.056   0.057   0.071   0.085
  0.090   0.093   0.123   0.128   0.136   0.137   0.144   0.144
  0.152   0.158   0.159   0.159   0.163   0.167   0.168   0.172
  0.175   0.178   0.186   0.189   0.194   0.195   0.196   0.198
  0.203   0.210   0.212   0.214   0.215   0.216   0.218   0.219
  0.222   0.227   0.228   0.230   0.234   0.243   0.244   0.246
  0.246   0.248   0.251   0.253   0.253   0.254   0.257   0.264
  0.267   0.269   0.277   0.279   0.281   0.284   0.285   0.286
  0.289   0.293   0.299   0.302   0.307   0.308   0.308   0.313
  0.315   0.317   0.323   0.327   0.332   0.334   0.336   0.339
  0.346   0.347   0.351   0.353   0.360   0.364   0.370   0.374
  0.376   0.384   0.391   0.403   0.414   0.417   0.418   0.421
  0.429   0.431   0.443   0.452   0.453   0.457   0.463   0.469
  0.477   0.484   0.485   0.488   0.491   0.499   0.502   0.504
  0.506   0.508   0.524   0.525   0.527   0.530   0.530   0.530
  0.531   0.532   0.535   0.535   0.538   0.540   0.546   0.549
  0.553   0.554   0.558   0.559   0.561   0.562   0.563   0.564
  0.564   0.567   0.571   0.576   0.578   0.582   0.584   0.590
  0.590   0.590   0.591   0.595   0.595   0.596   0.598   0.599
  0.600   0.601   0.602   0.608   0.609   0.611   0.612   0.613
  0.618   0.619   0.620   0.622   0.622   0.623   0.625   0.626
  0.628   0.631   0.633   0.642   0.643   0.648   0.651   0.652
  0.653   0.653   0.656   0.657   0.658   0.659   0.661   0.661
  0.664   0.672   0.673   0.676   0.683   0.685   0.691   0.695
  0.705   0.707   0.708   0.711   0.717   0.720   0.724   0.726
  0.727   0.730   0.732   0.734   0.737   0.746   0.749   0.752
  0.758   0.759   0.764   0.768   0.775   0.776   0.777   0.778
  0.781   0.783   0.784   0.786   0.797   0.798   0.803   0.809
  0.813   0.825   0.830   0.832   0.835   0.841   0.845   0.853
  0.855   0.865   0.867   0.870   0.888   0.893   0.902   0.907
  0.911   0.913   0.914   0.918   0.920   0.922   0.924   0.933
  0.947   0.949   0.950   0.953   0.956   0.963   0.970   0.971
  0.975   0.978   0.980   0.985   0.986   0.986   0.990   0.992
  0.995   0.996   0.999   1.001   1.003   1.013   1.015   1.018
  1.021   1.025   1.026   1.032   1.034   1.037   1.039   1.040
  1.045   1.046   1.048   1.053   1.060   1.062   1.065   1.073
  1.075   1.077   1.078   1.083   1.085   1.088   1.090   1.093
  1.100   1.107   1.117   1.118   1.119   1.123   1.128   1.131
  1.135   1.138   1.141   1.145   1.148   1.158   1.162   1.165
  1.168   1.171   1.177   1.183   1.186   1.195   1.202   1.204
  1.205   1.211   1.219   1.226   1.240   1.242   1.253   1.255
  1.258   1.265   1.266   1.268   1.274   1.282   1.290   1.294
  1.299   1.300   1.301   1.302   1.305   1.317   1.327   1.334
  1.336   1.339   1.342   1.347   1.348   1.349   1.354   1.363
  1.372   1.376   1.376   1.379   1.383   1.392   1.397   1.399
  1.403   1.408   1.410   1.412   1.422   1.427   1.437   1.441
  1.442   1.442   1.444   1.447   1.452   1.463   1.465   1.477
  1.484   1.493   1.504   1.506   1.512   1.512   1.518   1.518
  1.518   1.518   1.521   1.528   1.530   1.532   1.532   1.533
  1.536   1.537   1.540   1.543   1.552   1.557   1.557   1.559
  1.561   1.568   1.569   1.574   1.575   1.583   1.585   1.593
  1.597   1.611   1.615   1.616   1.627   1.632   1.634   1.655
  1.658   1.671   1.680   1.693   1.705   1.717   1.722   1.728
  1.746   1.752   1.779   1.783   1.790   1.806   1.807   1.808
  1.811   1.811   1.815   1.816   1.819   1.826   1.827   1.834
  1.843   1.846   1.870   1.876   1.891   1.896   1.898   1.904
  1.907   1.910   1.915   1.918   1.920   1.922   1.932   1.938
  1.949   1.955   1.963   1.967   1.973   1.984   1.984   1.987
  1.991   1.999   2.011   2.017   2.022   2.031   2.039   2.044
  2.046   2.049   2.049   2.058   2.071   2.071   2.072   2.076
  2.080   2.087   2.098   2.100   2.105   2.106   2.111   2.111
  2.112   2.127   2.132   2.139   2.146   2.152   2.155   2.160
  2.161   2.173   2.178   2.182   2.185   2.196   2.199   2.202
  2.205   2.231   2.232   2.236   2.236   2.241   2.244   2.254
  2.260   2.261   2.262   2.263   2.267   2.272   2.274   2.278
  2.280   2.281   2.284   2.291   2.292   2.317   2.322   2.323
  2.337   2.339   2.344   2.348   2.350   2.350   2.357   2.357
  2.358   2.360   2.360   2.367   2.370   2.373   2.383   2.387
  2.391   2.393   2.394   2.405   2.409   2.411   2.417   2.421
  2.422   2.423   2.426   2.428   2.432   2.433   2.446   2.449
  2.478   2.480   2.488   2.496   2.499   2.499   2.511   2.512
  2.535   2.553   2.564   2.569   2.574   2.601   2.608   2.620
  2.637   2.644   2.644   2.645   2.661   2.666   2.684   2.688
  2.703   2.708   2.711   2.712   2.716   2.722   2.723   2.729
  2.729   2.739   2.743   2.748   2.768   2.771   2.777   2.780
  2.782   2.785   2.787   2.788   2.792   2.793   2.805   2.807
  2.808   2.812   2.812   2.822   2.824   2.830   2.842   2.847
  2.860   2.860   2.862   2.872   2.873   2.886   2.902   2.919
  2.924   2.931   2.939   2.943   2.955   2.983   2.988   2.996
  2.997   3.002   3.019   3.034   3.043   3.048   3.065   3.073
  3.082   3.086   3.137   3.145   3.154   3.239   3.258   3.260
  3.403   3.445   3.448   3.472   3.488   3.491   3.494   3.495
  3.567   3.576   3.667   3.677   9.605   9.738  13.144  13.175
 13.297  13.351  13.499  13.503  13.510  13.524  13.529  13.546
 13.742  13.747  13.762  13.775  13.792  13.794  13.798  13.802
 13.861  13.868  13.892  13.894  13.963  14.007  14.015  14.018
 14.029  14.038  14.113  14.124  14.139  14.155  14.161  14.163
 14.173  14.206  14.219  14.257  14.261  14.267  14.312  14.316
 14.327  14.349  14.503  14.515  14.516  14.531  14.564  14.565
 14.574  14.575  14.583  14.585
 --------------------------------------------------------------
 
          Ground-State Mulliken Net Atomic Charges

     Atom                 Charge (a.u.)
  ----------------------------------------
      1 C                    -0.149568
      2 C                    -0.390073
      3 H                     0.231036
      4 C                     0.115721
      5 C                     0.094370
      6 C                    -0.385548
      7 H                     0.231385
      8 C                    -0.152676
      9 C                     0.197073
     10 C                    -0.375461
     11 H                     0.222282
     12 C                    -0.065346
[...]
C  4 1.454557 2 130.748241 1 179.814444 0
C  9 1.372898 4 134.980799 2 0.326943 0
H  10 1.082947 9 121.760579 4 0.187265 0
C  9 1.407634 4 106.313255 2 -179.649941 0
C  12 1.392780 9 123.807099 4 179.918575 0
C  12 1.409885 9 111.397958 4 -0.076921 0
C  14 1.371718 12 117.774361 9 -179.989394 0
H  15 1.082765 14 121.845358 12 179.961404 0
C  10 1.412770 9 118.590689 4 -179.917053 0
H  17 1.082706 10 118.518068 9 -179.974881 0
C  17 1.375463 10 122.450992 9 -0.011241 0
H  19 1.083189 17 119.944720 10 179.995224 0
C  13 1.413918 12 116.009329 9 -179.985770 0
H  21 1.083245 13 120.096381 12 -179.985210 0
C  21 1.375470 13 119.877741 12 -0.018924 0
H  23 1.082485 21 118.858394 13 -179.964813 0
B  8 1.522582 6 122.321275 5 -179.855667 0
C  25 1.523179 8 122.330191 6 -179.414713 0
C  26 1.415418 25 122.379707 8 179.802094 0
H  27 1.085995 26 120.161853 25 -0.759784 0
C  27 1.373973 26 120.734090 25 179.476349 0
C  29 1.424962 27 119.577258 26 0.168731 0
C  30 1.373967 29 120.630994 27 0.096256 0
H  31 1.085091 30 120.095427 29 179.859801 0
C  31 1.402668 30 120.796851 29 -0.315489 0
C  30 1.453977 29 108.467142 27 -179.910570 0
C  34 1.372430 30 134.839575 29 179.786346 0
H  35 1.082979 34 121.752675 30 0.011130 0
C  34 1.407837 30 106.354313 29 -0.036483 0
C  37 1.391295 34 123.841541 30 179.874731 0
C  37 1.410014 34 111.296904 30 0.000000 0
C  39 1.371009 37 117.883102 34 179.910436 0
H  40 1.082820 39 121.833700 37 -179.952102 0
C  35 1.412288 34 118.482486 30 -179.841005 0
H  42 1.082648 35 118.535737 34 179.949954 0
C  42 1.375832 35 122.443914 34 0.013401 0
H  44 1.083066 42 119.850402 35 179.959823 0
C  40 1.414254 39 118.673472 37 -0.000000 0
H  46 1.082433 40 118.407862 39 -179.968629 0
C  46 1.375714 40 122.757013 39 -0.017747 0
H  48 1.083078 46 119.948657 40 -179.946520 0
B  1 1.534881 2 119.978029 3 0.712763 0
C  25 1.576779 8 118.687303 6 0.663569 0
C  51 1.416888 25 121.468010 8 -89.581296 0
C  52 1.404652 51 120.360690 25 1.251228 0
H  53 1.081191 52 119.235950 51 0.284082 0
C  53 1.389797 52 120.776040 51 -179.806805 0
H  55 1.080749 53 119.636948 52 -179.895284 0
C  55 1.386558 53 120.221534 52 0.203863 0
H  57 1.081066 55 120.125185 53 179.823654 0
C  57 1.390334 55 120.104802 53 -0.202674 0
H  59 1.082804 57 119.849790 55 -179.982515 0
C  59 1.396731 57 120.503671 55 -0.003868 0
C  61 1.411897 59 121.725915 57 -179.845422 0
H  62 1.082876 61 119.170569 59 -0.035947 0
C  62 1.381813 61 120.936905 59 179.776182 0
H  64 1.081885 62 119.365666 61 -179.791069 0
C  64 1.390852 62 121.099700 61 0.204164 0
C  66 1.487318 64 121.081727 62 -179.695227 0
H  67 1.088208 66 112.263860 64 1.010151 0
H  67 1.091785 66 110.320470 64 122.688787 0
H  67 1.091946 66 110.340220 64 -120.609080 0
C  50 1.582917 1 119.839396 2 1.557548 0
C  71 1.381952 50 120.181739 1 87.614601 0
C  72 1.412386 71 120.256233 50 -178.366842 0
H  73 1.084089 72 118.934735 71 179.907769 0
C  73 1.364891 72 121.468028 71 0.037815 0
H  75 1.083761 73 120.456775 72 179.924516 0
C  75 1.409562 73 120.228865 72 -0.098244 0
C  77 1.413234 75 121.786050 73 179.967199 0
H  78 1.083958 77 118.786506 75 0.075871 0
C  78 1.365766 77 120.877285 75 -179.963835 0
H  80 1.082328 78 120.245338 77 -179.997143 0
C  80 1.408595 78 119.901531 77 -0.005357 0
H  82 1.082262 80 119.663765 78 -179.973966 0
C  82 1.366682 80 120.370609 78 0.047002 0
H  84 1.083588 82 119.765835 80 179.970301 0
C  84 1.416367 82 121.331221 80 -0.089328 0
C  72 1.503844 71 120.581831 50 1.052496 0
H  87 1.090391 72 111.689812 71 176.878861 0
H  87 1.091602 72 111.411385 71 56.430613 0
H  87 1.092138 72 111.276761 71 -62.842807 0
$end

 
 --------------------------------------------------------------
 
                    Orbital Energies (a.u.)
 --------------------------------------------------------------
 
 Alpha MOs
 -- Occupied --
-10.464 -10.464 -10.464 -10.464 -10.464 -10.464 -10.464 -10.463
-10.462 -10.462 -10.462 -10.462 -10.462 -10.462 -10.461 -10.461
-10.459 -10.459 -10.459 -10.459 -10.459 -10.459 -10.455 -10.455
-10.453 -10.453 -10.452 -10.451 -10.451 -10.451 -10.448 -10.447
-10.446 -10.446 -10.445 -10.443 -10.443 -10.443 -10.443 -10.442
-10.442 -10.442 -10.442 -10.441 -10.441 -10.439 -10.435 -10.434
-10.434 -10.433 -10.429 -10.428 -10.427 -10.425  -6.947  -6.942
 -1.015  -1.014  -0.975  -0.972  -0.960  -0.958  -0.933  -0.932
 -0.922  -0.918  -0.907  -0.898  -0.869  -0.865  -0.854  -0.854
 -0.847  -0.846  -0.846  -0.845  -0.823  -0.815  -0.811  -0.808
 -0.804  -0.803  -0.765  -0.760  -0.735  -0.730  -0.727  -0.720
 -0.700  -0.698  -0.689  -0.687  -0.679  -0.672  -0.669  -0.666
 -0.664  -0.656  -0.645  -0.645  -0.597  -0.594  -0.592  -0.589
 -0.583  -0.576  -0.576  -0.575  -0.571  -0.566  -0.564  -0.548
 -0.545  -0.544  -0.531  -0.527  -0.526  -0.512  -0.507  -0.504
 -0.503  -0.502  -0.499  -0.496  -0.493  -0.489  -0.485  -0.483
 -0.482  -0.482  -0.479  -0.479  -0.477  -0.474  -0.471  -0.470
 -0.466  -0.464  -0.453  -0.450  -0.447  -0.443  -0.440  -0.437
 -0.436  -0.435  -0.433  -0.430  -0.430  -0.422  -0.421  -0.414
 -0.407  -0.400  -0.398  -0.394  -0.394  -0.393  -0.392  -0.388
 -0.385  -0.379  -0.379  -0.369  -0.368  -0.364  -0.354  -0.354
 -0.350  -0.335  -0.322  -0.319  -0.315  -0.312  -0.295  -0.294
 -0.281  -0.276  -0.275  -0.261  -0.255  -0.253  -0.244  -0.233
 -- Virtual --
 -0.096  -0.059  -0.035  -0.030  -0.020  -0.017  -0.003   0.007
  0.014   0.019   0.023   0.044   0.056   0.057   0.071   0.085
  0.090   0.093   0.123   0.128   0.136   0.137   0.144   0.144
  0.152   0.158   0.159   0.159   0.164   0.167   0.169   0.172
  0.175   0.178   0.186   0.189   0.194   0.195   0.196   0.198
  0.202   0.210   0.212   0.215   0.215   0.216   0.218   0.219
  0.222   0.227   0.228   0.230   0.234   0.243   0.243   0.246
  0.247   0.247   0.251   0.253   0.253   0.254   0.257   0.264
  0.267   0.269   0.277   0.279   0.281   0.284   0.285   0.286
  0.289   0.293   0.299   0.304   0.307   0.308   0.308   0.312
  0.315   0.316   0.323   0.327   0.332   0.334   0.337   0.339
  0.346   0.348   0.351   0.353   0.360   0.364   0.370   0.374
  0.376   0.384   0.391   0.403   0.414   0.416   0.418   0.421
  0.429   0.431   0.442   0.452   0.453   0.457   0.463   0.469
  0.477   0.484   0.485   0.488   0.491   0.498   0.503   0.503
  0.506   0.508   0.524   0.526   0.527   0.530   0.530   0.530
  0.531   0.532   0.535   0.536   0.539   0.539   0.546   0.549
  0.553   0.554   0.558   0.559   0.561   0.562   0.563   0.564
  0.564   0.568   0.573   0.576   0.579   0.581   0.583   0.590
  0.590   0.590   0.591   0.595   0.595   0.596   0.598   0.599
  0.600   0.601   0.602   0.608   0.608   0.611   0.612   0.613
  0.618   0.619   0.620   0.621   0.622   0.623   0.625   0.626
  0.627   0.631   0.632   0.642   0.643   0.648   0.651   0.652
  0.653   0.653   0.655   0.657   0.658   0.659   0.660   0.661
  0.664   0.672   0.673   0.675   0.683   0.685   0.691   0.696
  0.705   0.707   0.708   0.711   0.717   0.720   0.724   0.725
  0.728   0.730   0.732   0.734   0.737   0.746   0.749   0.752
  0.758   0.759   0.765   0.767   0.775   0.776   0.777   0.778
  0.781   0.783   0.785   0.786   0.797   0.798   0.803   0.808
  0.812   0.825   0.831   0.832   0.834   0.841   0.845   0.852
  0.856   0.866   0.867   0.869   0.888   0.893   0.902   0.907
  0.911   0.913   0.914   0.918   0.920   0.921   0.924   0.933
  0.947   0.949   0.950   0.953   0.956   0.963   0.970   0.971
  0.975   0.979   0.980   0.985   0.986   0.986   0.991   0.992
  0.995   0.996   0.999   1.002   1.003   1.013   1.015   1.018
  1.021   1.025   1.026   1.032   1.035   1.037   1.040   1.040
  1.045   1.046   1.047   1.053   1.060   1.061   1.066   1.074
  1.075   1.077   1.078   1.083   1.085   1.089   1.089   1.093
  1.100   1.107   1.117   1.118   1.120   1.123   1.128   1.131
  1.135   1.140   1.140   1.145   1.148   1.158   1.162   1.165
  1.168   1.171   1.177   1.183   1.186   1.195   1.202   1.203
  1.205   1.210   1.220   1.226   1.241   1.243   1.253   1.255
  1.257   1.265   1.266   1.269   1.274   1.282   1.289   1.296
  1.297   1.300   1.300   1.302   1.306   1.317   1.327   1.333
  1.336   1.339   1.342   1.347   1.348   1.349   1.354   1.363
  1.372   1.375   1.376   1.380   1.381   1.392   1.397   1.399
  1.403   1.408   1.410   1.412   1.422   1.427   1.437   1.441
  1.441   1.443   1.445   1.446   1.452   1.463   1.465   1.477
  1.487   1.490   1.504   1.505   1.512   1.512   1.518   1.518
  1.518   1.518   1.522   1.529   1.529   1.532   1.532   1.533
  1.536   1.537   1.540   1.543   1.552   1.556   1.558   1.559
  1.561   1.567   1.570   1.574   1.576   1.582   1.585   1.594
  1.597   1.611   1.615   1.616   1.627   1.632   1.634   1.656
  1.658   1.671   1.681   1.693   1.705   1.718   1.723   1.729
  1.746   1.752   1.779   1.783   1.789   1.805   1.807   1.808
  1.811   1.811   1.815   1.816   1.819   1.826   1.827   1.834
  1.843   1.846   1.870   1.876   1.892   1.895   1.897   1.904
  1.908   1.910   1.915   1.918   1.920   1.922   1.933   1.938
  1.948   1.956   1.963   1.967   1.973   1.983   1.984   1.987
  1.992   1.999   2.012   2.019   2.022   2.032   2.038   2.045
  2.046   2.048   2.049   2.057   2.071   2.071   2.072   2.076
  2.080   2.087   2.099   2.100   2.105   2.106   2.111   2.111
  2.112   2.127   2.132   2.138   2.146   2.152   2.155   2.160
  2.161   2.173   2.177   2.182   2.185   2.196   2.199   2.202
  2.205   2.231   2.232   2.236   2.237   2.241   2.244   2.256
  2.259   2.261   2.261   2.263   2.267   2.271   2.274   2.278
  2.280   2.282   2.284   2.291   2.292   2.317   2.322   2.323
  2.337   2.339   2.345   2.349   2.350   2.351   2.357   2.358
  2.358   2.359   2.360   2.368   2.369   2.373   2.383   2.387
  2.391   2.392   2.394   2.405   2.409   2.410   2.417   2.421
  2.421   2.423   2.425   2.427   2.432   2.433   2.445   2.449
  2.478   2.481   2.488   2.497   2.499   2.499   2.512   2.513
  2.536   2.553   2.564   2.569   2.575   2.601   2.608   2.620
  2.638   2.643   2.644   2.645   2.661   2.666   2.684   2.688
  2.703   2.708   2.711   2.712   2.716   2.722   2.724   2.729
  2.729   2.739   2.744   2.748   2.768   2.771   2.777   2.780
  2.782   2.785   2.787   2.788   2.792   2.792   2.805   2.807
  2.808   2.812   2.812   2.822   2.824   2.830   2.842   2.848
  2.859   2.860   2.862   2.872   2.873   2.886   2.902   2.920
  2.924   2.931   2.939   2.943   2.955   2.983   2.988   2.996
  2.997   3.003   3.019   3.034   3.043   3.048   3.066   3.073
  3.082   3.086   3.138   3.144   3.154   3.239   3.258   3.260
  3.403   3.445   3.448   3.473   3.488   3.490   3.495   3.495
  3.567   3.576   3.667   3.677   9.605   9.739  13.144  13.175
 13.298  13.351  13.500  13.503  13.510  13.523  13.529  13.546
 13.742  13.747  13.762  13.775  13.792  13.794  13.799  13.801
 13.862  13.868  13.891  13.894  13.963  14.007  14.016  14.018
 14.029  14.038  14.113  14.125  14.139  14.155  14.161  14.163
 14.173  14.206  14.219  14.257  14.262  14.267  14.312  14.316
 14.327  14.349  14.503  14.515  14.516  14.531  14.564  14.565
 14.574  14.575  14.583  14.584
 --------------------------------------------------------------
 
          Ground-State Mulliken Net Atomic Charges

     Atom                 Charge (a.u.)
  ----------------------------------------
      1 C                    -0.148127
      2 C                    -0.390339
      3 H                     0.231560
      4 C                     0.117681
      5 C                     0.093391
      6 C                    -0.384103
      7 H                     0.231611
      8 C                    -0.153289
      9 C                     0.195188
     10 C                    -0.374020
     11 H                     0.222453
     12 C                    -0.064599
     13 C                     0.253284
     14 C                     0.201935
     15 C                    -0.384555
     16 H                     0.222326
     17 C                    -0.202128
     18 H                     0.226941
     19 C                    -0.336582
     20 H                     0.220902
     21 C                    -0.205949
     22 H                     0.227098
     23 C                    -0.331256
     24 H                     0.220774
     25 B                     0.685458
     26 C                    -0.151258
     27 C                    -0.390739
     28 H                     0.231695
     29 C                     0.117666
     30 C                     0.091754
     31 C                    -0.382105
     32 H                     0.233094
     33 C                    -0.150162
     34 C                     0.196500
     35 C                    -0.374416
     36 H                     0.222479
     37 C                    -0.065023
     38 C                     0.251533
     39 C                     0.203113
     40 C                    -0.385548
     41 H                     0.222289
     42 C                    -0.205874
     43 H                     0.226976
     44 C                    -0.330235
     45 H                     0.220651
     46 C                    -0.201988
     47 H                     0.226864
     48 C                    -0.336237
     49 H                     0.220913
     50 B                     0.703675
     51 C                    -0.243794
     52 C                     0.096438
     53 C                    -0.342060
     54 H                     0.236137
     55 C                    -0.232369
     56 H                     0.218547
     57 C                    -0.230491
     58 H                     0.216771
     59 C                    -0.299333
     60 H                     0.210560
     61 C                     0.153810
     62 C                    -0.325932
     63 H                     0.208301
     64 C                    -0.262374
     65 H                     0.207224
     66 C                     0.025311
     67 C                    -0.755165
     68 H                     0.233888
     69 H                     0.248067
     70 H                     0.247681
     71 C                    -0.233077
     72 C                     0.015870
     73 C                    -0.265761
     74 H                     0.208357
     75 C                    -0.313845
     76 H                     0.209859
     77 C                     0.133128
     78 C                    -0.284630
     79 H                     0.210338
     80 C                    -0.231628
     81 H                     0.217712
     82 C                    -0.234934
     83 H                     0.219883
     84 C                    -0.327737
     85 H                     0.234503
     86 C                     0.085584
     87 C                    -0.756035
     88 H                     0.235129
     89 H                     0.247320
     90 H                     0.247472
  ----------------------------------------
  Sum of atomic charges =    -0.000000

 -----------------------------------------------------------------
                    Cartesian Multipole Moments
 -----------------------------------------------------------------
    Charge (ESU x 10^10)
                -0.0000
    Dipole Moment (Debye)
         X      -0.3553      Y       0.0611      Z      -0.1949
       Tot       0.4098
    Quadrupole Moments (Debye-Ang)
        XX    -280.1443     XY       2.8390     YY    -315.7254
        XZ      -4.3714     YZ       1.4681     ZZ    -271.5776
    Octopole Moments (Debye-Ang^2)
       XXX      19.3575    XXY     -27.4228    XYY       9.0498
       YYY     -98.6021    XXZ     406.7505    XYZ      -3.8716
       YYZ     461.1462    XZZ      17.0333    YZZ     -31.0732
       ZZZ    1192.3931
    Hexadecapole Moments (Debye-Ang^3)
      XXXX  -20001.7406   XXXY    1133.9202   XXYY   -4292.4963
      XYYY     976.7285   YYYY   -3695.7814   XXXZ    2563.3127
      XXYZ     211.5738   XYYZ    1427.4664   YYYZ    1007.4350
      XXZZ   -7818.2121   XYZZ     428.4936   YYZZ   -6776.7433
      XZZZ    1694.3823   YZZZ    1024.1467   ZZZZ  -28821.0366
 -----------------------------------------------------------------
Archival summary:
1\1\ctcp010\OPT\ProcedureUnspecified\BasisUnspecified\54234\mewes\FriOct2605:13:442018FriOct2605:13:442018\0\\#,OPT,ProcedureUnspecified,BasisUnspecified,\\0,1\C\C,1,1.40214\H,2,1.085,1,119.295\C,2,1.37279,1,120.717,3,179.956,0\C,4,1.42495,2,120.736,1,0.100521,0\C,5,1.37355,4,119.521,2,-0.166124,0\H,6,1.08582,5,119.092,4,179.73,0\C,6,1.41584,5,120.7,4,0.07617,0\C,4,1.45456,2,130.748,1,179.814,0\C,9,1.3729,4,134.981,2,0.326943,0\H,10,1.08295,9,121.761,4,0.187265,0\C,9,1.40763,4,106.313,2,-179.65,0\C,12,1.39278,9,123.807,4,179.919,0\C,12,1.40989,9,111.398,4,-0.0769211,0\C,14,1.37172,12,117.774,9,-179.989,0\H,15,1.08276,14,121.845,12,179.961,0\C,10,1.41277,9,118.591,4,-179.917,0\H,17,1.08271,10,118.518,9,-179.975,0\C,17,1.37546,10,122.451,9,-0.0112406,0\H,19,1.08319,17,119.945,10,179.995,0\C,13,1.41392,12,116.009,9,-179.986,0\H,21,1.08325,13,120.096,12,-179.985,0\C,21,1.37547,13,119.878,12,-0.0189241,0\H,23,1.08248,21,118.858,13,-179.965,0\B,8,1.52258,6,122.321,5,-179.856,0\C,25,1.52318,8,122.33,6,-179.415,0\C,26,1.41542,25,122.38,8,179.802,0\H,27,1.086,26,120.162,25,-0.759784,0\C,27,1.37397,26,120.734,25,179.476,0\C,29,1.42496,27,119.577,26,0.168731,0\C,30,1.37397,29,120.631,27,0.0962558,0\H,31,1.08509,30,120.095,29,179.86,0\C,31,1.40267,30,120.797,29,-0.315489,0\C,30,1.45398,29,108.467,27,-179.911,0\C,34,1.37243,30,134.84,29,179.786,0\H,35,1.08298,34,121.753,30,0.0111303,0\C,34,1.40784,30,106.354,29,-0.0364826,0\C,37,1.39129,34,123.842,30,179.875,0\C,37,1.41001,34,111.297,30,0,0\C,39,1.37101,37,117.883,34,179.91,0\H,40,1.08282,39,121.834,37,-179.952,0\C,35,1.41229,34,118.482,30,-179.841,0\H,42,1.08265,35,118.536,34,179.95,0\C,42,1.37583,35,122.444,34,0.0134011,0\H,44,1.08307,42,119.85,35,179.96,0\C,40,1.41425,39,118.673,37,-0,0\H,46,1.08243,40,118.408,39,-179.969,0\C,46,1.37571,40,122.757,39,-0.0177467,0\H,48,1.08308,46,119.949,40,-179.947,0\B,1,1.53488,2,119.978,3,0.712763,0\C,25,1.57678,8,118.687,6,0.663569,0\C,51,1.41689,25,121.468,8,-89.5813,0\C,52,1.40465,51,120.361,25,1.25123,0\H,53,1.08119,52,119.236,51,0.284082,0\C,53,1.3898,52,120.776,51,-179.807,0\H,55,1.08075,53,119.637,52,-179.895,0\C,55,1.38656,53,120.222,52,0.203863,0\H,57,1.08107,55,120.125,53,179.824,0\C,57,1.39033,55,120.105,53,-0.202674,0\H,59,1.0828,57,119.85,55,-179.983,0\C,59,1.39673,57,120.504,55,-0.00386835,0\C,61,1.4119,59,121.726,57,-179.845,0\H,62,1.08288,61,119.171,59,-0.0359466,0\C,62,1.38181,61,120.937,59,179.776,0\H,64,1.08189,62,119.366,61,-179.791,0\C,64,1.39085,62,121.1,61,0.204164,0\C,66,1.48732,64,121.082,62,-179.695,0\H,67,1.08821,66,112.264,64,1.01015,0\H,67,1.09178,66,110.32,64,122.689,0\H,67,1.09195,66,110.34,64,-120.609,0\C,50,1.58292,1,119.839,2,1.55755,0\C,71,1.38195,50,120.182,1,87.6146,0\C,72,1.41239,71,120.256,50,-178.367,0\H,73,1.08409,72,118.935,71,179.908,0\C,73,1.36489,72,121.468,71,0.0378154,0\H,75,1.08376,73,120.457,72,179.925,0\C,75,1.40956,73,120.229,72,-0.098244,0\C,77,1.41323,75,121.786,73,179.967,0\H,78,1.08396,77,118.787,75,0.0758705,0\C,78,1.36577,77,120.877,75,-179.964,0\H,80,1.08233,78,120.245,77,-179.997,0\C,80,1.4086,78,119.902,77,-0.00535692,0\H,82,1.08226,80,119.664,78,-179.974,0\C,82,1.36668,80,120.371,78,0.0470024,0\H,84,1.08359,82,119.766,80,179.97,0\C,84,1.41637,82,121.331,80,-0.0893282,0\C,72,1.50384,71,120.582,50,1.0525,0\H,87,1.09039,72,111.69,71,176.879,0\H,87,1.0916,72,111.411,71,56.4306,0\H,87,1.09214,72,111.277,71,-62.8428,0\\\@

 Total job time:  24939.41s(wall), 179596.93s(cpu) 
 Fri Oct 26 05:13:44 2018

        *************************************************************
        *                                                           *
        *  Thank you very much for using Q-Chem.  Have a nice day.  *
        *                                                           *
        *************************************************************


0 sent ACK to 0 
now end server 0 ... 
