140
 Final energy is   -3084.71877575944     
C        -0.1891215297    0.9506779050    0.3670808099
C        -0.2158241934    0.9106645245    1.7777900843
H         0.7234642241    0.8865236425    2.3215317019
C        -1.4092892269    0.8917314152    2.4616502999
C        -2.6359350213    0.9023457182    1.7336389361
C        -2.6353768104    0.9362432450    0.3638428677
H        -3.5802116460    0.9315046309   -0.1730081662
C        -1.4227816299    0.9724186255   -0.3551822276
C        -3.7377442113    0.8625690354    2.6872231376
C        -5.1066583552    0.8525440984    2.5868262371
H        -5.6086804553    0.8791367145    1.6270530736
C        -3.1512044742    0.8277073677    3.9666332754
C        -3.8794306082    0.7812541726    5.1517121104
C        -1.7424436023    0.8440203207    3.8850991754
C        -1.0320457826    0.8114876996    5.0580935491
H         0.0505732058    0.8210061457    5.0691014757
C        -5.8703543248    0.8068760336    3.7747147478
H        -6.9504931020    0.7992553209    3.6972697895
C        -5.2902719699    0.7716075882    5.0225302964
H        -5.9151292789    0.7367310452    5.9067663091
C        -1.7437670947    0.7638854333    6.2803447731
H        -1.1777701546    0.7383220235    7.2027740728
C        -3.1183223937    0.7487198810    6.3446873026
H        -3.6157156659    0.7118014259    7.3061622226
B        -1.4096335239    0.9821990961   -1.8821780723
C        -0.0864976657    1.0436640581   -2.6442309891
C        -0.0599542483    1.0901699729   -4.0534686459
H        -0.9895858014    1.1083900246   -4.6151733449
C         1.1292332402    1.1065478116   -4.7308669625
C         2.3677820275    1.0622103381   -4.0268355494
C         2.3621687610    1.0083338384   -2.6538071584
H         3.3010223458    0.9554936671   -2.1128573114
C         1.1490746372    1.0081263855   -1.9308486092
C         1.4125544739    1.1414619426   -6.1608119280
C         0.6506954658    1.1880553803   -7.3022978948
H        -0.4318644278    1.2156004878   -7.2651052621
C         2.8148740140    1.1129764589   -6.2846502240
C         3.4851711072    1.1257818957   -7.5057878512
C         3.4423987190    1.0662071264   -5.0215187752
C         4.8142187686    1.0328149720   -4.9894311292
H         5.3617751680    0.9992715527   -4.0556216126
C         1.3059637038    1.2029078578   -8.5545683780
H         0.7047786269    1.2407174805   -9.4546156447
C         2.6770506476    1.1723188752   -8.6685166132
H         3.1381181684    1.1847221218   -9.6488164980
C         5.5235537434    1.0448935362   -6.2140799514
H         6.6053629739    1.0188626177   -6.1809083164
C         4.8983158296    1.0892557545   -7.4391146077
H         5.4862136270    1.0966833641   -8.3489820427
B         1.1459415659    0.9164710427   -0.3943445513
C         2.5212151397    0.6896714788    0.3456738696
C         2.8869466218   -0.6084820249    0.7357991219
C         4.1550201025   -0.8508553396    1.2497381452
H         4.4433543967   -1.8610169245    1.5210335034
C         5.0707892708    0.1801193331    1.3916377415
C         4.7028647781    1.4725293255    1.0492609657
H         5.4186032898    2.2782292457    1.1707504249
C         3.4423356639    1.7326157161    0.5242729034
N         6.3965562081   -0.0886157805    1.8160081507
C         6.6020579404   -0.8100297789    2.9950126945
C         7.6346917800   -1.7427721947    3.1170169494
H         8.3037484983   -1.9239183174    2.2862620846
C         7.8007910320   -2.4551012281    4.2937713767
H         8.6066156868   -3.1750355514    4.3623526007
C         6.9384475328   -2.2733994401    5.3645595245
H         7.0670101732   -2.8393159989    6.2774865957
C         5.9036132181   -1.3560501267    5.2415084222
H         5.2180747621   -1.1978015550    6.0643690496
C         5.7379915568   -0.6251968374    4.0780328059
H         4.9287223580    0.0895435156    4.0023629943
C         7.4206576878    0.1173564716    0.8782135327
C         8.6782062185    0.5668428069    1.2819555418
H         8.8692158799    0.7528120556    2.3310920684
C         9.6773988366    0.7810943751    0.3471765807
H        10.6462827815    1.1316853243    0.6792120840
C         9.4397185110    0.5724608455   -1.0046810069
H        10.2202567630    0.7506828910   -1.7323570746
C         8.1860530278    0.1383536940   -1.4098762848
H         7.9831163325   -0.0326752068   -2.4597873239
C         7.1848484804   -0.0951960650   -0.4811855006
H         6.2139726713   -0.4417833754   -0.8121033688
C         1.9657994222   -1.7864102472    0.5248380956
H         0.9277552255   -1.4910602489    0.6880868327
H         2.1853113892   -2.5527954496    1.2729483957
C         3.0689389178    3.1523580213    0.1828216847
H         2.4972376058    3.1757850422   -0.7480856030
H         3.9753476004    3.7348375118   -0.0008243312
C         2.0967745098   -2.3973299438   -0.8700791443
H         1.8458773991   -1.6727917960   -1.6446034119
H         3.1145035252   -2.7439254697   -1.0557662222
H         1.4266222677   -3.2513495548   -0.9838089337
C         2.2511617271    3.8204988426    1.2859464602
H         1.3114075472    3.2938924173    1.4532066482
H         2.7993116520    3.8336002191    2.2290028812
H         2.0093093180    4.8512218128    1.0228735086
C        -2.7369201697    0.7810737929   -2.7253792266
C        -3.2043938316   -0.5415708785   -2.9588883039
C        -4.2843858979   -0.7627467163   -3.7752376688
H        -4.6500589040   -1.7723580758   -3.9152097678
C        -4.9472515349    0.3117140815   -4.4037027334
N        -5.9852702974    0.0657165301   -5.2542445327
C        -4.5109727593    1.6310794445   -4.1538105471
H        -4.9911283679    2.4595093588   -4.6597193315
C        -3.4336836250    1.8630682602   -3.3339310517
C        -6.0886523332   -1.1736435968   -5.9297439026
C        -7.3036121911   -1.8528854530   -5.9302939671
H        -8.1564351544   -1.4449024757   -5.4036280911
C        -7.4031156819   -3.0650732247   -6.5897209934
H        -8.3418261283   -3.6021167997   -6.5795919219
C        -6.3030976040   -3.5947744616   -7.2521078003
H        -6.3866191146   -4.5427574264   -7.7662526619
C        -5.0978112205   -2.9062962868   -7.2582438475
H        -4.2429989116   -3.3093168809   -7.7839452622
C        -4.9842791202   -1.6928270262   -6.6012647482
H        -4.0505254813   -1.1455595774   -6.6200825320
C        -6.9960879838    1.0229218348   -5.4955554117
C        -7.4106199866    1.2626093335   -6.8034664331
H        -6.9386643311    0.7441872471   -7.6279480708
C        -8.4175621757    2.1807264782   -7.0389429475
H        -8.7329020007    2.3775402548   -8.0545455997
C        -9.0160841903    2.8507336779   -5.9793898496
H        -9.8053939030    3.5656278635   -6.1686819598
C        -8.6066209899    2.5981223636   -4.6773256616
H        -9.0821861743    3.1059314772   -3.8493991022
C        -7.5991002925    1.6823454007   -4.4273215623
H        -7.2972423412    1.4630162887   -3.4112866352
C        -2.5050043490   -1.7379851458   -2.3731673560
H        -1.9543448218   -1.4542956072   -1.4768906539
H        -3.2503973686   -2.4746358246   -2.0615076608
C        -2.9993826938    3.2797731097   -3.0889727455
H        -1.9133075072    3.3247804205   -2.9921678490
H        -3.2636176154    3.8963332249   -3.9514626684
C        -1.5510110150   -2.3746031745   -3.3832240824
H        -0.7917542232   -1.6644138100   -3.7098019960
H        -1.0380827900   -3.2274504776   -2.9389526942
H        -2.0871476373   -2.7280622126   -4.2659698257
C        -3.6508494339    3.8531182464   -1.8321848170
H        -3.3697460715    3.2829069829   -0.9473997414
H        -3.3348361279    4.8838421002   -1.6739725843
H        -4.7389548011    3.8424711967   -1.9131401639
