140
 Final energy is   -3084.73720906864     
C        -0.1652001652    0.9365243712    0.2926368115
C        -0.2141274829    0.9176531448    1.7041664739
H         0.7156459839    0.9035345665    2.2645916025
C        -1.4183504243    0.9097682675    2.3695115839
C        -2.6339068971    0.9068712360    1.6215993559
C        -2.6117654228    0.9190593877    0.2509748110
H        -3.5477685593    0.9064132538   -0.3004196427
C        -1.3883785176    0.9475199766   -0.4492965465
C        -3.7508155725    0.8857791550    2.5574062990
C        -5.1185587405    0.8748308351    2.4342022590
H        -5.6046448646    0.8818328366    1.4659188271
C        -3.1849301196    0.8768932255    3.8469917395
C        -3.9329613193    0.8568984914    5.0210648197
C        -1.7747133271    0.8909198960    3.7885242823
C        -1.0832821364    0.8843252256    4.9740176488
H        -0.0009050569    0.8946208022    5.0031567294
C        -5.9015427854    0.8546354375    3.6106677602
H        -6.9802527032    0.8461704968    3.5154382710
C        -5.3421118705    0.8457032023    4.8689961960
H        -5.9813572827    0.8304925543    5.7434862779
C        -1.8154529763    0.8639006805    6.1853031570
H        -1.2647829596    0.8590231340    7.1173461810
C        -3.1915517673    0.8504701572    6.2272664174
H        -3.7049819227    0.8352287061    7.1809180388
B        -1.3559253244    0.9477951719   -1.9777717356
C        -0.0183091768    1.0135152368   -2.7159316848
C         0.0271404290    1.0630939662   -4.1240834642
H        -0.8957477610    1.0840717662   -4.6964040482
C         1.2264740745    1.0768801382   -4.7855324733
C         2.4553254030    1.0254100092   -4.0636615930
C         2.4310200398    0.9736599196   -2.6906347465
H         3.3630296984    0.9188388829   -2.1378634224
C         1.2072237715    0.9787708142   -1.9842766908
C         1.5303109627    1.1102565431   -6.2111933940
C         0.7842462262    1.1593833304   -7.3636115118
H        -0.2985743567    1.1913973747   -7.3420872393
C         2.9344792578    1.0727442742   -6.3151090956
C         3.6219894578    1.0782460063   -7.5271309173
C         3.5444064013    1.0211144778   -5.0433629936
C         4.9156927828    0.9736192821   -4.9917795041
H         5.4501797851    0.9326507052   -4.0506412523
C         1.4577337591    1.1683393047   -8.6067930102
H         0.8690704270    1.2077113097   -9.5149635181
C         2.8305462195    1.1287329760   -8.7017191715
H         3.3055192970    1.1358254331   -9.6754229438
C         5.6421972579    0.9784572567   -6.2068526099
H         6.7231183692    0.9408636090   -6.1585957726
C         5.0340480137    1.0287542770   -7.4408878619
H         5.6343391103    1.0295608833   -8.3427091528
B         1.1813144810    0.8971833344   -0.4473807145
C         2.5443264284    0.6783615960    0.3189064841
C         2.9032444342   -0.6144172340    0.7340528737
C         4.1610420198   -0.8493375476    1.2769957249
H         4.4436103772   -1.8563627335    1.5656511871
C         5.0730527133    0.1843695415    1.4257106358
C         4.7109465217    1.4722057485    1.0595593269
H         5.4220124851    2.2813077766    1.1871496683
C         3.4613057166    1.7241969459    0.5045526451
N         6.3893368898   -0.0764729942    1.8825438937
C         6.5718038521   -0.7890430026    3.0712292784
C         7.6003308804   -1.7231084625    3.2177515395
H         8.2830941270   -1.9123390891    2.4000154610
C         7.7461982243   -2.4256831422    4.4034884252
H         8.5493023872   -3.1465705191    4.4916210886
C         6.8668353377   -2.2321156102    5.4589701759
H         6.9796011295   -2.7899204225    6.3790521090
C         5.8357095202   -1.3134464516    5.3114842821
H         5.1378302606   -1.1460465457    6.1221491314
C         5.6904593123   -0.5924597439    4.1384273211
H         4.8846535436    0.1243671448    4.0450150458
C         7.4356977983    0.1298972160    0.9689081449
C         8.6801053379    0.5897262199    1.4014865532
H         8.8452498763    0.7833923117    2.4537483284
C         9.7014268022    0.8050642244    0.4905176607
H        10.6595200731    1.1635633192    0.8448298649
C         9.4986536517    0.5876628663   -0.8661230732
H        10.2959674431    0.7671673810   -1.5751518097
C         8.2580055383    0.1428608873   -1.3001647309
H         8.0818428634   -0.0344765718   -2.3538513938
C         7.2354901177   -0.0927418415   -0.3947073806
H         6.2762137599   -0.4485624799   -0.7490786086
C         1.9866168308   -1.7959550979    0.5230688947
H         0.9466447188   -1.5012267062    0.6748884248
H         2.2016085938   -2.5565440591    1.2782789833
C         3.0941786054    3.1404823688    0.1422543946
H         2.5302347674    3.1535788631   -0.7934389299
H         4.0031261832    3.7194877965   -0.0395087315
C         2.1298575600   -2.4180404668   -0.8657711711
H         1.8808219912   -1.7012917479   -1.6483371536
H         3.1503449919   -2.7622161164   -1.0411071585
H         1.4637713277   -3.2754259815   -0.9766413705
C         2.2677146603    3.8226919659    1.2303398345
H         1.3287926346    3.2948825021    1.3994729486
H         2.8100424644    3.8513517288    2.1764977277
H         2.0245164854    4.8486902451    0.9506229477
C        -2.6806677253    0.7488443778   -2.8281854735
C        -3.1323227950   -0.5710726650   -3.0850233579
C        -4.2456931457   -0.7879563215   -3.8615454649
H        -4.6053969871   -1.7983965359   -4.0132873621
C        -4.9558098043    0.2943581851   -4.4130232511
N        -6.0584898642    0.0621647388   -5.1927683112
C        -4.5207863504    1.6093072659   -4.1590039972
H        -5.0362217212    2.4431363095   -4.6200953680
C        -3.4033990103    1.8339167273   -3.3875743638
C        -6.1719547930   -1.1283797607   -5.9406221886
C        -7.3713446868   -1.8382588585   -5.9232016345
H        -8.2027985844   -1.4912826035   -5.3237012334
C        -7.4781929116   -3.0067672571   -6.6551297161
H        -8.4024244576   -3.5679337940   -6.6312041116
C        -6.4026172137   -3.4637211058   -7.4075008188
H        -6.4928063990   -4.3773233561   -7.9795937166
C        -5.2133321712   -2.7466317252   -7.4284159313
H        -4.3794881304   -3.0922622384   -8.0240842518
C        -5.0908842577   -1.5771646061   -6.6985500755
H        -4.1731835382   -1.0042953407   -6.7327861912
C        -7.1234590859    0.9835167428   -5.2480563321
C        -7.7130636141    1.2798362980   -6.4765293865
H        -7.3308613315    0.8377617015   -7.3874250743
C        -8.7773745734    2.1611934749   -6.5214450599
H        -9.2289709839    2.4030487573   -7.4739369595
C        -9.2596888911    2.7387999643   -5.3527867989
H       -10.0957794150    3.4238424530   -5.3943970210
C        -8.6737965976    2.4322055709   -4.1314006147
H        -9.0587426267    2.8662069296   -3.2187800379
C        -7.6064211757    1.5537972078   -4.0709015099
H        -7.1705267144    1.2872612021   -3.1167735663
C        -2.3937634112   -1.7730885062   -2.5596117174
H        -1.7985179282   -1.5012853421   -1.6875969025
H        -3.1153050955   -2.5216781536   -2.2217813585
C        -2.9740336089    3.2528989251   -3.1394607592
H        -1.8915657652    3.2982427452   -3.0077024345
H        -3.2074192763    3.8615868830   -4.0163536507
C        -1.4881448864   -2.3859376536   -3.6263100929
H        -0.7500340675   -1.6643239724   -3.9759376210
H        -0.9501324132   -3.2443741696   -3.2241039619
H        -2.0646807281   -2.7258177999   -4.4884693788
C        -3.6663370223    3.8418864661   -1.9125075972
H        -3.4219597895    3.2755382149   -1.0142675156
H        -3.3511778158    4.8725394031   -1.7508702139
H        -4.7509275893    3.8359398169   -2.0323789414
