140
 Final energy is   -3084.69830958783     
C         0.1515313524    0.1545520742   -0.0209452484
C         0.1427049027    0.1910710636    1.3949286094
H         1.0817827296    0.2533591838    1.9382942865
C        -1.0395358622    0.1571188422    2.0916686950
C        -2.2707169209    0.0711910988    1.3795074862
C        -2.2842097487    0.0320688496    0.0076238143
H        -3.2270679029   -0.0378702173   -0.5251167442
C        -1.0871677012    0.0795131294   -0.7265145753
C        -1.3582234218    0.1913938653    3.5224480842
C        -0.6407865429    0.2775681643    4.6875600327
H         0.4403662558    0.3432974349    4.6882670517
C        -2.7640641396    0.1183691923    3.6169155499
C        -3.4817774530    0.1243136119    4.8084490586
C        -3.3605394804    0.0429038377    2.3427834247
C        -4.7277160228   -0.0346378620    2.2559073820
H        -5.2356691834   -0.0963012577    1.3011669842
C        -1.3411655265    0.2864135615    5.9165594101
H        -0.7711803739    0.3572009138    6.8342610000
C        -2.7127256293    0.2119938371    5.9923491352
H        -3.2023522826    0.2232062242    6.9584431489
C        -4.8919938695    0.0440307438    4.6933858299
H        -5.5094545345    0.0436972980    5.5832627484
C        -5.4797841906   -0.0331975583    3.4520673469
H        -6.5587137567   -0.0946196589    3.3848766817
B         1.4540931235    0.1698663916   -0.8216072378
C         1.4528136975    0.1931917225   -2.3466536198
C         2.6559045808    0.2414926501   -3.0943086242
H         3.6115303678    0.2753799294   -2.5781454417
C         2.6302055506    0.2459312964   -4.4647948765
C         1.3783024286    0.1868574365   -5.1462200801
C         0.2020979533    0.1210774444   -4.4419344173
H        -0.7445817048    0.0640224862   -4.9699159350
C         0.2039308579    0.1227216273   -3.0375371296
C         3.6853970698    0.3021308192   -5.4817642460
C         5.0551183351    0.3760982556   -5.4768347986
H         5.6215290481    0.4045569618   -4.5541432070
C         3.0312538304    0.2736124803   -6.7309927172
C         3.6754581388    0.3147079873   -7.9649520606
C         1.6320851670    0.2038606385   -6.5792515760
C         0.8476941795    0.1726812095   -7.7063976671
H        -0.2325885750    0.1208671504   -7.6481869957
C         5.7388135004    0.4180678782   -6.7144222250
H         6.8198360112    0.4765478388   -6.7048325434
C         5.0870761074    0.3893722641   -7.9254843393
H         5.6548936296    0.4254085048   -8.8473368252
C         2.8443979825    0.2807403715   -9.1120955948
H         3.2843510711    0.3100757735  -10.1015287750
C         1.4779109137    0.2114129944   -8.9703885740
H         0.8583270182    0.1868114139   -9.8580640924
B        -1.1205989092    0.0244564787   -2.2651018252
C        -2.4935356759   -0.1807327513   -3.0275774395
C        -3.2145288453    0.8957987847   -3.5645156269
C        -4.4318597556    0.6855093272   -4.2010218959
H        -4.9746105901    1.5279048511   -4.6160276255
C        -4.9759374783   -0.5879583338   -4.2932186286
C        -4.2673456579   -1.6604678038   -3.7713852102
H        -4.6837909086   -2.6598365498   -3.8387665918
C        -3.0343576897   -1.4692290626   -3.1613040072
N        -6.2438412819   -0.7784205825   -4.8880021758
C        -7.3150515265    0.0292889718   -4.4759839270
C        -8.2534408077    0.4841210102   -5.4026062145
H        -8.1456971976    0.2184618806   -6.4464746918
C        -9.3183957937    1.2676427396   -4.9926958004
H       -10.0373166687    1.6103648331   -5.7258922280
C        -9.4578186686    1.6296019528   -3.6604343509
H       -10.2869680225    2.2486968275   -3.3450248464
C        -8.5185704005    1.1897396777   -2.7393613913
H        -8.6148925133    1.4600430472   -1.6957036743
C        -7.4602690425    0.3900312343   -3.1372568511
H        -6.7392861774    0.0415912401   -2.4094863384
C        -6.4696858376   -1.8727271672   -5.7329513233
C        -7.6584483866   -2.6009619017   -5.6627635174
H        -8.4176298453   -2.3249451633   -4.9426886726
C        -7.8721218346   -3.6786997168   -6.5058199619
H        -8.8016082196   -4.2290183891   -6.4337851749
C        -6.9033872838   -4.0674658355   -7.4185507348
H        -7.0701918489   -4.9151647488   -8.0695862315
C        -5.7149712242   -3.3538753220   -7.4817570256
H        -4.9482550433   -3.6404624691   -8.1901648532
C        -5.4991456754   -2.2629256520   -6.6575657516
H        -4.5714313835   -1.7097205168   -6.7229639776
C        -2.2836973025   -2.6877228599   -2.6895592501
H        -2.9906476298   -3.4311445928   -2.3105210414
H        -1.6332272620   -2.4331459414   -1.8498596528
C        -2.7262452831    2.3132583326   -3.4217165144
H        -2.9900542003    2.8831927791   -4.3170530183
H        -1.6361944062    2.3361990449   -3.3570662944
C        -3.3254672455    2.9957848848   -2.1942999892
H        -3.0435594322    2.4716842816   -1.2810165097
H        -2.9796626733    4.0267061742   -2.1071508906
H        -4.4152011927    3.0105303634   -2.2475578545
C        -1.4504526710   -3.3071530972   -3.8092412356
H        -0.7203465465   -2.5936742573   -4.1916257661
H        -2.0812378050   -3.6185156711   -4.6433029071
H        -0.9071436402   -4.1850844487   -3.4560321755
C         2.8222011225    0.0233904231   -0.0578912268
C         3.6910473229    1.1314324948    0.1643417535
C         4.8487185723    0.9702521863    0.8823371266
H         5.4780652621    1.8264466874    1.0908861254
C         5.1855736403   -0.2926975000    1.4206848456
C         4.3430275637   -1.3996620263    1.1770262068
H         4.6307432952   -2.3785709060    1.5386007925
C         3.1969019607   -1.2601164302    0.4404757561
N         6.3071289368   -0.4541152514    2.1817354614
C         7.4376223008    0.3761725464    2.0190867685
C         7.9019381790    0.6672596900    0.7388392076
H         7.4062285286    0.2459163793   -0.1263075002
C         9.0075207501    1.4848050914    0.5842954213
H         9.3682551394    1.7098666071   -0.4100661570
C         9.6573128101    2.0000168526    1.6967969503
H        10.5218200779    2.6375074833    1.5714722776
C         9.1995637208    1.6918133854    2.9709531529
H         9.7019162261    2.0937367113    3.8401491573
C         8.0918282396    0.8804135885    3.1390117285
H         7.7259430645    0.6500466024    4.1309394753
C         6.3545304272   -1.4715578662    3.1653239733
C         5.3068834690   -1.5934831416    4.0736321517
H         4.4742098046   -0.9027462198    4.0372722572
C         5.3399923800   -2.6010019266    5.0215665398
H         4.5252949148   -2.6971963556    5.7261841750
C         6.4141992487   -3.4778707671    5.0703585349
H         6.4356392515   -4.2663492623    5.8102606715
C         7.4617621310   -3.3429830068    4.1692419643
H         8.2967426253   -4.0295423955    4.2011314974
C         7.4391391795   -2.3403876128    3.2154266391
H         8.2466250212   -2.2425880806    2.5014308208
C         2.3718084043   -2.4795635288    0.1321658158
H         2.5524604576   -3.2372022315    0.8987892596
H         1.3115673550   -2.2290969929    0.1854599917
C         3.3056017646    2.4967175321   -0.3308549432
H         4.2024461785    3.1143810232   -0.4220156976
H         2.8793673980    2.4118279786   -1.3322967722
C         2.6858564551   -3.0659650672   -1.2445973993
H         2.4635276468   -2.3568287805   -2.0400972574
H         2.0816464810   -3.9558737830   -1.4203107768
H         3.7353806613   -3.3521139643   -1.3261725506
C         2.2980699114    3.1885243762    0.5863938441
H         1.3687849948    2.6249223240    0.6549981309
H         2.0536769539    4.1772719592    0.1992428741
H         2.6968274712    3.3111177739    1.5942222414
140
 Final energy is   -3084.72030976760     
C         0.1719736631    0.1040580968   -0.0555958112
C         0.1645595718    0.1441804146    1.3599502095
H         1.1048163059    0.2025649760    1.9010927887
C        -1.0173477434    0.1191742584    2.0589633242
C        -2.2505547768    0.0367507896    1.3479109405
C        -2.2658381166   -0.0077583713   -0.0238294815
H        -3.2109625991   -0.0733955952   -0.5532132071
C        -1.0690741877    0.0323056640   -0.7604115994
C        -1.3345643871    0.1632234780    3.4895523387
C        -0.6152256149    0.2523576405    4.6542760839
H         0.4664123151    0.3100600132    4.6544770572
C        -2.7414088529    0.1003918119    3.5855219893
C        -3.4585161777    0.1197679282    4.7778896339
C        -3.3399483711    0.0209758330    2.3121566706
C        -4.7085200176   -0.0472680309    2.2264522627
H        -5.2179768097   -0.1111650036    1.2724799763
C        -1.3154363778    0.2745175210    5.8837478023
H        -0.7440033357    0.3473231813    6.8004568952
C        -2.6880913364    0.2104952593    5.9613965357
H        -3.1771083651    0.2319476734    6.9277073495
C        -4.8698293252    0.0489458487    4.6645862332
H        -5.4864328882    0.0592426507    5.5551243564
C        -5.4595288491   -0.0325877749    3.4235595310
H        -6.5390390753   -0.0865440425    3.3575819748
B         1.4768039434    0.1136525768   -0.8549107771
C         1.4680487523    0.1304649113   -2.3815691402
C         2.6698919573    0.1821076575   -3.1286686952
H         3.6244402106    0.2184928972   -2.6110451847
C         2.6445699537    0.1842589513   -4.5004396066
C         1.3924177310    0.1224631808   -5.1820385784
C         0.2163770852    0.0595569418   -4.4780880214
H        -0.7296009623    0.0038570351   -5.0076900948
C         0.2184418911    0.0645164703   -3.0723737652
C         3.6998703100    0.2385249797   -5.5171527512
C         5.0702699282    0.3136129613   -5.5117278263
H         5.6367389646    0.3450312229   -4.5891217994
C         3.0459734474    0.2060498261   -6.7671808058
C         3.6909671761    0.2440847511   -8.0013751857
C         1.6466215185    0.1353831928   -6.6161767276
C         0.8623407996    0.0994896955   -7.7436999276
H        -0.2180629887    0.0462512596   -7.6861421590
C         5.7542770151    0.3528796869   -6.7498995711
H         6.8353113916    0.4122507453   -6.7396053898
C         5.1031704563    0.3200688945   -7.9618893786
H         5.6712684627    0.3538819225   -8.8837594135
C         2.8605254722    0.2056643033   -9.1493844698
H         3.3013160792    0.2323350464  -10.1386378052
C         1.4935200493    0.1352443027   -9.0080599798
H         0.8742013386    0.1071025304   -9.8959546812
B        -1.1053869662   -0.0220975634   -2.2986289753
C        -2.4852501487   -0.2076253106   -3.0563049539
C        -3.1981996069    0.8818825636   -3.5783916340
C        -4.4269300950    0.6929294040   -4.2006957315
H        -4.9624123036    1.5465425795   -4.6025971960
C        -4.9915806057   -0.5719551753   -4.2923727971
C        -4.2897342231   -1.6579665470   -3.7887648967
H        -4.7194003938   -2.6517910149   -3.8563684220
C        -3.0455474448   -1.4876201515   -3.1941066572
N        -6.2714983456   -0.7394173875   -4.8678901416
C        -7.3248772159    0.0839367660   -4.4395912162
C        -8.2716377337    0.5476537726   -5.3536668960
H        -8.1843238560    0.2779920376   -6.3985699798
C        -9.3198728422    1.3474178107   -4.9304372978
H       -10.0452964740    1.6973208161   -5.6539445611
C        -9.4337623852    1.7162958346   -3.5970869823
H       -10.2494972642    2.3480493957   -3.2714458218
C        -8.4864262848    1.2666076828   -2.6883224791
H        -8.5629752011    1.5415588788   -1.6441361008
C        -7.4448867897    0.4507428686   -3.0996524495
H        -6.7191171622    0.0953183265   -2.3798648231
C        -6.5315956336   -1.8355041647   -5.7020486055
C        -7.7182081572   -2.5611945787   -5.5837934113
H        -8.4493732791   -2.2822209341   -4.8360755797
C        -7.9658790772   -3.6416830438   -6.4149473864
H        -8.8926780822   -4.1906692703   -6.3059024644
C        -7.0327984143   -4.0340245183   -7.3634654079
H        -7.2256328251   -4.8835298195   -8.0051779903
C        -5.8465776115   -3.3217058242   -7.4756960036
H        -5.1084712374   -3.6109497989   -8.2129612002
C        -5.5979336098   -2.2284208029   -6.6627445741
H        -4.6728567366   -1.6763514331   -6.7672540893
C        -2.3060885567   -2.7205417610   -2.7421343795
H        -3.0174006590   -3.4557767866   -2.3554294000
H        -1.6360636405   -2.4807984841   -1.9135711992
C        -2.6894366814    2.2922258632   -3.4353133305
H        -2.9439604460    2.8657761861   -4.3310668865
H        -1.5993777117    2.2991932091   -3.3685817398
C        -3.2800547852    2.9844288079   -2.2089776306
H        -3.0084130144    2.4554983700   -1.2952098331
H        -2.9172236219    4.0094719964   -2.1212495150
H        -4.3694310144    3.0170346006   -2.2643983811
C        -1.5021754537   -3.3457339005   -3.8800723532
H        -0.7703374384   -2.6395442035   -4.2727784225
H        -2.1525359891   -3.6453694319   -4.7035643252
H        -0.9632341929   -4.2315331666   -3.5403457721
C         2.8468723821   -0.0032335061   -0.0807201832
C         3.6735646418    1.1256350668    0.1700074426
C         4.8213519593    0.9927084752    0.9134935694
H         5.4173511683    1.8664761748    1.1459963462
C         5.1865004981   -0.2651871719    1.4414572970
C         4.3871350961   -1.3945813011    1.1638565789
H         4.6972449357   -2.3699859452    1.5167480891
C         3.2501597309   -1.2774038921    0.4063374438
N         6.2956720776   -0.4025787917    2.2263962011
C         7.4067732857    0.4559716882    2.0946893804
C         7.8787655378    0.7848523124    0.8254451276
H         7.4061102361    0.3692373063   -0.0552200424
C         8.9688968254    1.6279630338    0.7036209006
H         9.3389327177    1.8808399758   -0.2805936459
C         9.5925977867    2.1328329542    1.8364818198
H        10.4452432213    2.7906187086    1.7360934656
C         9.1254403131    1.7888960661    3.0989237579
H         9.6072479211    2.1842049017    3.9826773698
C         8.0348414075    0.9493817296    3.2356424970
H         7.6603370135    0.6924423601    4.2178790144
C         6.3454492172   -1.4261408834    3.2022341175
C         5.2740998294   -1.5876095277    4.0771625715
H         4.4240838683   -0.9192456682    4.0263280142
C         5.3112686819   -2.6026374362    5.0168042270
H         4.4810289982   -2.7294776311    5.6980972593
C         6.4098770697   -3.4483094483    5.0869220778
H         6.4335689539   -4.2436288745    5.8195773841
C         7.4793731476   -3.2739850022    4.2176886499
H         8.3324927366   -3.9368571075    4.2668416726
C         7.4559065606   -2.2613736547    3.2747727091
H         8.2802996238   -2.1328465476    2.5853946551
C         2.4674114858   -2.5176582052    0.0679401236
H         2.6316980113   -3.2695435325    0.8435435892
H         1.3999141765   -2.2925661776    0.0746133943
C         3.2647303709    2.4863438776   -0.3222877072
H         4.1520739086    3.1166550002   -0.4177256065
H         2.8362788600    2.3974265300   -1.3223989566
C         2.8540617124   -3.0991565631   -1.2914649220
H         2.6506109697   -2.3957334720   -2.0974099089
H         2.2794853330   -4.0034174128   -1.4921702979
H         3.9128971436   -3.3596672035   -1.3256003778
C         2.2533908752    3.1661006315    0.5990224057
H         1.3310686420    2.5914607880    0.6710301657
H         1.9959389008    4.1528284954    0.2146860376
H         2.6549095430    3.2913183998    1.6055813053
140
 Final energy is   -3084.72464053816     
C         0.1708841623    0.1060122372   -0.0558088565
C         0.1629770850    0.1464354623    1.3596651025
H         1.1031644373    0.2032615055    1.9009740252
C        -1.0193620703    0.1233943207    2.0583814994
C        -2.2525736744    0.0424052830    1.3468411335
C        -2.2673910150   -0.0031807931   -0.0248945492
H        -3.2126299518   -0.0679523864   -0.5542174358
C        -1.0701637541    0.0349960466   -0.7611633104
C        -1.3370359949    0.1686793253    3.4888071810
C        -0.6178464001    0.2571787380    4.6538485137
H         0.4639015122    0.3127023940    4.6545641765
C        -2.7441381383    0.1083497313    3.5842328470
C        -3.4617233565    0.1297678200    4.7764028983
C        -3.3424587332    0.0291136931    2.3106745363
C        -4.7112619588   -0.0367089238    2.2244142532
H        -5.2205792020   -0.1002183995    1.2703061793
C        -1.3186612235    0.2813117662    5.8830634255
H        -0.7473715666    0.3534877299    6.7999085197
C        -2.6915893512    0.2198860283    5.9602921406
H        -3.1809733605    0.2427899929    6.9263925082
C        -4.8732115127    0.0613819169    4.6626456655
H        -5.4900835114    0.0733647745    5.5529939018
C        -5.4626901472   -0.0199278256    3.4213312058
H        -6.5422840339   -0.0719721527    3.3549871860
B         1.4768905789    0.1140713288   -0.8538276483
C         1.4675268424    0.1309056176   -2.3809120065
C         2.6695849934    0.1833384803   -3.1273964673
H         3.6237486738    0.2201113992   -2.6092256406
C         2.6449436857    0.1857006009   -4.4993951035
C         1.3930618153    0.1231330443   -5.1816807054
C         0.2167004879    0.0598908702   -4.4783114107
H        -0.7288289321    0.0039202603   -5.0087282541
C         0.2180775061    0.0651237985   -3.0724087891
C         3.7007172766    0.2406214166   -5.5155494837
C         5.0711987326    0.3169392024   -5.5093701255
H         5.6372290536    0.3490696089   -4.5865163531
C         3.0474078838    0.2075080981   -6.7660026513
C         3.6930565358    0.2459560057   -7.9999572407
C         1.6479521561    0.1359603090   -6.6158116901
C         0.8641637278    0.0993675110   -7.7438054263
H        -0.2162663435    0.0453699185   -7.6869017022
C         5.7557504288    0.3566834475   -6.7473552795
H         6.8367265768    0.4170311768   -6.7364455839
C         5.1053021512    0.3231302696   -7.9598262519
H         5.6738181270    0.3573375303   -8.8814340283
C         2.8632335448    0.2068143423   -9.1484985857
H         3.3045883694    0.2337194748  -10.1375081206
C         1.4960631134    0.1354372088   -9.0079096637
H         0.8772273936    0.1067395827   -9.8961383787
B        -1.1060511765   -0.0207775505   -2.2992046758
C        -2.4857353033   -0.2069234244   -3.0575348619
C        -3.1995998991    0.8820496103   -3.5797570604
C        -4.4280731437    0.6922219752   -4.2024519681
H        -4.9639525402    1.5455961051   -4.6044244472
C        -4.9917331210   -0.5731709644   -4.2946463484
C        -4.2889128256   -1.6587095487   -3.7912355147
H        -4.7174189632   -2.6530330395   -3.8591058198
C        -3.0449768469   -1.4873536513   -3.1960332484
N        -6.2715731989   -0.7410660169   -4.8700648155
C        -7.3256851849    0.0806387652   -4.4397548971
C        -8.2727019960    0.5454414015   -5.3530429884
H        -8.1851414184    0.2781851533   -6.3985761776
C        -9.3218606254    1.3433370184   -4.9282192246
H       -10.0475357146    1.6941336864   -5.6510649326
C        -9.4362867667    1.7091001127   -3.5939365139
H       -10.2526829354    2.3393942220   -3.2670480156
C        -8.4886590092    1.2582579179   -2.6858790890
H        -8.5657073952    1.5306677075   -1.6410522647
C        -7.4461777323    0.4442352198   -3.0989775961
H        -6.7205115679    0.0877508187   -2.3795469994
C        -6.5323760131   -1.8387030718   -5.7022174178
C        -7.7176519814   -2.5659402315   -5.5798201617
H        -8.4473295264   -2.2873968743   -4.8304612685
C        -7.9660272679   -3.6479014645   -6.4090766591
H        -8.8917053313   -4.1981648181   -6.2968523108
C        -7.0349071538   -4.0399141021   -7.3597841348
H        -7.2282628617   -4.8904488219   -8.0000170040
C        -5.8500237846   -3.3258184082   -7.4763268952
H        -5.1136514341   -3.6146932955   -8.2154856439
C        -5.6007980229   -2.2311587542   -6.6652099792
H        -4.6769339219   -1.6777051074   -6.7734463371
C        -2.3049072983   -2.7199707443   -2.7441556032
H        -3.0156122523   -3.4550216231   -2.3560094686
H        -1.6335397758   -2.4796335044   -1.9168545952
C        -2.6920143366    2.2928697983   -3.4368793706
H        -2.9451583118    2.8655324036   -4.3335857677
H        -1.6021133599    2.3004596197   -3.3678237677
C        -3.2855218222    2.9860324222   -2.2124503200
H        -3.0162741436    2.4576531860   -1.2976309634
H        -2.9226899328    4.0110632596   -2.1245799289
H        -4.3747645286    3.0188063008   -2.2706083863
C        -1.5024815707   -3.3460591195   -3.8826832302
H        -0.7714435305   -2.6399453734   -4.2771057538
H        -2.1539250173   -3.6467498161   -4.7049659921
H        -0.9627351942   -4.2312745682   -3.5427621408
C         2.8472049987   -0.0028396936   -0.0790050407
C         3.6716210833    1.1258072863    0.1755665425
C         4.8205224124    0.9920981258    0.9180821746
H         5.4150569597    1.8660952150    1.1535305404
C         5.1879249695   -0.2669740404    1.4403945253
C         4.3905723175   -1.3963317460    1.1589499722
H         4.7025758180   -2.3728387296    1.5072062925
C         3.2520766968   -1.2774364878    0.4031032357
N         6.2979918853   -0.4057039752    2.2248554541
C         7.4090060044    0.4521175915    2.0930052463
C         7.8777970497    0.7848696490    0.8233445104
H         7.4033202904    0.3718692528   -0.0575521038
C         8.9683545363    1.6273722194    0.7016991640
H         9.3364933781    1.8828856855   -0.2825462638
C         9.5951183636    2.1281401245    1.8348764893
H        10.4481012758    2.7855288099    1.7345221859
C         9.1308216625    1.7806314662    3.0975774354
H         9.6149381477    2.1730382845    3.9813626182
C         8.0401749570    0.9412936594    3.2343742937
H         7.6675530516    0.6820956889    4.2167403017
C         6.3469607386   -1.4295755559    3.1997629562
C         5.2731030711   -1.5938983493    4.0714087668
H         4.4223040027   -0.9266185293    4.0195345390
C         5.3097739466   -2.6096710482    5.0101852205
H         4.4781336748   -2.7385092340    5.6893965528
C         6.4098560391   -3.4535016511    5.0822711127
H         6.4330470764   -4.2495241384    5.8142084681
C         7.4815689710   -3.2764636496    4.2160907398
H         8.3356035602   -3.9380513779    4.2667561984
C         7.4591085962   -2.2627582763    3.2743946437
H         8.2850187053   -2.1324432872    2.5871676790
C         2.4710830465   -2.5181431448    0.0613455357
H         2.6312438428   -3.2696613735    0.8381132311
H         1.4034366024   -2.2935449483    0.0621149187
C         3.2611984158    2.4882754826   -0.3111602560
H         4.1484681123    3.1180855708   -0.4100355442
H         2.8271754192    2.4025530129   -1.3091579923
C         2.8650072059   -3.1003972093   -1.2955585477
H         2.6664911698   -2.3969062877   -2.1027662012
H         2.2914682601   -4.0046609739   -1.4993948756
H         3.9240065885   -3.3609993697   -1.3235559127
C         2.2560003279    3.1666723541    0.6176940242
H         1.3335294584    2.5926406182    0.6933445455
H         1.9973742197    4.1549699458    0.2380973139
H         2.6635270042    3.2880938171    1.6223169514
140
 Final energy is   -3084.73844779510     
C         0.1641938946    0.1098678060   -0.0540500216
C         0.1536240091    0.1478574209    1.3613584094
H         1.0930634820    0.1945259361    1.9045798768
C        -1.0308126994    0.1333928571    2.0579831916
C        -2.2637559748    0.0635228824    1.3435797201
C        -2.2760447807    0.0168723174   -0.0282416172
H        -3.2213678489   -0.0409820947   -0.5583485410
C        -1.0765565452    0.0457387355   -0.7623844269
C        -1.3508904270    0.1796149127    3.4876958981
C        -0.6326304755    0.2592961165    4.6545096324
H         0.4496324547    0.3032083953    4.6577981456
C        -2.7590090117    0.1325384038    3.5800779433
C        -3.4788490209    0.1594126286    4.7711923896
C        -3.3560162897    0.0598803643    2.3052621555
C        -4.7256755624    0.0073382994    2.2159949596
H        -5.2340698930   -0.0501266291    1.2609018552
C        -1.3361427505    0.2884962081    5.8824708630
H        -0.7656741797    0.3531950238    6.8003520510
C        -2.7101754319    0.2406353217    5.9571481339
H        -3.2013329292    0.2668855353    6.9222731803
C        -4.8909827010    0.1046125945    4.6547158910
H        -5.5092229664    0.1215242949    5.5440746781
C        -5.4792054149    0.0301970577    3.4118307410
H        -6.5591467711   -0.0113106199    3.3434595043
B         1.4745426087    0.1114872645   -0.8469124861
C         1.4645285105    0.1306567611   -2.3755316479
C         2.6680385448    0.1850938201   -3.1189841758
H         3.6206807810    0.2214365400   -2.5984042787
C         2.6465957889    0.1898859025   -4.4916919521
C         1.3959523553    0.1275347116   -5.1772818449
C         0.2178888577    0.0638308526   -4.4767746644
H        -0.7258557546    0.0089493256   -5.0106140986
C         0.2160313140    0.0679153223   -3.0702084274
C         3.7048169923    0.2459505609   -5.5050916818
C         5.0757039129    0.3228437994   -5.4951445341
H         5.6396282539    0.3549619385   -4.5709992731
C         3.0543714860    0.2131025782   -6.7574296014
C         3.7033194700    0.2520260625   -7.9900074997
C         1.6543290200    0.1410394750   -6.6112035347
C         0.8730862171    0.1041116291   -7.7414221074
H        -0.2075572840    0.0493805209   -7.6876495818
C         5.7631992541    0.3632465151   -6.7319059840
H         6.8440963815    0.4240356271   -6.7179260840
C         5.1158395249    0.3296765947   -7.9464982515
H         5.6865616634    0.3642437388   -8.8667424938
C         2.8764587443    0.2126440828   -9.1410100123
H         3.3206528922    0.2398176088  -10.1287677766
C         1.5085046874    0.1406568320   -9.0041236786
H         0.8920279856    0.1116509252   -9.8940035869
B        -1.1098453783   -0.0144548311   -2.2999898627
C        -2.4884403806   -0.2029504460   -3.0610924978
C        -3.2053140441    0.8841833668   -3.5835243924
C        -4.4326824838    0.6913471245   -4.2081351903
H        -4.9699321777    1.5439451568   -4.6101820003
C        -4.9926461486   -0.5757842735   -4.3026371572
C        -4.2865081773   -1.6598197180   -3.7999056155
H        -4.7112038692   -2.6557526643   -3.8688543585
C        -3.0438132474   -1.4850718191   -3.2024108595
N        -6.2714539416   -0.7459863761   -4.8790661031
C        -7.3292895281    0.0695614108   -4.4440912399
C        -8.2766404617    0.5361276837   -5.3562322086
H        -8.1866955302    0.2763158506   -6.4035417530
C        -9.3302018285    1.3269798720   -4.9280300514
H       -10.0562898988    1.6793663657   -5.6497299386
C        -9.4483285028    1.6833203797   -3.5911264291
H       -10.2681080399    2.3078527995   -3.2614714051
C        -8.5003806114    1.2303213781   -2.6839838897
H        -8.5807887842    1.4948910603   -1.6373635085
C        -7.4534457998    0.4232767838   -3.1009506364
H        -6.7287649375    0.0643464361   -2.3815646585
C        -6.5319066183   -1.8485046423   -5.7057127397
C        -7.7117185322   -2.5826449057   -5.5715912846
H        -8.4378001733   -2.3069730511   -4.8175936401
C        -7.9598323151   -3.6691565084   -6.3956313408
H        -8.8811369386   -4.2249146468   -6.2745222361
C        -7.0334736980   -4.0581268303   -7.3526791986
H        -7.2265341061   -4.9118371097   -7.9888557999
C        -5.8539655921   -3.3365279879   -7.4813320119
H        -5.1219243487   -3.6226410394   -8.2258942226
C        -5.6054766371   -2.2375380284   -6.6752219950
H        -4.6863333088   -1.6782109519   -6.7941779206
C        -2.3014140179   -2.7164795270   -2.7507350653
H        -3.0101611590   -3.4519843553   -2.3599971674
H        -1.6275103116   -2.4743344127   -1.9259962418
C        -2.7023739774    2.2967411178   -3.4406459846
H        -2.9429876910    2.8644819288   -4.3438981361
H        -1.6136856973    2.3061928161   -3.3547879860
C        -3.3151990567    2.9962249127   -2.2293323135
H        -3.0616375073    2.4719416190   -1.3075788838
H        -2.9531004767    4.0214237420   -2.1407017236
H        -4.4033437475    3.0296199071   -2.3053237727
C        -1.5013496395   -3.3438759088   -3.8903166730
H        -0.7737225838   -2.6367360221   -4.2895099724
H        -2.1548125312   -3.6489485187   -4.7094384247
H        -0.9580682491   -4.2264935687   -3.5494318149
C         2.8449878559   -0.0067801985   -0.0702062284
C         3.6598024424    1.1225228844    0.1962912335
C         4.8141151553    0.9883872579    0.9333835627
H         5.4029030772    1.8638793174    1.1780991399
C         5.1916598572   -0.2736014440    1.4360479470
C         4.4021253773   -1.4040187392    1.1446054140
H         4.7222953444   -2.3830746841    1.4783821983
C         3.2575688235   -1.2818865239    0.3955739170
N         6.3077424581   -0.4150947798    2.2159166024
C         7.4184329451    0.4384758078    2.0754523400
C         7.8694007898    0.7810006106    0.8010182911
H         7.3835051982    0.3745959480   -0.0766253104
C         8.9609126979    1.6206424659    0.6713250464
H         9.3169550337    1.8822910107   -0.3157593615
C         9.6049096223    2.1103912462    1.8002986567
H        10.4585129809    2.7660175804    1.6932729857
C         9.1573895426    1.7544056750    3.0672579318
H         9.6544927567    2.1392615112    3.9471392610
C         8.0669759202    0.9166235191    3.2128956306
H         7.7060485327    0.6531861785    4.1984973228
C         6.3562295236   -1.4371202080    3.1903321000
C         5.2774904996   -1.6065869087    4.0561561089
H         4.4252236316   -0.9413857840    4.0024659334
C         5.3148678796   -2.6217455984    4.9952811864
H         4.4814438233   -2.7534888125    5.6717647926
C         6.4186791701   -3.4610589374    5.0720265797
H         6.4420167133   -4.2569360682    5.8042098515