140
 Final energy is   -3084.72464053816     
C         0.1708841623    0.1060122372   -0.0558088565
C         0.1629770850    0.1464354623    1.3596651025
H         1.1031644373    0.2032615055    1.9009740252
C        -1.0193620703    0.1233943207    2.0583814994
C        -2.2525736744    0.0424052830    1.3468411335
C        -2.2673910150   -0.0031807931   -0.0248945492
H        -3.2126299518   -0.0679523864   -0.5542174358
C        -1.0701637541    0.0349960466   -0.7611633104
C        -1.3370359949    0.1686793253    3.4888071810
C        -0.6178464001    0.2571787380    4.6538485137
H         0.4639015122    0.3127023940    4.6545641765
C        -2.7441381383    0.1083497313    3.5842328470
C        -3.4617233565    0.1297678200    4.7764028983
C        -3.3424587332    0.0291136931    2.3106745363
C        -4.7112619588   -0.0367089238    2.2244142532
H        -5.2205792020   -0.1002183995    1.2703061793
C        -1.3186612235    0.2813117662    5.8830634255
H        -0.7473715666    0.3534877299    6.7999085197
C        -2.6915893512    0.2198860283    5.9602921406
H        -3.1809733605    0.2427899929    6.9263925082
C        -4.8732115127    0.0613819169    4.6626456655
H        -5.4900835114    0.0733647745    5.5529939018
C        -5.4626901472   -0.0199278256    3.4213312058
H        -6.5422840339   -0.0719721527    3.3549871860
B         1.4768905789    0.1140713288   -0.8538276483
C         1.4675268424    0.1309056176   -2.3809120065
C         2.6695849934    0.1833384803   -3.1273964673
H         3.6237486738    0.2201113992   -2.6092256406
C         2.6449436857    0.1857006009   -4.4993951035
C         1.3930618153    0.1231330443   -5.1816807054
C         0.2167004879    0.0598908702   -4.4783114107
H        -0.7288289321    0.0039202603   -5.0087282541
C         0.2180775061    0.0651237985   -3.0724087891
C         3.7007172766    0.2406214166   -5.5155494837
C         5.0711987326    0.3169392024   -5.5093701255
H         5.6372290536    0.3490696089   -4.5865163531
C         3.0474078838    0.2075080981   -6.7660026513
C         3.6930565358    0.2459560057   -7.9999572407
C         1.6479521561    0.1359603090   -6.6158116901
C         0.8641637278    0.0993675110   -7.7438054263
H        -0.2162663435    0.0453699185   -7.6869017022
C         5.7557504288    0.3566834475   -6.7473552795
H         6.8367265768    0.4170311768   -6.7364455839
C         5.1053021512    0.3231302696   -7.9598262519
H         5.6738181270    0.3573375303   -8.8814340283
C         2.8632335448    0.2068143423   -9.1484985857
H         3.3045883694    0.2337194748  -10.1375081206
C         1.4960631134    0.1354372088   -9.0079096637
H         0.8772273936    0.1067395827   -9.8961383787
B        -1.1060511765   -0.0207775505   -2.2992046758
C        -2.4857353033   -0.2069234244   -3.0575348619
C        -3.1995998991    0.8820496103   -3.5797570604
C        -4.4280731437    0.6922219752   -4.2024519681
H        -4.9639525402    1.5455961051   -4.6044244472
C        -4.9917331210   -0.5731709644   -4.2946463484
C        -4.2889128256   -1.6587095487   -3.7912355147
H        -4.7174189632   -2.6530330395   -3.8591058198
C        -3.0449768469   -1.4873536513   -3.1960332484
N        -6.2715731989   -0.7410660169   -4.8700648155
C        -7.3256851849    0.0806387652   -4.4397548971
C        -8.2727019960    0.5454414015   -5.3530429884
H        -8.1851414184    0.2781851533   -6.3985761776
C        -9.3218606254    1.3433370184   -4.9282192246
H       -10.0475357146    1.6941336864   -5.6510649326
C        -9.4362867667    1.7091001127   -3.5939365139
H       -10.2526829354    2.3393942220   -3.2670480156
C        -8.4886590092    1.2582579179   -2.6858790890
H        -8.5657073952    1.5306677075   -1.6410522647
C        -7.4461777323    0.4442352198   -3.0989775961
H        -6.7205115679    0.0877508187   -2.3795469994
C        -6.5323760131   -1.8387030718   -5.7022174178
C        -7.7176519814   -2.5659402315   -5.5798201617
H        -8.4473295264   -2.2873968743   -4.8304612685
C        -7.9660272679   -3.6479014645   -6.4090766591
H        -8.8917053313   -4.1981648181   -6.2968523108
C        -7.0349071538   -4.0399141021   -7.3597841348
H        -7.2282628617   -4.8904488219   -8.0000170040
C        -5.8500237846   -3.3258184082   -7.4763268952
H        -5.1136514341   -3.6146932955   -8.2154856439
C        -5.6007980229   -2.2311587542   -6.6652099792
H        -4.6769339219   -1.6777051074   -6.7734463371
C        -2.3049072983   -2.7199707443   -2.7441556032
H        -3.0156122523   -3.4550216231   -2.3560094686
H        -1.6335397758   -2.4796335044   -1.9168545952
C        -2.6920143366    2.2928697983   -3.4368793706
H        -2.9451583118    2.8655324036   -4.3335857677
H        -1.6021133599    2.3004596197   -3.3678237677
C        -3.2855218222    2.9860324222   -2.2124503200
H        -3.0162741436    2.4576531860   -1.2976309634
H        -2.9226899328    4.0110632596   -2.1245799289
H        -4.3747645286    3.0188063008   -2.2706083863
C        -1.5024815707   -3.3460591195   -3.8826832302
H        -0.7714435305   -2.6399453734   -4.2771057538
H        -2.1539250173   -3.6467498161   -4.7049659921
H        -0.9627351942   -4.2312745682   -3.5427621408
C         2.8472049987   -0.0028396936   -0.0790050407
C         3.6716210833    1.1258072863    0.1755665425
C         4.8205224124    0.9920981258    0.9180821746
H         5.4150569597    1.8660952150    1.1535305404
C         5.1879249695   -0.2669740404    1.4403945253
C         4.3905723175   -1.3963317460    1.1589499722
H         4.7025758180   -2.3728387296    1.5072062925
C         3.2520766968   -1.2774364878    0.4031032357
N         6.2979918853   -0.4057039752    2.2248554541
C         7.4090060044    0.4521175915    2.0930052463
C         7.8777970497    0.7848696490    0.8233445104
H         7.4033202904    0.3718692528   -0.0575521038
C         8.9683545363    1.6273722194    0.7016991640
H         9.3364933781    1.8828856855   -0.2825462638
C         9.5951183636    2.1281401245    1.8348764893
H        10.4481012758    2.7855288099    1.7345221859
C         9.1308216625    1.7806314662    3.0975774354
H         9.6149381477    2.1730382845    3.9813626182
C         8.0401749570    0.9412936594    3.2343742937
H         7.6675530516    0.6820956889    4.2167403017
C         6.3469607386   -1.4295755559    3.1997629562
C         5.2731030711   -1.5938983493    4.0714087668
H         4.4223040027   -0.9266185293    4.0195345390
C         5.3097739466   -2.6096710482    5.0101852205
H         4.4781336748   -2.7385092340    5.6893965528
C         6.4098560391   -3.4535016511    5.0822711127
H         6.4330470764   -4.2495241384    5.8142084681
C         7.4815689710   -3.2764636496    4.2160907398
H         8.3356035602   -3.9380513779    4.2667561984
C         7.4591085962   -2.2627582763    3.2743946437
H         8.2850187053   -2.1324432872    2.5871676790
C         2.4710830465   -2.5181431448    0.0613455357
H         2.6312438428   -3.2696613735    0.8381132311
H         1.4034366024   -2.2935449483    0.0621149187
C         3.2611984158    2.4882754826   -0.3111602560
H         4.1484681123    3.1180855708   -0.4100355442
H         2.8271754192    2.4025530129   -1.3091579923
C         2.8650072059   -3.1003972093   -1.2955585477
H         2.6664911698   -2.3969062877   -2.1027662012
H         2.2914682601   -4.0046609739   -1.4993948756
H         3.9240065885   -3.3609993697   -1.3235559127
C         2.2560003279    3.1666723541    0.6176940242
H         1.3335294584    2.5926406182    0.6933445455
H         1.9973742197    4.1549699458    0.2380973139
H         2.6635270042    3.2880938171    1.6223169514
