140
 Final energy is   -3084.69891071920     
C        -0.0873369451    0.7836760460    0.0404094880
C        -0.1422960910    0.8612285708    1.4524570565
H         0.7796515895    0.8849977963    2.0274398844
C        -1.3476415598    0.9064856023    2.1055611216
C        -2.5575469141    0.8712318680    1.3539417821
C        -2.5253174723    0.8012630244   -0.0174822752
H        -3.4508994353    0.7732019467   -0.5833368918
C        -1.3020438375    0.7594909767   -0.7094196833
C        -3.6764127309    0.9196651025    2.2851876559
C        -5.0430623849    0.9091633613    2.1627470789
H        -5.5278858997    0.8563485535    1.1956951639
C        -5.8270625697    0.9674560590    3.3373146269
H        -6.9052824301    0.9576732429    3.2396383968
C        -5.2726036922    1.0358823227    4.5941585960
H        -5.9131890847    1.0793820708    5.4664862053
C        -3.1163607501    0.9877662090    3.5755316741
C        -3.8647200154    1.0483382609    4.7467369927
C        -1.7079830443    0.9851740724    3.5225059683
C        -1.0193756168    1.0513503112    4.7056467632
H         0.0631998761    1.0573198726    4.7348395499
C        -1.7510082340    1.1158057426    5.9141659159
H        -1.2036514900    1.1693946358    6.8466409558
C        -3.1260261417    1.1143921722    5.9509336956
H        -3.6421261492    1.1651651529    6.9018584568
B        -1.2818841944    0.6660055935   -2.2486940146
B         1.2408671388    0.7106975907   -0.7063190753
C         1.2940665471    0.6601436840   -2.2300487171
C         2.5278544918    0.6018171047   -2.9208272039
H         3.4607478612    0.5985407865   -2.3645259557
C         2.5632928663    0.5517205496   -4.2879803697
C         3.6728813005    0.4981027983   -5.2417201863
C         5.0417785488    0.4769180913   -5.1568453744
H         5.5537485901    0.4990207189   -4.2025636860
C         5.7952315819    0.4259352200   -6.3520935669
H         6.8756021348    0.4094519201   -6.2824479353
C         5.2102271834    0.3966301879   -7.5971010958
H         5.8301984505    0.3583756067   -8.4845741816
C         3.0866850340    0.4666776027   -6.5231577984
C         3.8005610686    0.4170826710   -7.7175609200
C         1.6787091273    0.4958131365   -6.4472186635
C         0.9590348566    0.4742620536   -7.6165656164
H        -0.1237382134    0.4962738915   -7.6195640452
C         1.6597999875    0.4234159414   -8.8427287383
H         1.0896228899    0.4069610284   -9.7630627036
C         3.0334590455    0.3951715273   -8.9088535427
H         3.5270763850    0.3571837257   -9.8723010193
C         1.3443548598    0.5489377117   -5.0305771133
C         0.1346694280    0.5868251401   -4.3791868002
H        -0.7896942725    0.5741200793   -4.9486342672
C         0.0745007401    0.6415232159   -2.9744541068
C         2.5970836765    0.5902463486    0.0857645836
C         2.9635500047   -0.6564137035    0.6721041753
C         4.1633500329   -0.7829201039    1.3235763643
H         4.4537142653   -1.7426096873    1.7330482921
C         5.0650249010    0.3002798325    1.3857491789
C         4.7128176107    1.5361781975    0.8008622155
H         5.3883965816    2.3782937940    0.8860645263
C         3.4976609219    1.6911779952    0.1844891672
N         6.2786143044    0.1463838467    1.9977487429
C         6.4260150763   -0.7436182544    3.0833353946
C         7.5195260352   -1.6038443731    3.1401633171
H         8.2580990481   -1.5987520199    2.3490893932
C         7.6388912333   -2.4819768893    4.2025846933
H         8.4807636793   -3.1597222728    4.2406343569
C         6.6780706545   -2.5070977091    5.2046921113
H         6.7746489274   -3.1992987672    6.0299629021
C         5.5947725783   -1.6419463041    5.1470390211
H         4.8488977943   -1.6503384998    5.9300218730
C         5.4663604621   -0.7547579884    4.0934275287
H         4.6298588409   -0.0687587173    4.0552778782
C         7.4065032661    0.8533472652    1.5295048106
C         8.2761310726    1.4578952174    2.4321817220
H         8.0814104608    1.4000243235    3.4950234313
C         9.3762194504    2.1476468498    1.9549926152
H        10.0477191252    2.6285457883    2.6530379221
C         9.6118451045    2.2361691668    0.5893074497
H        10.4721854372    2.7796933473    0.2233285484
C         8.7455105851    1.6241409548   -0.3055332765
H         8.9318170399    1.6797314256   -1.3693419612
C         7.6450908059    0.9261726921    0.1583477437
H         6.9785292014    0.4289365009   -0.5348784423
C         2.0858122402   -1.8684506226    0.5176486665
H         2.2809230174   -2.5587235913    1.3422779879
H         1.0376227056   -1.5783042016    0.5942781059
C         3.1021963329    3.0369714525   -0.3539803663
H         2.6320913334    2.9147907774   -1.3316801926
H         3.9984838301    3.6419011649   -0.5113965856
C         2.3165172819   -2.5866234880   -0.8125310122
H         2.0826142436   -1.9432530888   -1.6594575977
H         3.3514907904   -2.9166551418   -0.9121937576
H         1.6761939144   -3.4657608507   -0.8801768831
C         2.1415222667    3.7752087382    0.5769471604
H         1.2142065017    3.2205365468    0.7133162681
H         2.5874417628    3.9406111565    1.5585179889
H         1.8826444303    4.7469781387    0.1576303565
C        -2.6391080678    0.5649348065   -3.0594489364
C        -3.2955243992   -0.6686475434   -3.1924255116
C        -4.5147961117   -0.7557155985   -3.8513272528
H        -5.0202181516   -1.7130565444   -3.9190475094
C        -5.0982500147    0.3671880955   -4.4197489836
C        -4.4411640717    1.5853121420   -4.3249471352
H        -4.8867672869    2.4665575087   -4.7738851055
C        -3.2351916680    1.6930036495   -3.6424126128
N        -6.3534785127    0.2814457948   -5.0635442367
C        -7.3582572094    1.1976064480   -4.7189949386
C        -8.2109554432    1.7150827491   -5.6943907902
H        -8.0915886952    1.4102553073   -6.7261915310
C        -9.2055754549    2.6136922638   -5.3485280874
H        -9.8577035741    3.0042575988   -6.1192935250
C        -9.3577169029    3.0288612313   -4.0333993796
H       -10.1310497428    3.7373794915   -3.7685006219
C        -8.5034196829    2.5248798419   -3.0636964727
H        -8.6108829170    2.8349658836   -2.0322556566
C        -7.5179336357    1.6110019910   -3.3967962885
H        -6.8640919134    1.2143902593   -2.6311447034
C        -6.6276786998   -0.7832815450   -5.9309611267
C        -7.8769271420   -1.4063071784   -5.9313098091
H        -8.6467100579   -1.0695353189   -5.2492587604
C        -8.1375984698   -2.4550764253   -6.7972735137
H        -9.1135597120   -2.9232517200   -6.7807562717
C        -7.1587094319   -2.9195677979   -7.6628289097
H        -7.3633691283   -3.7445040651   -8.3320464156
C        -5.9111939946   -2.3123336454   -7.6544546465
H        -5.1353712711   -2.6595127912   -8.3248261365
C        -5.6461003567   -1.2505989319   -6.8067789666
H        -4.6718516225   -0.7798311234   -6.8172394439
C        -2.6911200795   -1.9427265715   -2.6610277177
H        -2.0780324743   -1.7354111521   -1.7816373706
H        -3.4875190613   -2.6129840526   -2.3256771685
C        -2.6232361535    3.0613098182   -3.4996755971
H        -1.5417162544    2.9830164442   -3.3706281219
H        -2.7799396688    3.6304119798   -4.4203547492
C        -1.8467817724   -2.6540525951   -3.7165344789
H        -1.0216008851   -2.0235137710   -4.0478198857
H        -1.4223304941   -3.5790941246   -3.3230402067
H        -2.4456399980   -2.9076949327   -4.5926364818
C        -3.2235969818    3.8281441620   -2.3234666353
H        -3.0405315390    3.3069702176   -1.3835965709
H        -2.7914553052    4.8263950332   -2.2406240589
H        -4.3030387231    3.9381787103   -2.4381458115
