mFile = /cm/shared/apps/q-chem/intel/QCHEM_5.0.1_Trunk/bin/mpi/machines
Process 0 of 1 is on ctcp028 - thread support 0
initial socket setup ...start
initial socket setup ...done 
now start server 0 ... 
ctcp028.cm.cluster 10.141.0
Q-Chem Developer Version! Running on 10.141.0.*
                  Welcome to Q-Chem
     A Quantum Leap Into The Future Of Chemistry


 Q-Chem 5.0, Q-Chem, Inc., Pleasanton, CA (2017)

 Yihan Shao,  Zhengting Gan,  E. Epifanovsky,  A. T. B. Gilbert,  M. Wormit,  
 J. Kussmann,  A. W. Lange,  A. Behn,  Jia Deng,  Xintian Feng,  D. Ghosh,  
 M. Goldey,  P. R. Horn,  L. D. Jacobson,  I. Kaliman,  T. Kus,  A. Landau,  
 Jie Liu,  E. I. Proynov,  R. M. Richard,  R. P. Steele,  E. J. Sundstrom,  
 H. L. Woodcock III,  P. M. Zimmerman,  D. Zuev,  B. Albrecht,  E. Alguire,  
 S. A. Baeppler,  Z. Benda,  Y. A. Bernard,  E. J. Berquist,  K. B. Bravaya,  
 D. Casanova,  Chun-Min Chang,  Yunqing Chen,  A. Chien,  K. D. Closser,  
 M. P. Coons,  S. Dasgupta,  M. Diedenhofen,  Hainam Do,  R. G. Edgar,  
 Po-Tung Fang,  S. Fatehi,  Qingguo Feng,  Qinghui Ge,  A. Ghysels,  
 J. Gomes,  J. Gonthier,  A. Gunina,  M. W. D. Hanson-Heine,  
 P. H. P. Harbach,  A. W. Hauser,  J. E. Herr,  E. G. Hohenstein,  
 Z. C. Holden,  Kerwin Hui,  T.-C. Jagau,  Hyunjun Ji,  B. Kaduk,  
 K. Khistyaev,  Jaehoon Kim,  P. Klunzinger,  K. Koh,  D. Kosenkov,  
 T. Kowalczyk,  C. M. Krauter,  A. Kunitsa,  Ka Un Lao,  A. Laurent,  
 K. V. Lawler,  Joonho Lee,  D. Lefrancois,  S. Lehtola,  D. S. Levine,  
 Yi-Pei Li,  You-Sheng Lin,  Fenglai Liu,  E. Livshits,  A. Luenser,  
 P. Manohar,  E. Mansoor,  S. F. Manzer,  Shan-Ping Mao,  Yuezhi Mao,  
 N. Mardirossian,  A. V. Marenich,  L. A. Martinez-Martinez,  S. A. Maurer,  
 N. J. Mayhall,  S. C. McKenzie,  J.-M. Mewes,  A. F. Morrison,  K. Nanda,  
 T. S. Nguyen-Beck,  R. Olivares-Amaya,  J. A. Parkhill,  T. M. Perrine,  
 F. Plasser,  S. Prager,  A. Prociuk,  D. R. Rehn,  F. Rob,  M. Schneider,  
 N. Sergueev,  S. M. Sharada,  S. Sharma,  D. W. Small,  T. Stauch,  
 T. Stein,  Yu-Chuan Su,  A. J. W. Thom,  T. Tsuchimochi,  L. Vogt,  
 O. Vydrov,  M. A. Watson,  J. Wenzel,  M. de Wergifosse,  T. A. Wesolowski,  
 A. White,  J. Witte,  A. Yamada,  Jun Yang,  K. Yao,  S. Yeganeh,  
 S. R. Yost,  Zhi-Qiang You,  A. Zech,  Igor Ying Zhang,  Xing Zhang,  
 Yan Zhao,  Ying Zhu,  B. R. Brooks,  G. K. L. Chan,  C. J. Cramer,  
 M. S. Gordon,  W. J. Hehre,  A. Klamt,  M. W. Schmidt,  C. D. Sherrill,  
 D. G. Truhlar,  A. Aspuru-Guzik,  R. Baer,  A. T. Bell,  N. A. Besley,  
 Jeng-Da Chai,  A. Dreuw,  B. D. Dunietz,  T. R. Furlani,  Chao-Ping Hsu,  
 Yousung Jung,  Jing Kong,  D. S. Lambrecht,  WanZhen Liang,  C. Ochsenfeld,  
 V. A. Rassolov,  L. V. Slipchenko,  J. E. Subotnik,  T. Van Voorhis,  
 J. M. Herbert,  A. I. Krylov,  P. M. W. Gill,  M. Head-Gordon

 Contributors to earlier versions of Q-Chem not listed above: 
 R. D. Adamson,  B. Austin,  J. Baker,  G. J. O. Beran,  K. Brandhorst,  
 S. T. Brown,  E. F. C. Byrd,  A. K. Chakraborty,  C.-L. Cheng,  
 Siu Hung Chien,  D. M. Chipman,  D. L. Crittenden,  H. Dachsel,  
 R. A. DiStasio Jr.,  R. J. Doerksen,  A. D. Dutoi,  L. Fusti-Molnar,  
 W. A. Goddard III,  A. Golubeva-Zadorozhnaya,  S. R. Gwaltney,  G. Hawkins,  
 A. Heyden,  S. Hirata,  G. Kedziora,  F. J. Keil,  C. Kelley,  Jihan Kim,  
 R. A. King,  R. Z. Khaliullin,  P. P. Korambath,  W. Kurlancheek,  
 A. M. Lee,  M. S. Lee,  S. V. Levchenko,  Ching Yeh Lin,  D. Liotard,  
 R. C. Lochan,  I. Lotan,  P. E. Maslen,  N. Nair,  D. P. O'Neill,  
 D. Neuhauser,  E. Neuscamman,  C. M. Oana,  R. Olson,  B. Peters,  
 R. Peverati,  P. A. Pieniazek,  Y. M. Rhee,  J. Ritchie,  M. A. Rohrdanz,  
 E. Rosta,  N. J. Russ,  H. F. Schaefer III,  N. E. Schultz,  N. Shenvi,  
 A. C. Simmonett,  A. Sodt,  D. Stuck,  K. S. Thanthiriwatte,  V. Vanovschi,  
 Tao Wang,  A. Warshel,  C. F. Williams,  Q. Wu,  X. Xu,  W. Zhang

 Please cite Q-Chem as follows:
 Y. Shao et al., Mol. Phys. 113, 184-215 (2015)
 DOI: 10.1080/00268976.2014.952696

 Q-Chem 5.0.1 for Intel X86 EM64T Linux

 Parts of Q-Chem use Armadillo 5.200.1 (Boston Tea Smuggler).
 http://arma.sourceforge.net/

 Q-Chem begins on Thu Nov  1 09:33:05 2018  

Host: ctcp028
0

     Scratch files written to /scratch/mewes/139236/qchem44524//
 Parallel job on  1  processors
The previous job contains 0 fragments, simply inherited here
Symmetry turned off for PCM/SM12/SMD calculation

Checking the input file for inconsistencies... 	...done.

--------------------------------------------------------------
User input:
--------------------------------------------------------------
$rem
threads 8
jobtype opt
method PBEh-3c
basis def2-mSVP
mem_static      1024
mem_total       8000
sym_ignore      true
unrestricted true
scf_algorithm	diis
scf_max_cycles	2500
solvent_method  pcm
geom_opt_tol_energy 25
geom_opt_tol_gradient 75
$end

$pcm
theory  iefpcm
$end

$solvent
dielectric      8.93
$end

$molecule
read utLEincoords.mol
$end
--------------------------------------------------------------
 Adding empirical dispersion correction 
 ----------------------------------------------------------------
 Doing -D3(BJ) with
 s6 =   1.00000
 s8 =   0.00000
 a1 =   0.48600
 a2 =   4.50000
 -D3 energy including 3body term =     -0.1345407984 hartrees
 ----------------------------------------------------------------
 Adding gCP correction 
 ----------------------------------------------------------------
 gCP energy =      0.1914087897 hartrees
 ----------------------------------------------------------------
             Standard Nuclear Orientation (Angstroms)
    I     Atom           X                Y                Z
 ----------------------------------------------------------------
    1      C       0.0000000000     0.0000000000     0.0000000000
    2      C       0.0000000000     0.0000000000     1.4086440000
    3      H       0.9465140947     0.0000000000     1.9370948439
    4      C      -1.1827195111     0.0101483171     2.1034642064
    5      C      -2.4395600856     0.0444011549     1.3804525546
    6      C      -2.4597568071     0.0639578311     0.0067382011
    7      H      -3.4040186173     0.1092412241    -0.5246512123
    8      C      -1.2640829020     0.0321412064    -0.7163724067
    9      C      -3.5155733716     0.0664365744     2.3422116813
   10      C      -4.8896133081     0.1004965996     2.2599248921
   11      H      -5.4038216475     0.1178372906     1.3072263662
   12      C      -5.6319273761     0.1113929080     3.4572880044
   13      H      -6.7122887927     0.1382724321     3.3977963329
   14      C      -5.0321082001     0.0881823038     4.6978747930
   15      H      -5.6451032478     0.0972813180     5.5906973325
   16      C      -2.9064727108     0.0436418892     3.6158870825
   17      C      -3.6203513904     0.0529060718     4.8106529393
   18      C      -1.4977847436     0.0089810033     3.5240780820
   19      C      -0.7731873740    -0.0196604274     4.6907926912
   20      H       0.3087351888    -0.0497328398     4.6896709092
   21      C      -1.4716069394    -0.0103339913     5.9178729374
   22      H      -0.8995204986    -0.0324612809     6.8360545784
   23      C      -2.8460335457     0.0245698436     5.9936971674
   24      H      -3.3334560865     0.0294505104     6.9607691039
   25      B      -1.3016761945     0.0674835979    -2.2515725527
   26      B       1.3297322971     0.0146675085    -0.7702529784
   27      C       1.3010041041    -0.0733051781    -2.3042389294
   28      C       2.5024650855    -0.1611113632    -3.0331377263
   29      H       3.4448852537    -0.1678807337    -2.4967892281
   30      C       2.4807113597    -0.2361316642    -4.4046241997
   31      C       3.5236111417    -0.3445812620    -5.4096597426
   32      C       4.8954489314    -0.4200239364    -5.3948020992
   33      H       5.4576283248    -0.4040921323    -4.4701071172
   34      C       5.5747930246    -0.5225129347    -6.6274024837
   35      H       6.6550379328    -0.5829560103    -6.6158735223
   36      C       4.9223285439    -0.5495880366    -7.8403071280
   37      H       5.4927512544    -0.6294795152    -8.7572039517
   38      C       2.8672126016    -0.3744137774    -6.6605365589
   39      C       3.5106335333    -0.4742162757    -7.8889693044
   40      C       1.4639532951    -0.2917376459    -6.5174736979
   41      C       0.6730537454    -0.3064205132    -7.6447305626
   42      H      -0.4061903788    -0.2436002407    -7.5847959976
   43      C       1.3042424534    -0.4054840225    -8.8990552857
   44      H       0.6898331615    -0.4172500083    -9.7899557317
   45      C       2.6743489500    -0.4879741310    -9.0327780043
   46      H       3.1119711186    -0.5634152313   -10.0204303008
   47      C       1.2065994792    -0.2066311726    -5.1037970207
   48      C       0.0237743410    -0.1077400311    -4.4082770703
   49      H      -0.9216441344    -0.0721343498    -4.9384000410
   50      C       0.0281586691    -0.0478443317    -3.0132852095
   51      C       2.6846859152     0.1935143113     0.0056519778
   52      C       3.3156778425    -0.8709009115     0.6651871070
   53      C       4.5041980291    -0.6632080170     1.3537052754
   54      H       4.9954287008    -1.4965102331     1.8437314071
   55      C       5.0704763003     0.6042657188     1.4259551118
   56      C       4.4371718923     1.6635285942     0.7883442442
   57      H       4.8659193843     2.6573638200     0.8497646421
   58      C       3.2648934448     1.4687287242     0.0723480041
   59      N       6.2699241518     0.8180220561     2.1319803417
   60      C       6.4299204752     0.2819064379     3.4175302228
   61      C       7.6684803053    -0.2080621913     3.8299937434
   62      H       8.5105067534    -0.1753445636     3.1507578410
   63      C       7.8204407114    -0.7384347707     5.0997273344
   64      H       8.7882177685    -1.1160673748     5.4033904251
   65      C       6.7434873616    -0.8080264713     5.9716768925
   66      H       6.8647037056    -1.2324260970     6.9591614893
   67      C       5.5093652870    -0.3268037890     5.5603373277
   68      H       4.6609211407    -0.3664890601     6.2313782513
   69      C       5.3515296989     0.2236231753     4.2999598792
   70      H       4.3876885467     0.6084472645     3.9923584225
   71      C       7.2362725381     1.6813745840     1.5921032240
   72      C       7.8604973332     2.6423409636     2.3854599753
   73      H       7.6037905428     2.7236905093     3.4339499660
   74      C       8.8005082373     3.4982742118     1.8354139165
   75      H       9.2737717661     4.2401232203     2.4656073163
   76      C       9.1186813694     3.4262664379     0.4876622972
   77      H       9.8453981128     4.1033469366     0.0593562048
   78      C       8.4909312904     2.4766084082    -0.3056899378
   79      H       8.7309676863     2.4060267533    -1.3587884595
   80      C       7.5651295520     1.6039429078     0.2389860867
   81      H       7.0836252282     0.8630946787    -0.3863742837
   82      C       2.7536794762    -2.2671293813     0.5816601933
   83      H       3.0346675831    -2.8286679529     1.4761922974
   84      H       1.6609068616    -2.2345508806     0.5780786200
   85      C       2.6023750090     2.6684536578    -0.5598255877
   86      H       2.1096225832     2.3849370609    -1.4931222774
   87      H       3.3667355152     3.3987081328    -0.8374035725
   88      C       3.2330107824    -3.0191246855    -0.6575196207
   89      H       2.9161760457    -2.5184207446    -1.5725922727
   90      H       4.3210127781    -3.0897514379    -0.6767781939
   91      H       2.8297243209    -4.0320701458    -0.6808926863
   92      C       1.5838405342     3.3371618084     0.3618400515
   93      H       0.7725381704     2.6569359583     0.6205832036
   94      H       2.0499516775     3.6641944580     1.2919617799
   95      H       1.1407966814     4.2119558403    -0.1162445663
   96      C      -2.6671865672     0.2724229810    -3.0154814451
   97      C      -3.5553570840    -0.7836295740    -3.2642501898
   98      C      -4.7646663439    -0.5544569184    -3.9083277950
   99      H      -5.4459320467    -1.3814075562    -4.0742499663
  100      C      -5.1090033588     0.7172004240    -4.3515203307
  101      C      -4.2252875692     1.7645097653    -4.1225621720
  102      H      -4.4754183132     2.7614514714    -4.4683658081
  103      C      -3.0304105195     1.5571700467    -3.4479378042
  104      N      -6.3257323260     0.9377402734    -5.0216625963
  105      C      -7.0452789871     2.1278847123    -4.8248141623
  106      C      -7.6221447324     2.7917534575    -5.9070025295
  107      H      -7.5076870713     2.3909215051    -6.9058516469
  108      C      -8.3403886751     3.9594486670    -5.7105399275
  109      H      -8.7808538794     4.4597949249    -6.5633250384
  110      C      -8.4810335625     4.4974756851    -4.4401073185
  111      H      -9.0355431573     5.4142117315    -4.2911330003
  112      C      -7.9001771744     3.8441854137    -3.3627292004
  113      H      -8.0059236670     4.2473034908    -2.3637618699
  114      C      -7.1973605874     2.6652895798    -3.5466594390
  115      H      -6.7589084826     2.1577084861    -2.6972613236
  116      C      -6.7900289279     0.0019622066    -5.9618042434
  117      C      -8.1372958898    -0.3534645488    -5.9865902387
  118      H      -8.8179814756     0.0835049414    -5.2671668458
  119      C      -8.6057400478    -1.2526251701    -6.9294694778
  120      H      -9.6557696580    -1.5149750387    -6.9374535710
  121      C      -7.7383072849    -1.8270538826    -7.8470715593
  122      H      -8.1056453474    -2.5340770419    -8.5787233224
  123      C      -6.3944777797    -1.4840269191    -7.8161495759
  124      H      -5.7082451271    -1.9187604829    -8.5313535439
  125      C      -5.9211084068    -0.5700100600    -6.8892123019
  126      H      -4.8747341913    -0.2933394873    -6.8828682295
  127      C      -3.2117061368    -2.2020553596    -2.8918080063
  128      H      -2.5159116853    -2.2217154972    -2.0496189791
  129      H      -4.1117601676    -2.7212580259    -2.5513048985
  130      C      -2.1756413128     2.7617230824    -3.1468827586
  131      H      -1.1267661383     2.4756403638    -3.0393011780
  132      H      -2.2106414824     3.4569287898    -3.9901250436
  133      C      -2.6072928547    -2.9642527578    -4.0687181617
  134      H      -1.6834895490    -2.4943617025    -4.4071293506
  135      H      -2.3749427014    -3.9938718824    -3.7948274124
  136      H      -3.2967469709    -2.9890150299    -4.9137512046
  137      C      -2.6376970365     3.4805349007    -1.8812364001
  138      H      -2.5952683321     2.8176609219    -1.0164868054
  139      H      -2.0092870167     4.3463524818    -1.6691712170
  140      H      -3.6661709763     3.8299919579    -1.9819245959
 ----------------------------------------------------------------
 Nuclear Repulsion Energy = 12123.0290427773 hartrees
 There are      271 alpha and      269 beta electrons
 Requested basis set is def2-mSVP
 There are 680 shells and 1320 basis functions

 Total QAlloc Memory Limit   8000 MB
 Mega-Array Size      1001 MB
 MEM_STATIC part      1024 MB
 Discretize the solute cavity surface with Lebedev spheres
	Using 302 Lebedev grid points for each H atom
	Using 302 Lebedev grid points for other atoms
	Atomic van der Waals radii will be scaled by 1.20
 Remove points where switching function is < 1.0e-08
 Keep 14680 surface tesserae and discard 27600 interior tesserae
 Molecular Surface Area = 1080.580 Angst**2
 A cutoff of  1.0D-11 yielded  62623 shell pairs
 There are    243259 function pairs (    267511 Cartesian)
 
 -------------------------------------------------------
 OpenMP Integral Computing Module                       
 Release: version 1.0, May 2013, Q-Chem Inc. Pittsburgh 
 -------------------------------------------------------
 Integral Job Info:
 Integral job number is                      11
 Integral operator is                         1
 short-range coefficients                     0
 long-range coefficients              100000000
 Omega coefficients                           0
 if combine SR and LR in K                    0
 Integral screening is                        0
 Integral computing path is                   2
 max size of driver memory is            800000
 size of driver memory is                593474
 size of scratch memory is              1809772
 max col of scratch BK array               1296
 max len of scratch array in speh3          155
 max len of scratch index in speh4           18
 max int batch size is                      520
 min int batch size is                       52
 fixed nKL is                                52
 max L of basis functions is                  2
 order of int derivative is                   0
 number of shells is                        680
 number of basis is                        1400
 number of cartesian basis is              1400
 number of contracted shell pairs         62623
 number of primitive shell pairs         129344
 maxK2 (contraction) of shell pair           25
 max number of K2 of shell pair               1
 max number of CS2 of shell pair          15484
 max number of PS2 of shell pair          22635
 mem total for path MDJ                  628152
 -------------------------------------------------------
 Smallest overlap matrix eigenvalue = 2.01E-04

 Scale SEOQF with 1.000000e-02/1.000000e-02/1.000000e-02

 Standard Electronic Orientation quadrupole field applied
 Nucleus-field energy     =    -0.0000000539 hartrees
 Guess from superposition of atomic densities
 Warning:  Energy on first SCF cycle will be non-variational
 An unrestricted hybrid HF-DFT SCF calculation will be
 performed using Pulay DIIS extrapolation
 Polarizable Continuum solvation model will be applied
 Exchange:     0.4200 Hartree-Fock + 0.5800 PBEh-3c
 Correlation:  1.0000 PBEh-3c
 Using SG-1 standard quadrature grid
 Dispersion:   Grimme D3
 SCF converges when DIIS error is below 1.0E-08
 using 8 threads for integral computing
 -------------------------------------------------------
 OpenMP Integral computing Module                
 Release: version 1.0, May 2013, Q-Chem Inc. Pittsburgh 
 -------------------------------------------------------
 ---------------------------------------
  Cycle       Energy         DIIS Error
 ---------------------------------------
    1   -3111.8830659521      2.31E-02
 Using non-symmetric K matrix
    2   -3084.0369313452      1.65E-03
    3   -3083.9678164889      1.78E-03
    4   -3084.6023963671      7.20E-04
    5   -3084.7367731541      1.20E-04
    6   -3084.7398596578      8.22E-05
    7   -3084.7417192787      2.10E-05
    8   -3084.7419953643      6.66E-06
    9   -3084.7421525931      2.93E-06
   10   -3084.7422365795      1.91E-06
   11   -3084.7422915258      9.47E-07
   12   -3084.7423243111      6.15E-07
   13   -3084.7423391216      3.42E-07
   14   -3084.7423514419      2.70E-07
   15   -3084.7423558345      1.33E-07
   16   -3084.7423587454      9.23E-08
   17   -3084.7423595522      5.58E-08
   18   -3084.7423599024      3.65E-08
   19   -3084.7423600209      2.04E-08
   20   -3084.7423600903      1.17E-08
   21   -3084.7423601045      8.40E-09 Convergence criterion met
 ---------------------------------------

************** Final PCM Free Energy Summary **************
 G_electrostatic  =      -0.06598564 hartree =     -41.40661714 kcal/mol
 G_cavitation     =       0.00000000 hartree =       0.00000000 kcal/mol
 G_dispersion     =       0.00000000 hartree =       0.00000000 kcal/mol
 G_repulsion      =       0.00000000 hartree =       0.00000000 kcal/mol
 --------------------------------------------------
 Non-electrostatic Free Energy =       0.00000000 hartree =       0.00000000 kcal/mol
 Total                         =      -0.06598564 hartree =     -41.40661714 kcal/mol
 --------------------------------------------------
 SCF Energy (H0 + V/2)                       =   -3084.74236010 
 Solute Internal Energy (H0)                 =   -3084.67637446 
 Total Free Energy (H0 + V/2 + non-elec)     =   -3084.74236010 hartree
                                             = -1935705.04656046 kcal/mol
***********************************************************

 <S^2> = 2.0810
 SCF time:  CPU 14891.35 s  wall 4831.89 s
 SCF   energy in the final basis set = -3084.74236010
 Total energy in the final basis set = -3084.74236010
 
 --------------------------------------------------------------
 
                    Orbital Energies (a.u.)
 --------------------------------------------------------------
 
 Alpha MOs
 -- Occupied --
-14.774 -14.667 -10.531 -10.531 -10.525 -10.490 -10.489 -10.484
-10.484 -10.484 -10.484 -10.478 -10.478 -10.478 -10.474 -10.473
-10.473 -10.473 -10.472 -10.471 -10.470 -10.469 -10.455 -10.455
-10.453 -10.452 -10.452 -10.452 -10.450 -10.450 -10.450 -10.450
-10.450 -10.449 -10.449 -10.449 -10.449 -10.449 -10.448 -10.448
-10.448 -10.447 -10.447 -10.446 -10.446 -10.444 -10.444 -10.444
-10.444 -10.443 -10.443 -10.442 -10.441 -10.440 -10.440 -10.440
-10.440 -10.438 -10.438 -10.438 -10.438 -10.438 -10.437 -10.433
-10.433 -10.427 -10.427 -10.424 -10.424 -10.422 -10.420 -10.414
-10.414 -10.414 -10.413 -10.409 -10.409 -10.409  -6.906  -6.901
 -1.154  -1.077  -1.003  -1.002  -0.998  -0.994  -0.974  -0.960
 -0.956  -0.944  -0.942  -0.936  -0.923  -0.923  -0.903  -0.899
 -0.890  -0.888  -0.882  -0.881  -0.871  -0.870  -0.861  -0.850
 -0.846  -0.843  -0.842  -0.838  -0.837  -0.837  -0.836  -0.822
 -0.819  -0.817  -0.803  -0.799  -0.799  -0.792  -0.785  -0.783
 -0.749  -0.746  -0.725  -0.721  -0.719  -0.717  -0.714  -0.713
 -0.712  -0.705  -0.704  -0.701  -0.694  -0.693  -0.680  -0.676
 -0.673  -0.669  -0.665  -0.660  -0.653  -0.651  -0.638  -0.635
 -0.629  -0.628  -0.623  -0.618  -0.602  -0.595  -0.587  -0.585
 -0.584  -0.581  -0.581  -0.581  -0.577  -0.570  -0.562  -0.562
 -0.558  -0.555  -0.552  -0.549  -0.541  -0.539  -0.529  -0.528
 -0.527  -0.526  -0.521  -0.514  -0.514  -0.513  -0.511  -0.510
 -0.509  -0.505  -0.503  -0.497  -0.496  -0.495  -0.491  -0.488
 -0.488  -0.486  -0.486  -0.481  -0.480  -0.479  -0.479  -0.476
 -0.475  -0.475  -0.475  -0.473  -0.472  -0.468  -0.466  -0.465
 -0.464  -0.460  -0.454  -0.450  -0.450  -0.444  -0.444  -0.443
 -0.441  -0.439  -0.437  -0.433  -0.431  -0.430  -0.425  -0.424
 -0.424  -0.423  -0.420  -0.419  -0.418  -0.417  -0.414  -0.410
 -0.410  -0.403  -0.402  -0.399  -0.396  -0.394  -0.393  -0.391
 -0.389  -0.389  -0.388  -0.387  -0.384  -0.382  -0.378  -0.378
 -0.378  -0.373  -0.360  -0.358  -0.356  -0.352  -0.349  -0.340
 -0.335  -0.334  -0.332  -0.324  -0.323  -0.313  -0.312  -0.307
 -0.304  -0.301  -0.299  -0.294  -0.291  -0.290  -0.280  -0.275
 -0.269  -0.267  -0.256  -0.246  -0.238  -0.217  -0.152
 -- Virtual --
 -0.062  -0.032  -0.028  -0.025  -0.023  -0.022  -0.003   0.003
  0.005   0.007   0.007   0.014   0.015   0.020   0.028   0.028
  0.037   0.049   0.062   0.079   0.095   0.097   0.099   0.121
  0.124   0.129   0.131   0.143   0.148   0.151   0.153   0.156
  0.157   0.158   0.163   0.166   0.170   0.171   0.172   0.173
  0.177   0.179   0.180   0.183   0.185   0.185   0.188   0.190
  0.190   0.193   0.195   0.195   0.196   0.201   0.204   0.205
  0.207   0.208   0.209   0.211   0.211   0.212   0.212   0.213
  0.213   0.217   0.217   0.218   0.219   0.220   0.222   0.222
  0.223   0.226   0.227   0.228   0.230   0.231   0.233   0.235
  0.238   0.239   0.240   0.241   0.242   0.244   0.245   0.246
  0.247   0.249   0.252   0.256   0.257   0.258   0.260   0.261
  0.262   0.267   0.268   0.269   0.272   0.274   0.277   0.281
  0.281   0.282   0.287   0.288   0.290   0.293   0.294   0.296
  0.298   0.300   0.302   0.302   0.307   0.310   0.311   0.313
  0.314   0.315   0.319   0.320   0.321   0.323   0.323   0.328
  0.331   0.333   0.334   0.335   0.338   0.340   0.343   0.346
  0.352   0.358   0.362   0.365   0.365   0.367   0.372   0.377
  0.379   0.382   0.386   0.392   0.398   0.399   0.407   0.411
  0.415   0.420   0.421   0.423   0.429   0.433   0.436   0.438
  0.441   0.445   0.447   0.452   0.454   0.462   0.464   0.467
  0.470   0.471   0.474   0.478   0.480   0.485   0.488   0.494
  0.496   0.497   0.497   0.501   0.504   0.508   0.511   0.513
  0.514   0.516   0.521   0.523   0.524   0.525   0.528   0.532
  0.533   0.534   0.534   0.535   0.537   0.539   0.541   0.543
  0.546   0.548   0.549   0.550   0.552   0.553   0.557   0.558
  0.561   0.564   0.566   0.568   0.570   0.570   0.573   0.573
  0.574   0.575   0.576   0.578   0.581   0.584   0.586   0.589
  0.591   0.593   0.593   0.594   0.595   0.596   0.596   0.596
  0.597   0.598   0.598   0.599   0.602   0.602   0.603   0.604
  0.605   0.607   0.610   0.610   0.612   0.614   0.616   0.617
  0.619   0.620   0.621   0.622   0.623   0.625   0.626   0.627
  0.628   0.630   0.630   0.631   0.632   0.633   0.634   0.636
  0.637   0.638   0.641   0.647   0.649   0.650   0.653   0.654
  0.655   0.656   0.657   0.659   0.660   0.663   0.664   0.667
  0.668   0.669   0.670   0.672   0.676   0.676   0.679   0.680
  0.682   0.683   0.683   0.686   0.688   0.691   0.697   0.699
  0.699   0.700   0.703   0.708   0.709   0.711   0.713   0.714
  0.717   0.722   0.724   0.724   0.731   0.733   0.737   0.740
  0.741   0.746   0.749   0.751   0.752   0.760   0.762   0.765
  0.768   0.770   0.773   0.775   0.776   0.778   0.779   0.782
  0.786   0.789   0.792   0.796   0.798   0.803   0.804   0.807
  0.809   0.811   0.815   0.820   0.823   0.827   0.831   0.836
  0.838   0.841   0.845   0.848   0.858   0.865   0.866   0.869
  0.872   0.877   0.887   0.890   0.894   0.903   0.906   0.908
  0.912   0.912   0.916   0.920   0.922   0.926   0.927   0.930
  0.931   0.932   0.934   0.937   0.938   0.941   0.944   0.946
  0.949   0.950   0.955   0.958   0.959   0.960   0.962   0.964
  0.965   0.967   0.967   0.969   0.972   0.976   0.977   0.978
  0.982   0.983   0.992   0.992   0.994   0.994   0.997   0.998
  1.000   1.001   1.003   1.004   1.009   1.011   1.012   1.014
  1.015   1.017   1.018   1.020   1.027   1.028   1.029   1.031
  1.035   1.036   1.038   1.041   1.044   1.046   1.048   1.049
  1.051   1.052   1.053   1.054   1.057   1.059   1.061   1.061
  1.067   1.068   1.071   1.074   1.076   1.079   1.080   1.082
  1.083   1.084   1.086   1.091   1.093   1.094   1.096   1.097
  1.100   1.105   1.107   1.109   1.115   1.118   1.122   1.127
  1.128   1.132   1.135   1.137   1.138   1.140   1.148   1.152
  1.154   1.158   1.158   1.159   1.160   1.163   1.167   1.168
  1.170   1.172   1.175   1.178   1.181   1.183   1.185   1.188
  1.194   1.196   1.201   1.207   1.211   1.213   1.219   1.220
  1.227   1.229   1.230   1.231   1.239   1.240   1.251   1.254
  1.259   1.263   1.267   1.270   1.272   1.274   1.274   1.280
  1.284   1.287   1.288   1.293   1.295   1.297   1.298   1.302
  1.303   1.308   1.308   1.311   1.317   1.318   1.320   1.324
  1.325   1.326   1.333   1.334   1.342   1.346   1.350   1.350
  1.354   1.357   1.364   1.367   1.371   1.378   1.383   1.384
  1.385   1.387   1.390   1.396   1.399   1.401   1.410   1.414
  1.416   1.417   1.420   1.424   1.425   1.434   1.445   1.449
  1.450   1.450   1.451   1.453   1.454   1.460   1.472   1.474
  1.475   1.481   1.486   1.489   1.493   1.496   1.508   1.509
  1.510   1.513   1.516   1.521   1.521   1.522   1.525   1.527
  1.528   1.532   1.533   1.538   1.539   1.540   1.541   1.541
  1.542   1.544   1.548   1.550   1.552   1.558   1.563   1.566
  1.567   1.569   1.569   1.571   1.575   1.577   1.580   1.580
  1.586   1.588   1.592   1.594   1.600   1.604   1.607   1.608
  1.619   1.625   1.628   1.628   1.641   1.649   1.652   1.661
  1.669   1.681   1.692   1.695   1.697   1.705   1.708   1.722
  1.727   1.736   1.744   1.751   1.752   1.760   1.767   1.769
  1.770   1.775   1.782   1.783   1.786   1.792   1.795   1.806
  1.809   1.814   1.820   1.820   1.822   1.823   1.824   1.825
  1.831   1.832   1.834   1.834   1.836   1.840   1.850   1.852
  1.855   1.856   1.860   1.863   1.873   1.882   1.887   1.895
  1.897   1.900   1.906   1.912   1.913   1.918   1.920   1.929
  1.930   1.932   1.933   1.934   1.938   1.944   1.950   1.951
  1.954   1.958   1.963   1.980   1.986   1.989   1.991   1.992
  1.993   1.995   1.996   1.998   2.000   2.004   2.015   2.022
  2.026   2.027   2.037   2.038   2.041   2.043   2.043   2.048
  2.052   2.064   2.066   2.071   2.072   2.074   2.078   2.079
  2.082   2.083   2.095   2.096   2.099   2.112   2.113   2.114
  2.120   2.121   2.122   2.123   2.135   2.136   2.141   2.146
  2.150   2.152   2.155   2.157   2.158   2.163   2.164   2.166
  2.166   2.171   2.173   2.177   2.182   2.183   2.187   2.192
  2.194   2.199   2.202   2.206   2.210   2.210   2.210   2.213
  2.214   2.219   2.224   2.224   2.239   2.239   2.242   2.243
  2.246   2.252   2.256   2.256   2.259   2.266   2.270   2.273
  2.275   2.279   2.282   2.283   2.287   2.289   2.291   2.292
  2.300   2.305   2.316   2.318   2.327   2.328   2.330   2.332
  2.333   2.334   2.335   2.339   2.344   2.346   2.352   2.352
  2.355   2.356   2.359   2.362   2.363   2.366   2.368   2.370
  2.371   2.373   2.375   2.386   2.390   2.392   2.392   2.394
  2.398   2.399   2.402   2.412   2.414   2.416   2.418   2.423
  2.424   2.432   2.437   2.440   2.442   2.443   2.449   2.452
  2.456   2.460   2.467   2.473   2.478   2.482   2.484   2.491
  2.500   2.504   2.507   2.511   2.515   2.519   2.521   2.529
  2.532   2.553   2.557   2.567   2.570   2.578   2.587   2.589
  2.607   2.614   2.617   2.619   2.620   2.629   2.641   2.645
  2.647   2.653   2.655   2.655   2.657   2.662   2.674   2.683
  2.688   2.691   2.695   2.698   2.700   2.702   2.704   2.705
  2.725   2.728   2.729   2.730   2.736   2.739   2.739   2.742
  2.745   2.749   2.750   2.756   2.757   2.760   2.767   2.768
  2.771   2.780   2.781   2.787   2.791   2.792   2.793   2.793
  2.795   2.798   2.800   2.801   2.801   2.815   2.816   2.818
  2.820   2.820   2.824   2.828   2.832   2.837   2.844   2.858
  2.860   2.865   2.876   2.878   2.880   2.886   2.891   2.892
  2.898   2.906   2.911   2.920   2.926   2.933   2.936   2.946
  2.961   2.967   2.971   2.979   2.995   2.998   3.009   3.011
  3.022   3.028   3.034   3.042   3.062   3.071   3.092   3.095
  3.110   3.116   3.131   3.158   3.259   3.276   3.278   3.281
  3.295   3.317   3.350   3.423   3.441   3.450   3.464   3.477
  3.487   3.498   3.501   3.502   3.514   3.525   3.563   3.674
  3.689   9.638   9.788  13.155  13.191  13.212  13.245  13.248
 13.281  13.421  13.502  13.518  13.520  13.535  13.569  13.642
 13.649  13.670  13.673  13.674  13.677  13.683  13.692  13.713
 13.717  13.742  13.769  13.774  13.807  13.807  13.812  13.861
 13.876  13.896  13.901  13.940  13.982  14.027  14.034  14.036
 14.040  14.045  14.053  14.056  14.065  14.117  14.122  14.148
 14.149  14.155  14.157  14.168  14.175  14.176  14.183  14.186
 14.207  14.219  14.233  14.250  14.273  14.294  14.297  14.340
 14.341  14.342  14.344  14.519  14.526  14.549  14.552  14.564
 14.573  14.580  14.585  14.589  14.591  14.591  14.614  19.588
 19.691
 
 Beta MOs
 -- Occupied --
-14.763 -14.667 -10.533 -10.532 -10.526 -10.490 -10.489 -10.482
-10.482 -10.482 -10.482 -10.478 -10.476 -10.476 -10.475 -10.475
-10.474 -10.474 -10.471 -10.470 -10.470 -10.469 -10.456 -10.456
-10.453 -10.453 -10.451 -10.451 -10.450 -10.450 -10.450 -10.449
-10.449 -10.449 -10.449 -10.449 -10.448 -10.448 -10.448 -10.448
-10.447 -10.447 -10.447 -10.446 -10.446 -10.444 -10.444 -10.444
-10.443 -10.443 -10.443 -10.442 -10.440 -10.440 -10.440 -10.439
-10.439 -10.438 -10.438 -10.438 -10.438 -10.437 -10.437 -10.434
-10.434 -10.427 -10.427 -10.424 -10.424 -10.422 -10.420 -10.414
-10.414 -10.414 -10.413 -10.409 -10.409 -10.408  -6.903  -6.899
 -1.135  -1.077  -1.002  -1.002  -0.995  -0.991  -0.969  -0.960
 -0.955  -0.942  -0.941  -0.936  -0.922  -0.922  -0.902  -0.895
 -0.888  -0.887  -0.881  -0.880  -0.869  -0.868  -0.861  -0.850
 -0.842  -0.841  -0.840  -0.838  -0.836  -0.836  -0.836  -0.817
 -0.817  -0.816  -0.801  -0.798  -0.796  -0.792  -0.784  -0.781
 -0.745  -0.742  -0.722  -0.719  -0.717  -0.716  -0.712  -0.712
 -0.711  -0.704  -0.703  -0.700  -0.694  -0.692  -0.680  -0.675
 -0.672  -0.667  -0.664  -0.657  -0.651  -0.649  -0.636  -0.635
 -0.629  -0.628  -0.623  -0.615  -0.602  -0.592  -0.585  -0.583
 -0.580  -0.580  -0.579  -0.575  -0.571  -0.569  -0.561  -0.560
 -0.558  -0.552  -0.550  -0.548  -0.539  -0.538  -0.528  -0.527
 -0.525  -0.525  -0.521  -0.514  -0.514  -0.511  -0.510  -0.509
 -0.508  -0.503  -0.501  -0.497  -0.495  -0.494  -0.491  -0.487
 -0.486  -0.485  -0.481  -0.480  -0.479  -0.479  -0.478  -0.475
 -0.475  -0.473  -0.473  -0.471  -0.467  -0.466  -0.465  -0.462
 -0.460  -0.456  -0.452  -0.450  -0.449  -0.444  -0.442  -0.442
 -0.438  -0.437  -0.432  -0.431  -0.430  -0.430  -0.425  -0.424
 -0.423  -0.420  -0.419  -0.418  -0.416  -0.412  -0.411  -0.410
 -0.409  -0.402  -0.402  -0.396  -0.394  -0.393  -0.392  -0.390
 -0.387  -0.386  -0.386  -0.383  -0.381  -0.380  -0.378  -0.377
 -0.374  -0.370  -0.360  -0.354  -0.351  -0.349  -0.347  -0.334
 -0.329  -0.327  -0.325  -0.321  -0.320  -0.307  -0.304  -0.303
 -0.299  -0.296  -0.295  -0.293  -0.287  -0.287  -0.279  -0.267
 -0.258  -0.249  -0.243  -0.230  -0.217
 -- Virtual --
 -0.162  -0.071  -0.048  -0.021  -0.020  -0.018  -0.014  -0.011
  0.004   0.005   0.007   0.007   0.013   0.015   0.016   0.028
  0.029   0.037   0.038   0.060   0.062   0.087   0.096   0.104
  0.109   0.124   0.126   0.133   0.135   0.146   0.148   0.153
  0.154   0.157   0.158   0.159   0.165   0.167   0.171   0.172
  0.173   0.176   0.178   0.180   0.184   0.185   0.187   0.189
  0.189   0.191   0.192   0.194   0.195   0.196   0.197   0.202
  0.205   0.206   0.208   0.209   0.210   0.212   0.212   0.213
  0.213   0.213   0.214   0.217   0.218   0.218   0.219   0.221
  0.223   0.224   0.225   0.227   0.227   0.229   0.230   0.232
  0.235   0.236   0.238   0.239   0.241   0.242   0.242   0.244
  0.245   0.246   0.249   0.250   0.255   0.257   0.258   0.259
  0.261   0.262   0.263   0.268   0.270   0.270   0.274   0.275
  0.279   0.281   0.282   0.284   0.288   0.289   0.291   0.294
  0.295   0.297   0.299   0.301   0.302   0.303   0.308   0.311
  0.312   0.314   0.315   0.316   0.319   0.322   0.322   0.324
  0.324   0.329   0.332   0.334   0.335   0.337   0.338   0.341
  0.344   0.349   0.354   0.360   0.363   0.366   0.366   0.368
  0.375   0.379   0.380   0.384   0.387   0.396   0.399   0.404
  0.409   0.413   0.417   0.421   0.422   0.423   0.430   0.436
  0.439   0.442   0.443   0.447   0.449   0.453   0.455   0.463
  0.465   0.468   0.470   0.473   0.475   0.480   0.485   0.487
  0.490   0.496   0.498   0.500   0.501   0.503   0.505   0.509
  0.512   0.515   0.516   0.519   0.522   0.525   0.526   0.526
  0.530   0.534   0.535   0.536   0.537   0.538   0.539   0.540
  0.544   0.544   0.547   0.550   0.551   0.552   0.553   0.554
  0.559   0.560   0.562   0.566   0.568   0.570   0.571   0.572
  0.573   0.574   0.575   0.576   0.576   0.579   0.582   0.584
  0.587   0.590   0.592   0.593   0.594   0.596   0.596   0.596
  0.597   0.598   0.599   0.600   0.600   0.601   0.603   0.603
  0.604   0.605   0.606   0.608   0.611   0.612   0.614   0.614
  0.616   0.617   0.620   0.621   0.622   0.624   0.625   0.626
  0.627   0.628   0.629   0.630   0.631   0.633   0.633   0.635
  0.635   0.637   0.639   0.639   0.644   0.649   0.650   0.652
  0.654   0.655   0.656   0.657   0.659   0.662   0.662   0.665
  0.666   0.668   0.670   0.670   0.671   0.674   0.678   0.678
  0.680   0.682   0.683   0.685   0.685   0.687   0.688   0.693
  0.698   0.700   0.700   0.701   0.704   0.708   0.710   0.712
  0.713   0.714   0.718   0.723   0.725   0.726   0.732   0.735
  0.739   0.742   0.742   0.747   0.750   0.751   0.753   0.761
  0.764   0.766   0.769   0.772   0.773   0.775   0.777   0.779
  0.780   0.783   0.787   0.790   0.793   0.797   0.800   0.806
  0.806   0.809   0.811   0.812   0.816   0.821   0.825   0.828
  0.832   0.838   0.838   0.842   0.846   0.849   0.860   0.866
  0.866   0.870   0.874   0.879   0.889   0.892   0.896   0.904
  0.907   0.910   0.913   0.914   0.917   0.922   0.923   0.928
  0.928   0.931   0.932   0.933   0.935   0.938   0.939   0.943
  0.944   0.946   0.950   0.950   0.955   0.958   0.959   0.961
  0.962   0.964   0.967   0.967   0.968   0.969   0.973   0.977
  0.977   0.979   0.983   0.984   0.992   0.992   0.994   0.996
  0.997   0.999   1.000   1.002   1.004   1.005   1.010   1.011
  1.013   1.014   1.015   1.018   1.019   1.021   1.028   1.029
  1.029   1.031   1.035   1.037   1.039   1.041   1.044   1.047
  1.048   1.049   1.051   1.052   1.054   1.055   1.058   1.060
  1.061   1.062   1.067   1.069   1.072   1.075   1.076   1.079
  1.080   1.082   1.083   1.084   1.087   1.091   1.094   1.095
  1.096   1.098   1.100   1.105   1.107   1.110   1.116   1.119
  1.122   1.128   1.128   1.133   1.136   1.137   1.139   1.141
  1.149   1.153   1.155   1.158   1.159   1.160   1.161   1.163
  1.168   1.169   1.172   1.173   1.176   1.179   1.182   1.184
  1.186   1.190   1.195   1.197   1.202   1.208   1.211   1.214
  1.220   1.224   1.228   1.230   1.231   1.233   1.241   1.241
  1.252   1.256   1.261   1.264   1.268   1.271   1.273   1.275
  1.276   1.281   1.286   1.289   1.290   1.294   1.295   1.298
  1.298   1.303   1.304   1.309   1.309   1.313   1.318   1.319
  1.321   1.324   1.326   1.327   1.334   1.336   1.344   1.347
  1.351   1.352   1.355   1.359   1.366   1.369   1.372   1.381
  1.385   1.385   1.388   1.389   1.393   1.398   1.402   1.404
  1.412   1.416   1.417   1.419   1.421   1.426   1.428   1.435
  1.447   1.450   1.451   1.451   1.452   1.454   1.456   1.461
  1.475   1.476   1.478   1.481   1.489   1.491   1.494   1.499
  1.509   1.510   1.513   1.514   1.521   1.522   1.522   1.526
  1.528   1.529   1.529   1.533   1.535   1.540   1.541   1.542
  1.542   1.542   1.543   1.544   1.548   1.551   1.553   1.559
  1.563   1.567   1.568   1.570   1.570   1.572   1.577   1.579
  1.580   1.582   1.587   1.590   1.593   1.596   1.600   1.604
  1.607   1.610   1.621   1.626   1.629   1.629   1.642   1.651
  1.654   1.664   1.671   1.683   1.696   1.697   1.702   1.708
  1.712   1.724   1.728   1.743   1.744   1.751   1.753   1.760
  1.768   1.770   1.772   1.776   1.783   1.787   1.789   1.792
  1.797   1.808   1.811   1.815   1.821   1.822   1.823   1.825
  1.826   1.827   1.833   1.834   1.835   1.838   1.839   1.844
  1.853   1.853   1.856   1.857   1.861   1.865   1.873   1.885
  1.888   1.897   1.899   1.901   1.910   1.913   1.917   1.920
  1.922   1.930   1.931   1.934   1.936   1.937   1.941   1.946
  1.952   1.953   1.958   1.965   1.968   1.982   1.988   1.990
  1.992   1.993   1.994   1.996   1.998   2.000   2.002   2.004
  2.015   2.023   2.027   2.028   2.038   2.039   2.042   2.044
  2.045   2.049   2.054   2.066   2.069   2.072   2.073   2.074
  2.079   2.079   2.083   2.084   2.095   2.096   2.100   2.113
  2.114   2.115   2.121   2.121   2.123   2.124   2.136   2.137
  2.142   2.147   2.150   2.153   2.155   2.159   2.161   2.164
  2.166   2.168   2.169   2.172   2.174   2.178   2.182   2.185
  2.189   2.193   2.194   2.200   2.203   2.207   2.210   2.210
  2.210   2.213   2.215   2.220   2.224   2.227   2.239   2.241
  2.243   2.244   2.249   2.256   2.257   2.257   2.259   2.266
  2.271   2.275   2.277   2.282   2.283   2.286   2.289   2.291
  2.293   2.294   2.302   2.306   2.316   2.319   2.329   2.331
  2.333   2.334   2.334   2.335   2.336   2.340   2.345   2.347
  2.353   2.355   2.357   2.358   2.361   2.363   2.365   2.366
  2.369   2.371   2.372   2.375   2.376   2.386   2.392   2.393
  2.393   2.396   2.399   2.402   2.403   2.413   2.415   2.417
  2.420   2.423   2.428   2.436   2.438   2.442   2.443   2.444
  2.450   2.454   2.458   2.463   2.469   2.475   2.479   2.484
  2.487   2.493   2.504   2.505   2.507   2.511   2.517   2.520
  2.522   2.529   2.533   2.557   2.559   2.569   2.573   2.582
  2.588   2.591   2.609   2.617   2.619   2.620   2.622   2.630
  2.645   2.646   2.649   2.655   2.655   2.657   2.657   2.662
  2.674   2.683   2.688   2.691   2.696   2.698   2.701   2.703
  2.706   2.707   2.726   2.729   2.730   2.733   2.737   2.739
  2.739   2.743   2.746   2.750   2.752   2.757   2.760   2.762
  2.767   2.768   2.771   2.781   2.782   2.789   2.791   2.792
  2.794   2.795   2.796   2.798   2.801   2.801   2.802   2.815
  2.816   2.818   2.820   2.820   2.826   2.828   2.832   2.837
  2.845   2.858   2.860   2.867   2.877   2.879   2.880   2.888
  2.893   2.894   2.900   2.906   2.912   2.921   2.928   2.933
  2.936   2.947   2.962   2.971   2.972   2.981   2.996   2.999
  3.009   3.013   3.023   3.029   3.034   3.042   3.064   3.075
  3.092   3.095   3.111   3.118   3.132   3.158   3.260   3.277
  3.279   3.281   3.298   3.317   3.350   3.423   3.441   3.451
  3.465   3.477   3.487   3.498   3.501   3.502   3.514   3.526
  3.563   3.674   3.689   9.642   9.792  13.155  13.191  13.213
 13.245  13.248  13.281  13.422  13.502  13.518  13.520  13.535
 13.570  13.642  13.649  13.671  13.673  13.674  13.679  13.683
 13.692  13.713  13.717  13.742  13.769  13.774  13.806  13.807
 13.812  13.861  13.876  13.896  13.901  13.941  13.982  14.028
 14.034  14.037  14.041  14.045  14.053  14.057  14.066  14.118
 14.122  14.148  14.150  14.155  14.157  14.168  14.175  14.176
 14.183  14.186  14.207  14.219  14.234  14.250  14.274  14.294
 14.297  14.340  14.341  14.343  14.344  14.519  14.526  14.550
 14.552  14.565  14.573  14.581  14.585  14.589  14.591  14.592
 14.614  19.602  19.691
 --------------------------------------------------------------
 
          Ground-State Mulliken Net Atomic Charges

     Atom                 Charge (a.u.)    Spin (a.u.)
  --------------------------------------------------------
      1 C                    -0.139492       0.024250
      2 C                    -0.406456      -0.021953
      3 H                     0.218328      -0.000117
      4 C                     0.065925       0.045741
      5 C                     0.041418       0.092240
      6 C                    -0.398280      -0.056755
      7 H                     0.229519       0.002211
      8 C                    -0.140978       0.057255
      9 C                     0.178853      -0.062062
     10 C                    -0.401104       0.093993
     11 H                     0.242216      -0.005476
     12 C                    -0.232068      -0.058588
     13 H                     0.248349       0.002806
     14 C                    -0.363040       0.087902
     15 H                     0.242751      -0.005157
     16 C                    -0.089246       0.026283
     17 C                     0.221721      -0.042170
     18 C                     0.181774      -0.049024
     19 C                    -0.410441       0.077579
     20 H                     0.234816      -0.004555
     21 C                    -0.230947      -0.051148
     22 H                     0.245551       0.002496
     23 C                    -0.364702       0.072646
     24 H                     0.243725      -0.004214
     25 B                     0.514041       0.273880
     26 B                     0.507607       0.316873
     27 C                    -0.141286       0.023098
     28 C                    -0.410166      -0.023049
     29 H                     0.220366      -0.000171
     30 C                     0.064255       0.047373
     31 C                     0.180864      -0.050711
     32 C                    -0.410634       0.080315
     33 H                     0.235947      -0.004710
     34 C                    -0.230872      -0.052933
     35 H                     0.245668       0.002582
     36 C                    -0.365990       0.075540
     37 H                     0.243547      -0.004385
     38 C                    -0.090214       0.027191
     39 C                     0.223542      -0.043577
     40 C                     0.176768      -0.063999
     41 C                    -0.399399       0.096954
     42 H                     0.241754      -0.005648
     43 C                    -0.232210      -0.060642
     44 H                     0.248015       0.002908
     45 C                    -0.364001       0.091277
     46 H                     0.242382      -0.005360
     47 C                     0.039798       0.093937
     48 C                    -0.398024      -0.058329
     49 H                     0.228060       0.002299
     50 C                    -0.145831       0.057314
     51 C                    -0.139731       0.197242
     52 C                     0.059094      -0.089782
     53 C                    -0.331601       0.126059
     54 H                     0.274828      -0.006335
     55 C                     0.295845      -0.019096
     56 C                    -0.340138       0.124371
     57 H                     0.275144      -0.006377
     58 C                     0.046007      -0.090126
     59 N                    -0.573139       0.430150
     60 C                     0.293159      -0.081715
     61 C                    -0.264995       0.136153
     62 H                     0.292739      -0.007021
     63 C                    -0.235863      -0.094549
     64 H                     0.275014       0.004638
     65 C                    -0.224663       0.165777
     66 H                     0.277200      -0.008940
     67 C                    -0.235749      -0.096563
     68 H                     0.275708       0.005023
     69 C                    -0.267284       0.139438
     70 H                     0.293969      -0.007204
     71 C                     0.281603      -0.079692
     72 C                    -0.264685       0.131365
     73 H                     0.291235      -0.006853
     74 C                    -0.236191      -0.089754
     75 H                     0.275053       0.004578
     76 C                    -0.224921       0.158326
     77 H                     0.276895      -0.008547
     78 C                    -0.235197      -0.093146
     79 H                     0.275620       0.004743
     80 C                    -0.260951       0.133193
     81 H                     0.293226      -0.006815
     82 C                    -0.540766       0.008728
     83 H                     0.241774      -0.000278
     84 H                     0.267942      -0.002226
     85 C                    -0.550158       0.009239
     86 H                     0.274444      -0.002796
     87 H                     0.243150      -0.000121
     88 C                    -0.662475      -0.002259
     89 H                     0.248778      -0.000355
     90 H                     0.216962       0.000010
     91 H                     0.234021      -0.000619
     92 C                    -0.662503      -0.002390
     93 H                     0.252913      -0.000507
     94 H                     0.216237      -0.000019
     95 H                     0.231797      -0.000637
     96 C                    -0.199440      -0.026743
     97 C                     0.058845       0.004684
     98 C                    -0.368514      -0.001795
     99 H                     0.240211       0.000407
    100 C                     0.311127       0.001854
    101 C                    -0.376621      -0.001730
    102 H                     0.241444       0.000372
    103 C                     0.047943       0.004419
    104 N                    -0.672468       0.000067
    105 C                     0.293674      -0.000028
    106 C                    -0.300225       0.000069
    107 H                     0.259444      -0.000004
    108 C                    -0.241251      -0.000050
    109 H                     0.246943       0.000002
    110 C                    -0.267173       0.000076
    111 H                     0.243982      -0.000004
    112 C                    -0.241798      -0.000053
    113 H                     0.247601       0.000004
    114 C                    -0.294555       0.000069
    115 H                     0.261081      -0.000004
    116 C                     0.282893      -0.000023
    117 C                    -0.292502       0.000064
    118 H                     0.259314      -0.000003
    119 C                    -0.242385      -0.000047
    120 H                     0.247612       0.000002
    121 C                    -0.264373       0.000068
    122 H                     0.245010      -0.000004
    123 C                    -0.243040      -0.000048
    124 H                     0.248067       0.000004
    125 C                    -0.290489       0.000063
    126 H                     0.259991      -0.000004
    127 C                    -0.538405       0.002929
    128 H                     0.252637      -0.001786
    129 H                     0.231255       0.000262
    130 C                    -0.546747       0.003542
    131 H                     0.259021      -0.002635
    132 H                     0.232541       0.000354
    133 C                    -0.656736      -0.000189
    134 H                     0.234793      -0.000165
    135 H                     0.222899       0.000006
    136 H                     0.217624      -0.000050
    137 C                    -0.657632      -0.000193
    138 H                     0.239137      -0.000235
    139 H                     0.220637       0.000011
    140 H                     0.217102      -0.000054
  --------------------------------------------------------
  Sum of atomic charges =    -0.000000
  Sum of spin   charges =     2.000000

 -----------------------------------------------------------------
                    Cartesian Multipole Moments
 -----------------------------------------------------------------
    Charge (ESU x 10^10)
                -0.0000
    Dipole Moment (Debye)
         X      26.2934      Y       3.6145      Z      15.5805
       Tot      30.7760
    Quadrupole Moments (Debye-Ang)
        XX    -267.5287     XY      31.6499     YY    -449.7265
        XZ      67.7371     YZ       2.5638     ZZ    -423.2364
    Octopole Moments (Debye-Ang^2)
       XXX    1489.3636    XXY     126.4342    XYY     125.2470
       YYY    -469.8569    XXZ    1080.6163    XYZ     -32.4550
       YYZ     707.5589    XZZ     275.3217    YZZ    -273.0678
       ZZZ    2311.4020
    Hexadecapole Moments (Debye-Ang^3)
      XXXX  -54111.9488   XXXY    3022.5885   XXYY  -10959.1924
      XYYY     737.7119   YYYY   -7965.3357   XXXZ   -6874.1238
      XXYZ     256.2927   XYYZ   -2502.0780   YYYZ     189.3127
      XXZZ  -16980.2512   XYZZ     203.2937   YYZZ  -10662.4979
      XZZZ   -7909.2338   YZZZ     659.2563   ZZZZ  -48656.5392
 -----------------------------------------------------------------
 Calculating analytic gradient of the SCF energy
 -1.354372780096586E-003 -1.354332493129369E-003
 -1.354348791089522E-003 -1.354356589760995E-003
 -1.354361102262822E-003 -1.354344162031575E-003
 -1.354354132048592E-003 -1.354351135595794E-003
 -1.354354798687900E-003 -1.354350603144126E-003
 -1.354336244855630E-003 -1.354369029796485E-003
 -1.354375951264016E-003 -1.354329319668379E-003
 -1.354357679573271E-003 -1.354347669833828E-003
 -1.354351285258685E-003 -1.354354001029168E-003
 -1.354385626432377E-003 -1.354319650481697E-003
 -1.354353479941288E-003 -1.354351912141876E-003
 -1.354334699089464E-003 -1.354370566918748E-003
 -1.354349745880351E-003 -1.354355518826043E-003
 -1.354353007042894E-003 -1.354352384608050E-003
 -1.354319436343116E-003 -1.354385847254235E-003
 -1.354370710398429E-003 -1.354334572699566E-003
 -1.354353584892958E-003 -1.354351813480157E-003
 -1.354339132489057E-003 -1.354366124207967E-003
 -1.354339378102832E-003 -1.354365902415802E-003
 -1.354357918743314E-003 -1.354347426782624E-003
 -1.354333058412125E-003 -1.354372219029400E-003
 -1.354333053718760E-003 -1.354372219281446E-003
 -1.354348891865278E-003 -1.354356486141830E-003
 -1.354341406888420E-003 -1.354363857550355E-003
 -1.354354123251167E-003 -1.354351138178638E-003
 -1.354353977037522E-003 -1.354351411230319E-003
 -1.354331057802471E-003 -1.354374211567694E-003
 -1.354353647332094E-003 -1.354351618567030E-003
 -1.354354900730080E-003 -1.354350488403794E-003
 -1.354311244512080E-003 -1.354394033305267E-003
 -1.354351110995065E-003 -1.354354150286372E-003
 -1.354348716770017E-003 -1.354356601484522E-003
 -1.354336670206877E-003 -1.354368608199607E-003
 -1.354330449063106E-003 -1.354374802873471E-003
 -1.354356033424718E-003 -1.354349333614943E-003
 -1.354368582502083E-003 -1.354336690573910E-003
 -1.354357635023507E-003 -1.354347616331799E-003
 -1.354353988129641E-003 -1.354351310039328E-003
 -1.354338756567821E-003 -1.354366500441354E-003
 -1.354370727063594E-003 -1.354334522567630E-003
 -1.354356055091953E-003 -1.354349321607596E-003
 -1.354331818531824E-003 -1.354373450452452E-003
 -1.354342675727440E-003 -1.354362600032870E-003
 -1.354355569525506E-003 -1.354349760936534E-003
 -1.354370801473720E-003 -1.354334457223882E-003
 -1.354365564960123E-003 -1.354339725912329E-003
 -1.354356273576515E-003 -1.354349122766265E-003
 -1.354331505767374E-003 -1.354373776309930E-003
 -1.354334571387483E-003 -1.354370684390122E-003
 -1.354357406183759E-003 -1.354347960364583E-003
 -1.354380460564408E-003 -1.354324819217548E-003
 -1.354367223639408E-003 -1.354338030610396E-003
 -1.354354988976277E-003 -1.354350405329286E-003
 -1.354339706315856E-003 -1.354365577172179E-003
 -1.354391070800910E-003 -1.354314215465214E-003
 -1.354355598293635E-003 -1.354349795794863E-003
 -1.354333297760429E-003 -1.354371963620182E-003
 -1.354362008185749E-003 -1.354343271369488E-003
 -1.354352828666783E-003 -1.354352493248642E-003
 -1.354343258058856E-003 -1.354362003241336E-003
 -1.354346897830759E-003 -1.354358336747064E-003
 -1.354355842871672E-003 -1.354349533317786E-003
 -1.354376644945379E-003 -1.354328649737247E-003
 -1.354361675049245E-003 -1.354343563040092E-003
 -1.354354928123771E-003 -1.354350376934769E-003
 -1.354344737746099E-003 -1.354360534462397E-003
 -1.354361522195207E-003 -1.354343766894794E-003
 -1.354355798166308E-003 -1.354349581460526E-003
 -1.354327751271792E-003 -1.354377488302908E-003
 -1.354341590618974E-003 -1.354363705459789E-003
 -1.354355060565451E-003 -1.354350270107598E-003
 -1.354370342891784E-003 -1.354334893503469E-003
 -1.354362269584058E-003 -1.354343009838443E-003
 -1.354350429054262E-003 -1.354354918697330E-003
 -1.354357939810118E-003 -1.354347336776006E-003
 -1.354341066107615E-003 -1.354364215002801E-003
 -1.354351772422101E-003 -1.354353579914261E-003
 -1.354348321482293E-003 -1.354356959881352E-003
 -1.354369373075569E-003 -1.354335898192455E-003
 -1.354352504709658E-003 -1.354352876771603E-003
 -1.354365976112856E-003 -1.354339288170333E-003
 -1.354338670521590E-003 -1.354366616039331E-003
 -1.354356473356487E-003 -1.354348924444806E-003
 -1.354365739719118E-003 -1.354339516849612E-003
 -1.354366214661065E-003 -1.354339067627469E-003
 -1.354350657219465E-003 -1.354354685994082E-003
 -1.354373510235304E-003 -1.354331761499188E-003
 -1.354353385434218E-003 -1.354351877895021E-003
 -1.354355875478315E-003 -1.354349516961867E-003
 -1.354386670222051E-003 -1.354318609497413E-003
 -1.354352353069428E-003 -1.354352908879917E-003
 -1.354355562938417E-003 -1.354349827253794E-003
 -1.354368770419729E-003 -1.354336504824060E-003
 -1.354355391704656E-003 -1.354349877003516E-003
 -1.354355861882232E-003 -1.354349525391623E-003
 -1.354395282140903E-003 -1.354309993823853E-003
 -1.354352838487627E-003 -1.354352421863725E-003
 -1.354346215208896E-003 -1.354359099233751E-003
 -1.354365137327001E-003 -1.354340142131726E-003
 -1.354371574993256E-003 -1.354333674132753E-003
 -1.354351054991146E-003 -1.354354313160451E-003
 -1.354333148911798E-003 -1.354372128266639E-003
 -1.354348984538868E-003 -1.354356266488855E-003
 -1.354352101958873E-003 -1.354353197331318E-003
 -1.354365594547813E-003 -1.354339667371008E-003
 -1.354337117966468E-003 -1.354368136665183E-003
 -1.354355569801382E-003 -1.354349804527886E-003
 -1.354374250536214E-003 -1.354331018229505E-003
 -1.354361274528097E-003 -1.354344004988413E-003
 -1.354351727525929E-003 -1.354353601594182E-003
 -1.354334044109685E-003 -1.354371209020668E-003
 -1.354342317027351E-003 -1.354362970591036E-003
 -1.354356908767686E-003 -1.354348488042765E-003
 -1.354374883979531E-003 -1.354330400307626E-003
 -1.354367639369286E-003 -1.354337617068500E-003
 -1.354350732145991E-003 -1.354354633235563E-003
 -1.354321127051278E-003 -1.354384152725968E-003
 -1.354337028260935E-003 -1.354368224231224E-003
 -1.354357714829175E-003 -1.354347677851066E-003
 -1.354362980566195E-003 -1.354342301480928E-003
 -1.354317260831463E-003 -1.354388032031010E-003
 -1.354359656870385E-003 -1.354345738058716E-003
 -1.354373761234801E-003 -1.354331496749791E-003
 -1.354339354009998E-003 -1.354365926409043E-003
 -1.354355763133238E-003 -1.354349559160913E-003
 -1.354359414505984E-003 -1.354345850610702E-003
 -1.354353517191092E-003 -1.354351715527997E-003
 -1.354352210143524E-003 -1.354353162009177E-003
 -1.354325040592975E-003 -1.354380249836791E-003
 -1.354344243251716E-003 -1.354360994921952E-003
 -1.354354336030295E-003 -1.354350964261625E-003
 -1.354362958605955E-003 -1.354342309798501E-003
 -1.354347007258815E-003 -1.354358275073776E-003
 -1.354354211970823E-003 -1.354351164477421E-003
 -1.354378589484482E-003 -1.354326651553506E-003
 -1.354362344944245E-003 -1.354342954859525E-003
 -1.354350911930925E-003 -1.354354417514433E-003
 -1.354334763448046E-003 -1.354370471220341E-003
 -1.354324277880537E-003 -1.354381002891444E-003
 -1.354358050610628E-003 -1.354347343898129E-003
 -1.354368017151388E-003 -1.354337249026720E-003
 -1.354349513603601E-003 -1.354355756429623E-003
 -1.354357282088531E-003 -1.354348117707219E-003
 -1.354373076461868E-003 -1.354332199208665E-003
 -1.354327566262956E-003 -1.354377707687265E-003
 -1.354356564038295E-003 -1.354348782445239E-003
 -1.354350861626084E-003 -1.354354422928786E-003
 -1.354330665613919E-003 -1.354374608997446E-003
 -1.354353081510051E-003 -1.354352299775510E-003
 -1.354345697882548E-003 -1.354359563309946E-003
 -1.354370783983843E-003 -1.354334504940121E-003
 -1.354368692783151E-003 -1.354336579682923E-003
 -1.354361028267543E-003 -1.354344250737643E-003
 -1.354322399683873E-003 -1.354382881449683E-003
 -1.354322485499273E-003 -1.354382778395559E-003
 -1.354334591378209E-003 -1.354370696496306E-003
 -1.354374732105411E-003 -1.354330571196449E-003
 -1.354361738370279E-003 -1.354343499964260E-003
 -1.354354527186367E-003 -1.354350765939794E-003
 -1.354346021727047E-003 -1.354359274935050E-003
 -1.354339830761451E-003 -1.354365406840881E-003
 -1.354340375157337E-003 -1.354364916485541E-003
 -1.354310592364306E-003 -1.354394689081943E-003
 -1.354336559356561E-003 -1.354368722499224E-003
 -1.354328614396606E-003 -1.354376664413555E-003
 -1.354362184473535E-003 -1.354343114784337E-003
 -1.354365314583150E-003 -1.354339929616235E-003
 -1.354367803303230E-003 -1.354337493199826E-003
 -1.354328518033350E-003 -1.354376766557082E-003
 -1.354357199886313E-003 -1.354348055291771E-003
 -1.354351547396490E-003 -1.354353729493701E-003
 -1.354306421193049E-003 -1.354398866288080E-003
 -1.354365812761684E-003 -1.354339444448923E-003
 -1.354327540306414E-003 -1.354377748811812E-003
 -1.354365929075661E-003 -1.354339397830359E-003
 -1.354352750110818E-003 -1.354352536648479E-003
 -1.354354999957393E-003 -1.354350292345194E-003
 -1.354323470858219E-003 -1.354381824017636E-003
 -1.354366074203528E-003 -1.354339231375002E-003
 -1.354351129439221E-003 -1.354354165865140E-003
 -1.354390808964976E-003 -1.354314494071140E-003
 -1.354335201572348E-003 -1.354370095950925E-003
 -1.354340264124349E-003 -1.354364998155940E-003
 -1.354350985390111E-003 -1.354354288038951E-003
 -1.354343352325939E-003 -1.354361920811112E-003
 -1.354335296679606E-003 -1.354369939234364E-003
 -1.354330732028006E-003 -1.354374528241816E-003
 -1.354349221281405E-003 -1.354356076354894E-003
 -1.354353461657974E-003 -1.354351839082008E-003
 -1.354363067510744E-003 -1.354342182761563E-003
 -1.354346227486135E-003 -1.354359054395528E-003
 -1.354339219039739E-003 -1.354366083390189E-003
 -1.354374897254210E-003 -1.354330410812628E-003
 -1.354348013619625E-003 -1.354357295962475E-003
 -1.354333814696447E-003 -1.354371460525120E-003
 -1.354343942170824E-003 -1.354361352663054E-003
 -1.354347676501853E-003 -1.354357618881361E-003
 -1.354352853210425E-003 -1.354352437187775E-003
 -1.354317999744544E-003 -1.354387265889569E-003
 -1.354358330341276E-003 -1.354346979671163E-003
 -1.354361465141654E-003 -1.354343829499283E-003
 -1.354354194252933E-003 -1.354351066990150E-003
 -1.354359833550531E-003 -1.354345452090592E-003
 -1.354339230189526E-003 -1.354366025293491E-003
 -1.354344791932493E-003 -1.354360498921730E-003
 -1.354371460020602E-003 -1.354333845583314E-003
 -1.354339551000537E-003 -1.354365725489050E-003
 -1.354334120104321E-003 -1.354371147098791E-003
 -1.354388541079918E-003 -1.354316743553258E-003
 -1.354352650780315E-003 -1.354352639262932E-003
 -1.354350232636814E-003 -1.354355090932526E-003
 -1.354333373914580E-003 -1.354371894572891E-003
 -1.354333852586153E-003 -1.354371436168814E-003
 -1.354345760602270E-003 -1.354359543059758E-003
 -1.354374958500661E-003 -1.354330302622323E-003
 -1.354386498407479E-003 -1.354318785983162E-003
 -1.354334173277839E-003 -1.354371075289016E-003
 -1.354358900882689E-003 -1.354346362856996E-003
 -1.354355495527212E-003 -1.354349771927508E-003
 -1.354344146628073E-003 -1.354361184055060E-003
 -1.354352677534652E-003 -1.354352581742188E-003
 -1.354332650179743E-003 -1.354372610645472E-003
 -1.354337118526192E-003 -1.354368193410915E-003
 -1.354357727292778E-003 -1.354347521752083E-003
 -1.354364295313784E-003 -1.354340971563073E-003
 -1.354337951499783E-003 -1.354367378286424E-003
 -1.354357472951298E-003 -1.354347800669897E-003
 -1.354378037971259E-003 -1.354327242179626E-003
 -1.354343690353659E-003 -1.354361635331420E-003
 -1.354356484312294E-003 -1.354348802999522E-003
 -1.354344784085483E-003 -1.354360486418956E-003
 -1.354347302665999E-003 -1.354358015154163E-003
 -1.354342387594830E-003 -1.354362878594714E-003
 -1.354323628289626E-003 -1.354381639951406E-003
 -1.354340680473328E-003 -1.354364572040166E-003
 -1.354345802409207E-003 -1.354359472251451E-003
 -1.354361360138377E-003 -1.354343911473645E-003
 -1.354344134988532E-003 -1.354361184396212E-003
 -1.354329022982218E-003 -1.354376241320975E-003
 -1.354350301013316E-003 -1.354354969392265E-003
 -1.354360717646918E-003 -1.354344587908948E-003
 -1.354319772587039E-003 -1.354385473986125E-003
 -1.354348677027192E-003 -1.354356593719820E-003
 -1.354357776421013E-003 -1.354347507497946E-003
 -1.354368229877362E-003 -1.354337047172851E-003
 -1.354337314764373E-003 -1.354367950913465E-003
 -1.354340732726694E-003 -1.354364554952623E-003
 -1.354357338203753E-003 -1.354347926652092E-003
 -1.354357141186119E-003 -1.354348137477899E-003
 -1.354332007226055E-003 -1.354373270162596E-003
 -1.354353649938096E-003 -1.354351634489838E-003
 -1.354359989880645E-003 -1.354345293608531E-003
 -1.354344039866464E-003 -1.354361250830060E-003
 -1.354346775495768E-003 -1.354358478282019E-003
 -1.354362881211182E-003 -1.354342382875692E-003
 -1.354351838146716E-003 -1.354353455210335E-003
 -1.354344950388111E-003 -1.354360329092927E-003
 -1.354331637042678E-003 -1.354373629011732E-003
 -1.354339144340559E-003 -1.354366154796294E-003
 -1.354345802219451E-003 -1.354359447575209E-003
 -1.354339485806398E-003 -1.354365784270977E-003
 -1.354329241060180E-003 -1.354376013753426E-003
 -1.354354408387150E-003 -1.354350868505510E-003
 -1.354353984056137E-003 -1.354351304635250E-003
 -1.354352699438590E-003 -1.354352589949218E-003
 -1.354364332250601E-003 -1.354340933577570E-003
 -1.354339633276846E-003 -1.354365631985446E-003
 -1.354359913037429E-003 -1.354345349176337E-003
 -1.354371772831884E-003 -1.354333507453957E-003
 -1.354341394039583E-003 -1.354363888397158E-003
 -1.354339557018304E-003 -1.354365704505917E-003
 -1.354382103138619E-003 -1.354323176959721E-003
 -1.354350653233155E-003 -1.354354611090676E-003
 -1.354338669913110E-003 -1.354366646648667E-003
 -1.354341916379995E-003 -1.354363338074620E-003
 -1.354336717029420E-003 -1.354368521889470E-003
 -1.354346933995140E-003 -1.354358358143317E-003
 -1.354335116151942E-003 -1.354370134429642E-003
 -1.354364644427801E-003 -1.354340609544492E-003
 -1.354341441703128E-003 -1.354363853159133E-003
 -1.354334029650012E-003 -1.354371243093165E-003
 -1.354362335020324E-003 -1.354342925977967E-003
 -1.354355007568340E-003 -1.354350271078389E-003
 -1.354323847025233E-003 -1.354381409264953E-003
 -1.354349600917272E-003 -1.354355665773607E-003
 -1.354337077327138E-003 -1.354368208716629E-003
 -1.354367503488544E-003 -1.354337766257416E-003
 -1.354342485922392E-003 -1.354362795819179E-003
 -1.354378212537696E-003 -1.354327074643009E-003
 -1.354323466350126E-003 -1.354381800356063E-003
 -1.354377135652349E-003 -1.354328143918780E-003
 -1.354328441165457E-003 -1.354376867228504E-003
 -1.354365082648839E-003 -1.354340156582139E-003
 -1.354359620405986E-003 -1.354345670146579E-003
 -1.354355820434461E-003 -1.354349481827422E-003
 -1.354344702117371E-003 -1.354360537015035E-003
 -1.354377755926681E-003 -1.354327524612086E-003
 -1.354394573293318E-003 -1.354310711950107E-003
 -1.354338225068608E-003 -1.354367041631392E-003
 -1.354379677289504E-003 -1.354325620125539E-003
 -1.354347962410511E-003 -1.354357327995972E-003
 -1.354360500541737E-003 -1.354344741084344E-003
 -1.354326952245931E-003 -1.354378359530953E-003
 -1.354379957058242E-003 -1.354325314794532E-003
 -1.354351255403001E-003 -1.354354000130466E-003
 -1.354345134269686E-003 -1.354360149219125E-003
 -1.354401956199354E-003 -1.354303323273599E-003
 -1.354364466504540E-003 -1.354340793267906E-003
 -1.354369476556273E-003 -1.354335821664412E-003
 -1.354337729534676E-003 -1.354367601473508E-003
 -1.354356436195563E-003 -1.354348805380150E-003
 -1.354349260451208E-003 -1.354356072998861E-003
 -1.354355824691948E-003 -1.354349504166907E-003
 -1.354340191765666E-003 -1.354365083635659E-003
 -1.354380949041146E-003 -1.354324335502240E-003
 -1.354358862624479E-003 -1.354346454674234E-003
 -1.354357977189675E-003 -1.354347272592187E-003
 -1.354309873987237E-003 -1.354395415286565E-003
 -1.354370756235652E-003 -1.354334500149580E-003
 -1.354354347884452E-003 -1.354350908578525E-003
 -1.354347727900268E-003 -1.354357543131039E-003
 -1.354362619746569E-003 -1.354342715036624E-003
 -1.354360910322520E-003 -1.354344365469757E-003
 -1.354372009886875E-003 -1.354333239890051E-003
 -1.354365467987963E-003 -1.354339846717454E-003
 -1.354348950318067E-003 -1.354356328491612E-003
 -1.354338693939077E-003 -1.354366548242990E-003
 -1.354363753938508E-003 -1.354341578854813E-003
 -1.354341563588581E-003 -1.354363697196002E-003
 -1.354324393787951E-003 -1.354380890383219E-003
 -1.354360890754978E-003 -1.354344430708308E-003
 -1.354357584941087E-003 -1.354347688498486E-003
 -1.354358035725512E-003 -1.354347252324555E-003
 -1.354357770278720E-003 -1.354347550778508E-003
 -1.354355689793637E-003 -1.354349588016213E-003
 -1.354389351839042E-003 -1.354315903252576E-003
 -1.354363644104888E-003 -1.354341612401882E-003
 -1.354339541255628E-003 -1.354365723524682E-003
 -1.354347691177904E-003 -1.354357575912692E-003
 -1.354353854830030E-003 -1.354351476359295E-003
 -1.354328846752778E-003 -1.354376419177491E-003
 -1.354358240039074E-003 -1.354347035330819E-003
 -1.354343072396513E-003 -1.354362238243532E-003
 -1.354328839514879E-003 -1.354376441885581E-003
 -1.354376232031989E-003 -1.354329012806280E-003
 -1.354378094913580E-003 -1.354327194523000E-003
 -1.354358748684360E-003 -1.354346529483353E-003
 -1.354342802327091E-003 -1.354362517131808E-003
 -1.354319247826518E-003 -1.354386046020876E-003
 -1.354351720347290E-003 -1.354353546336348E-003
 -1.354381536777487E-003 -1.354323754464483E-003
 -1.354357032173646E-003 -1.354348231949577E-003
 -1.354347844870438E-003 -1.354357420883512E-003
 -1.354369569278227E-003 -1.354335679989382E-003
 -1.354371217494891E-003 -1.354334049114772E-003
 -1.354340126631488E-003 -1.354365157513427E-003
 -1.354347242216494E-003 -1.354358064846268E-003
 -1.354348096468476E-003 -1.354357157811652E-003
 -1.354354306968723E-003 -1.354350979754129E-003
 -1.354370267005046E-003 -1.354335027708139E-003
 -1.354337579932148E-003 -1.354367723682271E-003
 -1.354362244852697E-003 -1.354343032933118E-003
 -1.354378409946616E-003 -1.354326887997171E-003
 -1.354359804772919E-003 -1.354345501578906E-003
 -1.354346048813942E-003 -1.354359226695451E-003
 -1.354354397494592E-003 -1.354350901914109E-003
 -1.354382237892981E-003 -1.354323023065118E-003
 -1.354344591675439E-003 -1.354360698181425E-003
 -1.354335967816002E-003 -1.354369335547774E-003
 -1.354356676498576E-003 -1.354348577223310E-003
 -1.354362679317534E-003 -1.354342596420860E-003
 -1.354366156637692E-003 -1.354339104146112E-003
 -1.354364783819495E-003 -1.354340518669999E-003
 -1.354375108820131E-003 -1.354330169177181E-003
 -1.354356529937331E-003 -1.354348758456601E-003
 -1.354373396335635E-003 -1.354331872627543E-003
 -1.354376432566085E-003 -1.354328859763592E-003
 -1.354336668164349E-003 -1.354368603836424E-003
 -1.354352420205229E-003 -1.354352872024958E-003
 -1.354366415544686E-003 -1.354338870096949E-003
 -1.354343011946904E-003 -1.354362236193457E-003
 -1.354362340276841E-003 -1.354342963833993E-003
 -1.354349549699986E-003 -1.354355739362907E-003
 -1.354370141689553E-003 -1.354335137393377E-003
 -1.354355457746436E-003 -1.354349826599571E-003
 -1.354361763301822E-003 -1.354343503357796E-003
 -1.354362176415670E-003 -1.354343085133492E-003
 -1.354346616875703E-003 -1.354358635895783E-003
 -1.354349101190478E-003 -1.354356164882035E-003
 -1.354352884221459E-003 -1.354352400878017E-003
 -1.354370926288848E-003 -1.354334356239891E-003
 -1.354346832852941E-003 -1.354358454755112E-003
 -1.354346114044790E-003 -1.354359173415056E-003
 -1.354366897134582E-003 -1.354338371648819E-003
 -1.354341814252175E-003 -1.354363436724776E-003
 -1.354356682402065E-003 -1.354348598497435E-003
 -1.354374555201444E-003 -1.354330731045843E-003
 -1.354348930280529E-003 -1.354356342879371E-003
 -1.354372083833463E-003 -1.354333157721521E-003
 -1.354357359083607E-003 -1.354347923865946E-003
 -1.354362536769820E-003 -1.354342727232359E-003
 -1.354344933429731E-003 -1.354360319062359E-003
 -1.354361053716487E-003 -1.354344210922646E-003
 -1.354383278345645E-003 -1.354322003295566E-003
 -1.354361654104396E-003 -1.354343603056587E-003
 -1.354359817364890E-003 -1.354345466186822E-003
 -1.354368222189077E-003 -1.354337055343024E-003
 -1.354342457273445E-003 -1.354362817792701E-003
 -1.354381082763866E-003 -1.354324143272205E-003
 -1.354343049462168E-003 -1.354362214084996E-003
 -1.354365272641924E-003 -1.354340038343094E-003
 -1.354346951722800E-003 -1.354358305651379E-003
 -1.354338274900859E-003 -1.354366977544313E-003
 -1.354360216878532E-003 -1.354345054641979E-003
 -1.354354842279899E-003 -1.354350421234702E-003
 -1.354322281293630E-003 -1.354382978844271E-003
 -1.354348910615812E-003 -1.354356366104389E-003
 -1.354354373257812E-003 -1.354350902304143E-003
 -1.354336784880747E-003 -1.354368495052943E-003
 -1.354366950622585E-003 -1.354338339793144E-003
 Gradient of SCF Energy
            1           2           3           4           5           6
    1   0.0041560  -0.0014352  -0.0015391   0.0131037  -0.0079325  -0.0022110
    2  -0.0018323   0.0001358   0.0001542  -0.0005670  -0.0000276   0.0012607
    3   0.0074774   0.0006965  -0.0022683  -0.0000170  -0.0102324  -0.0080207
            7           8           9          10          11          12
    1   0.0086036  -0.0192336  -0.0048743   0.0001132   0.0019332   0.0037268
    2  -0.0004513  -0.0004318   0.0001648  -0.0001161  -0.0000606  -0.0000903
    3   0.0057571  -0.0009626  -0.0010296   0.0012177   0.0052879  -0.0019472
           13          14          15          16          17          18
    1   0.0020883   0.0014840   0.0007422   0.0032805  -0.0009086   0.0017373
    2  -0.0000248  -0.0001035   0.0000130  -0.0001024   0.0001359   0.0001065
    3   0.0002964  -0.0069858  -0.0010982  -0.0028812   0.0030362   0.0051144
           19          20          21          22          23          24
    1  -0.0068125   0.0016385  -0.0035517   0.0012931   0.0035307   0.0004605
    2  -0.0000401   0.0000016   0.0001694  -0.0000018  -0.0001190  -0.0000165
    3  -0.0011316   0.0009108  -0.0050702   0.0013309  -0.0056878   0.0000838
           25          26          27          28          29          30
    1  -0.0003804   0.0136330   0.0119493  -0.0001975  -0.0027466   0.0106456
    2   0.0006162   0.0025489  -0.0005843  -0.0010464   0.0002138   0.0001427
    3   0.0000674   0.0087620  -0.0007175  -0.0007046  -0.0006326   0.0088390
           31          32          33          34          35          36
    1   0.0035691  -0.0041813   0.0008973  -0.0064907   0.0010407  -0.0033438
    2  -0.0001448  -0.0001787   0.0001523   0.0002337   0.0000274   0.0004517
    3  -0.0010107  -0.0046769   0.0003715   0.0001968   0.0004562   0.0060759
           37          38          39          40          41          42
    1  -0.0001089   0.0005964   0.0016672  -0.0035229   0.0007739   0.0054830
    2   0.0001068   0.0000853  -0.0002720   0.0002729  -0.0000964  -0.0002917
    3   0.0007456   0.0013274  -0.0018577  -0.0021198  -0.0007906  -0.0008626
           43          44          45          46          47          48
    1  -0.0003936   0.0013983  -0.0046269  -0.0006566  -0.0110994  -0.0082413
    2   0.0002355   0.0000316   0.0005871   0.0001264   0.0003533  -0.0002276
    3   0.0052553   0.0018928   0.0055675   0.0016373  -0.0051946   0.0035745
           49          50          51          52          53          54
    1   0.0094800  -0.0127977  -0.0005067  -0.0109222  -0.0001969   0.0054479
    2  -0.0003675  -0.0000312  -0.0003471   0.0057329   0.0149286  -0.0068618
    3   0.0047984  -0.0171324  -0.0005430  -0.0058717  -0.0082472   0.0061354
           55          56          57          58          59          60
    1  -0.0089017  -0.0037517   0.0056257  -0.0087229   0.0097641  -0.0019760
    2  -0.0002640  -0.0162350   0.0083531  -0.0108103  -0.0027091   0.0044568
    3  -0.0040291   0.0067825   0.0005433  -0.0051457   0.0012010  -0.0036980
           61          62          63          64          65          66
    1  -0.0146391   0.0118374  -0.0114173   0.0134203  -0.0007126   0.0017804
    2   0.0011763   0.0017770   0.0018007  -0.0051529   0.0018080  -0.0054258
    3   0.0048046  -0.0092988   0.0038441   0.0047144  -0.0040311   0.0127498
           67          68          69          70          71          72
    1   0.0094678  -0.0099943   0.0131644  -0.0101124  -0.0037529  -0.0010592
    2  -0.0022672  -0.0008995  -0.0019595   0.0033401  -0.0044986  -0.0044025
    3  -0.0019301   0.0089212   0.0006298  -0.0039714   0.0024410  -0.0150802
           73          74          75          76          77          78
    1  -0.0027159   0.0001152   0.0069966  -0.0031683   0.0092719   0.0008118
    2   0.0004103  -0.0041168   0.0101521  -0.0026847   0.0086128   0.0046113
    3   0.0149033  -0.0109452   0.0084609   0.0020199  -0.0051840   0.0083776
           79          80          81          82          83          84
    1   0.0034795   0.0050959  -0.0059559  -0.0060128   0.0015299   0.0035923
    2  -0.0002224   0.0068099  -0.0074825   0.0030924  -0.0016964  -0.0012767
    3  -0.0125777   0.0104732  -0.0064994  -0.0051072   0.0033940   0.0011496
           85          86          87          88          89          90
    1  -0.0056914   0.0027167   0.0025427  -0.0063489   0.0027467   0.0020687
    2  -0.0047123   0.0028932   0.0022214   0.0008520  -0.0022431   0.0004070
    3  -0.0032193   0.0026616  -0.0004116  -0.0050835   0.0040756   0.0010226
           91          92          93          94          95          96
    1   0.0011899  -0.0085290   0.0052786   0.0014373   0.0011075  -0.0029390
    2   0.0002798  -0.0025342   0.0040645   0.0002784  -0.0002875   0.0004511
    3   0.0002089  -0.0016439  -0.0003553   0.0009201   0.0012665  -0.0011957
           97          98          99         100         101         102
    1  -0.0043449  -0.0004361   0.0048371   0.0033209   0.0026546   0.0018508
    2   0.0108435  -0.0006742   0.0055036  -0.0013635  -0.0014961  -0.0065433
    3  -0.0041690   0.0029026   0.0013895   0.0018288  -0.0013850   0.0021709
          103         104         105         106         107         108
    1  -0.0096279   0.0025215  -0.0023875   0.0018372  -0.0006833   0.0021045
    2  -0.0091192  -0.0000913   0.0029502   0.0020886   0.0023806  -0.0027893
    3  -0.0031174   0.0012973   0.0003788   0.0011543   0.0042342   0.0036806
          109         110         111         112         113         114
    1   0.0005120   0.0025019   0.0007016   0.0010375  -0.0000611  -0.0024424
    2  -0.0005390  -0.0041954  -0.0011806  -0.0019077  -0.0004255  -0.0000313
    3   0.0014404  -0.0005162  -0.0002386  -0.0041669  -0.0021429  -0.0001316
          115         116         117         118         119         120
    1  -0.0030658  -0.0015547   0.0018029   0.0026957   0.0047149   0.0014630
    2   0.0032364  -0.0029528  -0.0023149  -0.0020516   0.0018132   0.0003471
    3  -0.0044843  -0.0027337   0.0003882  -0.0032272   0.0003818  -0.0002076
          121         122         123         124         125         126
    1   0.0019254   0.0003856  -0.0025250  -0.0016478  -0.0009339  -0.0058801
    2   0.0032375   0.0009738   0.0020492   0.0007334   0.0014471  -0.0012999
    3   0.0033504   0.0008889   0.0035546   0.0011302  -0.0016558  -0.0007496
          127         128         129         130         131         132
    1   0.0004234  -0.0058635   0.0044272   0.0109277  -0.0071920   0.0005123
    2  -0.0018001  -0.0004416   0.0022674   0.0000233   0.0033227  -0.0029496
    3   0.0134089  -0.0060799  -0.0016231  -0.0065385  -0.0010151   0.0041974
          133         134         135         136         137         138
    1   0.0077177  -0.0077245  -0.0013612   0.0037895  -0.0033181  -0.0007193
    2  -0.0034335  -0.0044814   0.0050680  -0.0002166   0.0017540   0.0064436
    3  -0.0088052   0.0020599  -0.0016961   0.0046515   0.0117843  -0.0066666
          139         140
    1  -0.0029227   0.0058248
    2  -0.0034613  -0.0012457
    3  -0.0010167   0.0007171
 Max gradient component =       1.923E-02
 RMS gradient           =       4.933E-03
 Computing fast IEFPCM-SWIG gradient.
 Updating gradient with PCM contributions...
 -- total gradient after adding PCM contribution --
---------------------------------------------------
  Atom         X              Y              Z     
---------------------------------------------------
   1       0.007678      -0.001625       0.008952
   2       0.002930      -0.000422       0.000753
   3      -0.000139       0.000199      -0.002151
   4       0.013011      -0.000466       0.009120
   5      -0.016068       0.000421      -0.003283
   6       0.000124       0.000103      -0.006880
   7       0.000817       0.000027      -0.000232
   8      -0.017630      -0.000173      -0.001976
   9       0.002620       0.000042      -0.005808
  10      -0.003790       0.000092       0.001251
  11       0.000062      -0.000044       0.000456
  12       0.000355      -0.000012      -0.003098
  13       0.000335       0.000002      -0.000074
[...]
    111  H        -9.0355431573    5.4142117315   -4.2911330003
    112  C        -7.9001771744    3.8441854137   -3.3627292004
    113  H        -8.0059236670    4.2473034908   -2.3637618699
    114  C        -7.1973605874    2.6652895798   -3.5466594390
    115  H        -6.7589084826    2.1577084861   -2.6972613236
    116  C        -6.7900289279    0.0019622066   -5.9618042434
    117  C        -8.1372958898   -0.3534645488   -5.9865902387
    118  H        -8.8179814756    0.0835049414   -5.2671668458
    119  C        -8.6057400478   -1.2526251701   -6.9294694778
    120  H        -9.6557696580   -1.5149750387   -6.9374535710
    121  C        -7.7383072849   -1.8270538826   -7.8470715593
    122  H        -8.1056453474   -2.5340770419   -8.5787233224
    123  C        -6.3944777797   -1.4840269191   -7.8161495759
    124  H        -5.7082451271   -1.9187604829   -8.5313535439
    125  C        -5.9211084068   -0.5700100600   -6.8892123019
    126  H        -4.8747341913   -0.2933394873   -6.8828682295
    127  C        -3.2117061368   -2.2020553596   -2.8918080063
    128  H        -2.5159116853   -2.2217154972   -2.0496189791
    129  H        -4.1117601676   -2.7212580259   -2.5513048985
    130  C        -2.1756413128    2.7617230824   -3.1468827586
    131  H        -1.1267661383    2.4756403638   -3.0393011780
    132  H        -2.2106414824    3.4569287898   -3.9901250436
    133  C        -2.6072928547   -2.9642527578   -4.0687181617
    134  H        -1.6834895490   -2.4943617025   -4.4071293506
    135  H        -2.3749427014   -3.9938718824   -3.7948274124
    136  H        -3.2967469709   -2.9890150299   -4.9137512046
    137  C        -2.6376970365    3.4805349007   -1.8812364001
    138  H        -2.5952683321    2.8176609219   -1.0164868054
    139  H        -2.0092870167    4.3463524818   -1.6691712170
    140  H        -3.6661709763    3.8299919579   -1.9819245959
   Point Group: c1    Number of degrees of freedom:   414


   Energy is  -3084.742360104


 Attempting to Generate Delocalized Internal Coordinates

414 Hessian modes will be used to form the next step
  Hessian Eigenvalues:
     0.005507    0.005593    0.005622    0.005646    0.007952    0.008199
     0.008202    0.008354    0.008433    0.009284    0.012310    0.012826
     0.014035    0.014570    0.014790    0.014933    0.015015    0.015035
     0.015142    0.015289    0.015378    0.015404    0.016448    0.016821
     0.016862    0.016869    0.017126    0.017301    0.017367    0.017454
     0.017586    0.017913    0.018245    0.018698    0.018816    0.019235
     0.019340    0.020273    0.020317    0.020646    0.020717    0.020738
     0.020740    0.020758    0.020779    0.020904    0.020911    0.020928
     0.020961    0.021174    0.021253    0.021458    0.021502    0.021703
     0.021709    0.022260    0.022283    0.022386    0.022423    0.022552
     0.022556    0.022639    0.022641    0.023177    0.023184    0.023191
     0.023199    0.023257    0.023282    0.023313    0.023378    0.023426
     0.023444    0.023453    0.023466    0.023690    0.023728    0.023731
     0.023733    0.023740    0.023763    0.023767    0.023775    0.023781
     0.023803    0.023819    0.023832    0.023843    0.023845    0.023851
     0.023870    0.023929    0.023966    0.024071    0.024086    0.024094
     0.024096    0.024106    0.024106    0.024111    0.024119    0.024121
     0.024146    0.024150    0.024161    0.024189    0.024199    0.024208
     0.024212    0.024247    0.024268    0.024276    0.024293    0.024294
     0.024297    0.024319    0.024325    0.024328    0.024361    0.024447
     0.024478    0.041716    0.042169    0.042900    0.043038    0.055464
     0.055641    0.055772    0.055850    0.055905    0.056197    0.056243
     0.056304    0.056337    0.056409    0.056435    0.056503    0.093164
     0.093176    0.094483    0.094789    0.128084    0.128114    0.128975
     0.129220    0.159970    0.159975    0.159976    0.159979    0.159983
     0.159984    0.159986    0.159988    0.159993    0.159994    0.159994
     0.159995    0.159996    0.159997    0.159998    0.159999    0.159999
     0.159999    0.159999    0.159999    0.159999    0.160000    0.160000
     0.160000    0.160000    0.160000    0.160000    0.160000    0.160000
     0.160000    0.160000    0.160000    0.160000    0.160000    0.160000
     0.160000    0.160000    0.160000    0.160000    0.160000    0.160000
     0.160000    0.160000    0.160000    0.160000    0.160000    0.160000
     0.160000    0.160000    0.160000    0.160000    0.160000    0.218912
     0.218968    0.219132    0.219156    0.219989    0.219989    0.219989
     0.219990    0.220001    0.220002    0.220002    0.220002    0.220607
     0.220608    0.222124    0.222127    0.231516    0.231839    0.233779
     0.233780    0.234528    0.234602    0.234751    0.234757    0.234766
     0.234768    0.234798    0.234847    0.237396    0.237399    0.239720
     0.239887    0.248960    0.249014    0.249017    0.249021    0.249140
     0.249270    0.249534    0.249604    0.249622    0.249655    0.249655
     0.249714    0.249724    0.249726    0.249805    0.249820    0.249831
     0.249837    0.249872    0.249898    0.249902    0.249934    0.249961
     0.249962    0.249976    0.249978    0.249995    0.249998    0.249999
     0.250000    0.250000    0.253991    0.258937    0.281671    0.284898
     0.287868    0.288326    0.296313    0.296925    0.297130    0.297300
     0.314233    0.316126    0.316146    0.317320    0.325317    0.328027
     0.344181    0.344190    0.344381    0.344725    0.344777    0.344901
     0.345126    0.345253    0.347060    0.347100    0.347113    0.347380
     0.347472    0.347520    0.347587    0.347593    0.347653    0.347791
     0.347943    0.348161    0.348250    0.353473    0.354575    0.354607
     0.354616    0.354707    0.354732    0.354910    0.355017    0.355102
     0.356194    0.356294    0.356374    0.356468    0.356577    0.356642
     0.356664    0.356917    0.356918    0.356955    0.356983    0.356999
     0.357041    0.357045    0.357054    0.357116    0.357127    0.357130
     0.357130    0.357134    0.357140    0.357141    0.357150    0.357158
     0.357186    0.357188    0.357197    0.357479    0.357542    0.357865
     0.357895    0.357938    0.357975    0.363420    0.378021    0.380791
     0.384792    0.388826    0.401982    0.402157    0.407959    0.407973
     0.418443    0.418656    0.421567    0.422368    0.422427    0.422526
     0.426256    0.426958    0.428437    0.428443    0.428749    0.429168
     0.430861    0.431102    0.431120    0.431349    0.431365    0.431397
     0.434399    0.435000    0.442988    0.445649    0.447390    0.447715
     0.448644    0.449339    0.449954    0.452876    0.453699    0.455600
     0.457944    0.458383    0.465212    0.465393    0.468691    0.469011
     0.469322    0.469945    0.472480    0.472501    0.472776    0.473055
     0.474061    0.474154    0.476095    0.476520    0.476801    0.477835
     0.478970    0.479191    0.479249    0.479251    0.481179    0.482108
     0.482274    0.482277    0.482862    0.483087    0.485877    0.488343
     0.490360    0.491046    0.495002    0.495149    0.495648    0.498316

 Minimum Search - Taking Simple RFO Step
 Searching for Lamda that Minimizes Along All modes
 Value Taken    Lamda =  -0.01497747
 Calculated Step too Large.  Step scaled by  0.783767
 Step Taken.  Stepsize is  0.300000

                             Maximum     Tolerance    Cnvgd?
         Gradient           0.018097      0.000075      NO
         Displacement       0.106836      0.001200      NO
         Energy change     *********      0.000000      NO


 New Cartesian Coordinates Obtained by Inverse Iteration

 Displacement from previous Coordinates is:  4.806102
 Adding empirical dispersion correction 
 ----------------------------------------------------------------
 Doing -D3(BJ) with
 s6 =   1.00000
 s8 =   0.00000
 a1 =   0.48600
 a2 =   4.50000
 -D3 energy including 3body term =     -0.1346113666 hartrees
 ----------------------------------------------------------------
 Adding gCP correction 
 ----------------------------------------------------------------
 gCP energy =      0.1916227977 hartrees
 ----------------------------------------------------------------
             Standard Nuclear Orientation (Angstroms)
    I     Atom           X                Y                Z
 ----------------------------------------------------------------
    1      C      -0.0551665260     0.1343449929     0.0535869791
    2      C      -0.0743486977     0.1535576138     1.4666519431
    3      H       0.8641643404     0.1541029122     2.0118007139
    4      C      -1.2611490499     0.1779807267     2.1576047764
    5      C      -2.4975438391     0.2050560390     1.4337902602
    6      C      -2.4993730476     0.2033697024     0.0582447088
    7      H      -3.4420246157     0.2414529708    -0.4779130466
    8      C      -1.2967546447     0.1590036443    -0.6681367587
    9      C      -3.5861234832     0.2444343828     2.3946204805
   10      C      -4.9584681115     0.2823656983     2.3072238064
   11      H      -5.4675404213     0.2888214816     1.3510922294
   12      C      -5.7102179675     0.3127921935     3.5029586208
   13      H      -6.7903855769     0.3429044859     3.4353770021
   14      C      -5.1215417359     0.3045022442     4.7488231722
   15      H      -5.7391642168     0.3280151749     5.6386331797
   16      C      -2.9919287682     0.2373104543     3.6727412865
   17      C      -3.7104033744     0.2652708054     4.8656927804
   18      C      -1.5849128915     0.1966637162     3.5815010108
   19      C      -0.8649661159     0.1813518080     4.7512413144
   20      H       0.2174187658     0.1477998606     4.7530816697
   21      C      -1.5661276928     0.2091063460     5.9793701360
   22      H      -0.9949581170     0.1969845579     6.8988841472
   23      C      -2.9409009610     0.2500081867     6.0532895946
   24      H      -3.4311223024     0.2696483718     7.0190893675
   25      B      -1.3129221136     0.1641058856    -2.2105408397
   26      B       1.2714112957     0.1216986368    -0.7157988106
   27      C       1.2664829244     0.0241351017    -2.2423622833
   28      C       2.4796397124    -0.0739249562    -2.9546196539
   29      H       3.4164227275    -0.0786421748    -2.4060367472
   30      C       2.4895024116    -0.1619651482    -4.3246256898
   31      C       3.5651184799    -0.2808007419    -5.3039995746
   32      C       4.9368361225    -0.3560140209    -5.2523089194
   33      H       5.4735976806    -0.3310154511    -4.3121542131
   34      C       5.6554225243    -0.4702014922    -6.4650259099
   35      H       6.7355311363    -0.5298752626    -6.4208714044
   36      C       5.0394059640    -0.5098303837    -7.6965784059
   37      H       5.6359169850    -0.5988112659    -8.5965437222
   38      C       2.9476622565    -0.3234254476    -6.5718208595
   39      C       3.6278296598    -0.4354537367    -7.7829407334
   40      C       1.5436274467    -0.2397234462    -6.4601413183
   41      C       0.7893127407    -0.2670902937    -7.6112828862
   42      H      -0.2917101321    -0.2051728101    -7.5837245176
   43      C       1.4553028020    -0.3789216884    -8.8520208927
   44      H       0.8636681628    -0.4003734926    -9.7586743333
   45      C       2.8273240318    -0.4618935361    -8.9523143733
   46      H       3.2924282559    -0.5471535573    -9.9271807999
   47      C       1.2468993710    -0.1391481210    -5.0426360324
   48      C       0.0533600406    -0.0328169085    -4.3651078660
   49      H      -0.8804026181    -0.0048127609    -4.9180001988
   50      C       0.0242670014     0.0446033827    -2.9621483299
   51      C       2.6391361321     0.2687943006     0.0541682194
   52      C       3.2562201784    -0.8322591178     0.6822308443
   53      C       4.4576647624    -0.6713123016     1.3453412682
   54      H       4.9418326265    -1.5254924299     1.8056496621
   55      C       5.0608138532     0.5860746045     1.3992208250
   56      C       4.4575997132     1.6868924161     0.7872962487
   57      H       4.9229171676     2.6642190290     0.8479642242
   58      C       3.2589623642     1.5352894112     0.1159589711
   59      N       6.2779729429     0.7375902505     2.0582381742
   60      C       6.4998103731     0.0811835885     3.2700134142
   61      C       7.7690115307    -0.4254424773     3.5635191709
   62      H       8.5776314395    -0.3170867191     2.8517817176
   63      C       7.9775483410    -1.0867366197     4.7574889630
   64      H       8.9584884889    -1.4859894790     4.9773046590
   65      C       6.9322263219    -1.2549608878     5.6600885311
   66      H       7.1004964538    -1.7784320730     6.5912387042
   67      C       5.6705426051    -0.7507838702     5.3635686331
   68      H       4.8556640248    -0.8691985291     6.0649998754
   69      C       5.4479506314    -0.0813490481     4.1762551244
   70      H       4.4691220120     0.3250481742     3.9543839737
   71      C       7.2323342225     1.6097946829     1.5282117061
   72      C       7.9574449242     2.4601130550     2.3657217960
   73      H       7.7837424826     2.4538809066     3.4343408931
   74      C       8.8797832884     3.3297232645     1.8161637484
   75      H       9.4316728219     3.9951564280     2.4661350346
   76      C       9.0828055610     3.3627954884     0.4405981213
   77      H       9.8032165198     4.0484302646     0.0159256517
   78      C       8.3572690215     2.5148997235    -0.3894970275
   79      H       8.5150505983     2.5303964074    -1.4595045431
   80      C       7.4357073942     1.6372319543     0.1457253004
   81      H       6.8791577222     0.9693669890    -0.4999429987
   82      C       2.6630515236    -2.2129853536     0.5846693033
   83      H       2.9555145080    -2.7989815615     1.4594523506
   84      H       1.5729784824    -2.1521568614     0.6091571948
   85      C       2.6170129478     2.7568023948    -0.4883730394
   86      H       2.0902297309     2.4868976975    -1.4054476499
   87      H       3.3956518724     3.4650703629    -0.7825342082
   88      C       3.0955836725    -2.9455977837    -0.6834555237
   89      H       2.7653103691    -2.4164503462    -1.5774576063
   90      H       4.1810985506    -3.0427277152    -0.7334086848
   91      H       2.6666009542    -3.9473648037    -0.7158710123
   92      C       1.6451609071     3.4446118799     0.4680954563
   93      H       0.8231341235     2.7840775265     0.7441078880
   94      H       2.1472909576     3.7541798120     1.3858376513
   95      H       1.2141719659     4.3329090779     0.0051627750
   96      C      -2.6739647800     0.3298622346    -3.0032830616
   97      C      -3.5271239608    -0.7538965174    -3.2571803472
   98      C      -4.7335200276    -0.5691827573    -3.9218662716
   99      H      -5.3861268527    -1.4197348593    -4.0873452910
  100      C      -5.1144479262     0.6859428261    -4.3798392945
  101      C      -4.2657802002     1.7632931984    -4.1509072069
  102      H      -4.5396080544     2.7491462330    -4.5107219794
  103      C      -3.0707337588     1.5971318254    -3.4605940095
  104      N      -6.3346222039     0.8527019321    -5.0627566920
  105      C      -7.1188292465     1.9974304422    -4.8470228367
  106      C      -7.7214777415     2.6601142030    -5.9167443491
  107      H      -7.5761716342     2.2970891999    -6.9262240065
  108      C      -8.5047028205     3.7816440987    -5.6939295639
  109      H      -8.9638379097     4.2824384193    -6.5368552425
  110      C      -8.6868441483     4.2730048539    -4.4085450063
  111      H      -9.2927017329     5.1531540723    -4.2386925551
  112      C      -8.0816660407     3.6192703558    -3.3432537874
  113      H      -8.2196767748     3.9843823938    -2.3334815769
  114      C      -7.3127899098     2.4864553047    -3.5546204059
  115      H      -6.8576873760     1.9774865015    -2.7144014396
  116      C      -6.7403352787    -0.0981505440    -6.0167184342
  117      C      -8.0649070275    -0.5344758730    -6.0560065186
  118      H      -8.7786320321    -0.1476183256    -5.3395125510
  119      C      -8.4707000473    -1.4556254307    -7.0086614328
  120      H      -9.5029798301    -1.7814475145    -7.0265444336
  121      C      -7.5620401218    -1.9724326102    -7.9222617077
  122      H      -7.8799059905    -2.6968668430    -8.6604760612
  123      C      -6.2403697619    -1.5498622392    -7.8767094307
  124      H      -5.5220177632    -1.9397171302    -8.5866220276
  125      C      -5.8308070939    -0.6141322891    -6.9397274924
  126      H      -4.8012933036    -0.2799135076    -6.9229987566
  127      C      -3.1483725076    -2.1592288068    -2.8668198245
  128      H      -2.4638527785    -2.1483591325    -2.0158332783
  129      H      -4.0379642449    -2.7019458393    -2.5349770690
  130      C      -2.2528501665     2.8278009153    -3.1692045379
  131      H      -1.1987949732     2.5682904432    -3.0497457051
  132      H      -2.3019345795     3.5132443872    -4.0199648500
  133      C      -2.5047515848    -2.9162710654    -4.0267701340
  134      H      -1.5906948416    -2.4216421499    -4.3573070205
  135      H      -2.2458878138    -3.9355801065    -3.7371681901
  136      H      -3.1809760548    -2.9722794947    -4.8814066854
  137      C      -2.7441094670     3.5449046343    -1.9140546189
  138      H      -2.6890784351     2.8890511007    -1.0443576854
  139      H      -2.1415122184     4.4299110389    -1.7043464368
  140      H      -3.7816733773     3.8642058260    -2.0255742689
 ----------------------------------------------------------------
 Nuclear Repulsion Energy = 12125.5148994232 hartrees
 There are      271 alpha and      269 beta electrons
 Discretize the solute cavity surface with Lebedev spheres
	Using 302 Lebedev grid points for each H atom
	Using 302 Lebedev grid points for other atoms
	Atomic van der Waals radii will be scaled by 1.20
 Remove points where switching function is < 1.0e-08
 Keep 14652 surface tesserae and discard 27628 interior tesserae
 Molecular Surface Area = 1078.115 Angst**2
 Nucleus-field energy     =    -0.0000000522 hartrees
 Requested basis set is def2-mSVP
 There are 680 shells and 1320 basis functions
 A cutoff of  1.0D-11 yielded  62658 shell pairs
 There are    243436 function pairs (    267698 Cartesian)
 Smallest overlap matrix eigenvalue = 1.97E-04
 Guess MOs from SCF MO coefficient file
 Reading MOs from coefficient file
 Reading MOs from coefficient file
 An unrestricted hybrid HF-DFT SCF calculation will be
 performed using Pulay DIIS extrapolation
 Polarizable Continuum solvation model will be applied
 Exchange:     0.4200 Hartree-Fock + 0.5800 PBEh-3c
 Correlation:  1.0000 PBEh-3c
 Using SG-1 standard quadrature grid
 Dispersion:   Grimme D3
 SCF converges when DIIS error is below 1.0E-08
 Geometry optimization detected.  Setting ReadMinima to 0
 Setting SaveMinima to 0
 using 8 threads for integral computing
 -------------------------------------------------------
 OpenMP Integral computing Module                
 Release: version 1.0, May 2013, Q-Chem Inc. Pittsburgh 
 -------------------------------------------------------
 ---------------------------------------
  Cycle       Energy         DIIS Error
 ---------------------------------------
    1   -3084.5099442286      8.99E-04
 Using non-symmetric K matrix
    2   -3084.6336722073      5.42E-04
    3   -3084.6211744246      7.08E-04
    4   -3084.7353564045      2.05E-04
    5   -3084.7435058559      1.31E-04
    6   -3084.7480621058      4.46E-05
    7   -3084.7486549115      1.80E-05
    8   -3084.7488285034      5.63E-06
    9   -3084.7488609223      2.50E-06
   10   -3084.7488753651      1.27E-06
   11   -3084.7488823999      6.15E-07
