mFile = /cm/shared/apps/q-chem/intel/QCHEM_5.0.1_Trunk/bin/mpi/machines
Process 0 of 1 is on ctcp011 - thread support 0
initial socket setup ...start
initial socket setup ...done 
now start server 0 ... 
ctcp011.cm.cluster 10.141.0
Q-Chem Developer Version! Running on 10.141.0.*
                  Welcome to Q-Chem
     A Quantum Leap Into The Future Of Chemistry


 Q-Chem 5.0, Q-Chem, Inc., Pleasanton, CA (2017)

 Yihan Shao,  Zhengting Gan,  E. Epifanovsky,  A. T. B. Gilbert,  M. Wormit,  
 J. Kussmann,  A. W. Lange,  A. Behn,  Jia Deng,  Xintian Feng,  D. Ghosh,  
 M. Goldey,  P. R. Horn,  L. D. Jacobson,  I. Kaliman,  T. Kus,  A. Landau,  
 Jie Liu,  E. I. Proynov,  R. M. Richard,  R. P. Steele,  E. J. Sundstrom,  
 H. L. Woodcock III,  P. M. Zimmerman,  D. Zuev,  B. Albrecht,  E. Alguire,  
 S. A. Baeppler,  Z. Benda,  Y. A. Bernard,  E. J. Berquist,  K. B. Bravaya,  
 D. Casanova,  Chun-Min Chang,  Yunqing Chen,  A. Chien,  K. D. Closser,  
 M. P. Coons,  S. Dasgupta,  M. Diedenhofen,  Hainam Do,  R. G. Edgar,  
 Po-Tung Fang,  S. Fatehi,  Qingguo Feng,  Qinghui Ge,  A. Ghysels,  
 J. Gomes,  J. Gonthier,  A. Gunina,  M. W. D. Hanson-Heine,  
 P. H. P. Harbach,  A. W. Hauser,  J. E. Herr,  E. G. Hohenstein,  
 Z. C. Holden,  Kerwin Hui,  T.-C. Jagau,  Hyunjun Ji,  B. Kaduk,  
 K. Khistyaev,  Jaehoon Kim,  P. Klunzinger,  K. Koh,  D. Kosenkov,  
 T. Kowalczyk,  C. M. Krauter,  A. Kunitsa,  Ka Un Lao,  A. Laurent,  
 K. V. Lawler,  Joonho Lee,  D. Lefrancois,  S. Lehtola,  D. S. Levine,  
 Yi-Pei Li,  You-Sheng Lin,  Fenglai Liu,  E. Livshits,  A. Luenser,  
 P. Manohar,  E. Mansoor,  S. F. Manzer,  Shan-Ping Mao,  Yuezhi Mao,  
 N. Mardirossian,  A. V. Marenich,  L. A. Martinez-Martinez,  S. A. Maurer,  
 N. J. Mayhall,  S. C. McKenzie,  J.-M. Mewes,  A. F. Morrison,  K. Nanda,  
 T. S. Nguyen-Beck,  R. Olivares-Amaya,  J. A. Parkhill,  T. M. Perrine,  
 F. Plasser,  S. Prager,  A. Prociuk,  D. R. Rehn,  F. Rob,  M. Schneider,  
 N. Sergueev,  S. M. Sharada,  S. Sharma,  D. W. Small,  T. Stauch,  
 T. Stein,  Yu-Chuan Su,  A. J. W. Thom,  T. Tsuchimochi,  L. Vogt,  
 O. Vydrov,  M. A. Watson,  J. Wenzel,  M. de Wergifosse,  T. A. Wesolowski,  
 A. White,  J. Witte,  A. Yamada,  Jun Yang,  K. Yao,  S. Yeganeh,  
 S. R. Yost,  Zhi-Qiang You,  A. Zech,  Igor Ying Zhang,  Xing Zhang,  
 Yan Zhao,  Ying Zhu,  B. R. Brooks,  G. K. L. Chan,  C. J. Cramer,  
 M. S. Gordon,  W. J. Hehre,  A. Klamt,  M. W. Schmidt,  C. D. Sherrill,  
 D. G. Truhlar,  A. Aspuru-Guzik,  R. Baer,  A. T. Bell,  N. A. Besley,  
 Jeng-Da Chai,  A. Dreuw,  B. D. Dunietz,  T. R. Furlani,  Chao-Ping Hsu,  
 Yousung Jung,  Jing Kong,  D. S. Lambrecht,  WanZhen Liang,  C. Ochsenfeld,  
 V. A. Rassolov,  L. V. Slipchenko,  J. E. Subotnik,  T. Van Voorhis,  
 J. M. Herbert,  A. I. Krylov,  P. M. W. Gill,  M. Head-Gordon

 Contributors to earlier versions of Q-Chem not listed above: 
 R. D. Adamson,  B. Austin,  J. Baker,  G. J. O. Beran,  K. Brandhorst,  
 S. T. Brown,  E. F. C. Byrd,  A. K. Chakraborty,  C.-L. Cheng,  
 Siu Hung Chien,  D. M. Chipman,  D. L. Crittenden,  H. Dachsel,  
 R. A. DiStasio Jr.,  R. J. Doerksen,  A. D. Dutoi,  L. Fusti-Molnar,  
 W. A. Goddard III,  A. Golubeva-Zadorozhnaya,  S. R. Gwaltney,  G. Hawkins,  
 A. Heyden,  S. Hirata,  G. Kedziora,  F. J. Keil,  C. Kelley,  Jihan Kim,  
 R. A. King,  R. Z. Khaliullin,  P. P. Korambath,  W. Kurlancheek,  
 A. M. Lee,  M. S. Lee,  S. V. Levchenko,  Ching Yeh Lin,  D. Liotard,  
 R. C. Lochan,  I. Lotan,  P. E. Maslen,  N. Nair,  D. P. O'Neill,  
 D. Neuhauser,  E. Neuscamman,  C. M. Oana,  R. Olson,  B. Peters,  
 R. Peverati,  P. A. Pieniazek,  Y. M. Rhee,  J. Ritchie,  M. A. Rohrdanz,  
 E. Rosta,  N. J. Russ,  H. F. Schaefer III,  N. E. Schultz,  N. Shenvi,  
 A. C. Simmonett,  A. Sodt,  D. Stuck,  K. S. Thanthiriwatte,  V. Vanovschi,  
 Tao Wang,  A. Warshel,  C. F. Williams,  Q. Wu,  X. Xu,  W. Zhang

 Please cite Q-Chem as follows:
 Y. Shao et al., Mol. Phys. 113, 184-215 (2015)
 DOI: 10.1080/00268976.2014.952696

 Q-Chem 5.0.1 for Intel X86 EM64T Linux

 Parts of Q-Chem use Armadillo 5.200.1 (Boston Tea Smuggler).
 http://arma.sourceforge.net/

 Q-Chem begins on Thu Nov  1 09:32:49 2018  

Host: ctcp011
0

     Scratch files written to /scratch/mewes/139235/qchem32534//
 Parallel job on  1  processors
The previous job contains 0 fragments, simply inherited here
Symmetry turned off for PCM/SM12/SMD calculation

Checking the input file for inconsistencies... 	...done.

--------------------------------------------------------------
User input:
--------------------------------------------------------------
$rem
threads 8
jobtype opt
method PBEh-3c
basis def2-mSVP
mem_static      1024
mem_total       8000
sym_ignore      true
unrestricted true
scf_algorithm   diis
scf_max_cycles  250
solvent_method  pcm
geom_opt_tol_energy 25
geom_opt_tol_gradient 75
$end

$pcm
theory  iefpcm
$end

$solvent
dielectric      2.03
$end

$molecule
read utLEincoords.mol
$end

--------------------------------------------------------------
 Adding empirical dispersion correction 
 ----------------------------------------------------------------
 Doing -D3(BJ) with
 s6 =   1.00000
 s8 =   0.00000
 a1 =   0.48600
 a2 =   4.50000
 -D3 energy including 3body term =     -0.1345407984 hartrees
 ----------------------------------------------------------------
 Adding gCP correction 
 ----------------------------------------------------------------
 gCP energy =      0.1914087897 hartrees
 ----------------------------------------------------------------
             Standard Nuclear Orientation (Angstroms)
    I     Atom           X                Y                Z
 ----------------------------------------------------------------
    1      C       0.0000000000     0.0000000000     0.0000000000
    2      C       0.0000000000     0.0000000000     1.4086440000
    3      H       0.9465140947     0.0000000000     1.9370948439
    4      C      -1.1827195111     0.0101483171     2.1034642064
    5      C      -2.4395600856     0.0444011549     1.3804525546
    6      C      -2.4597568071     0.0639578311     0.0067382011
    7      H      -3.4040186173     0.1092412241    -0.5246512123
    8      C      -1.2640829020     0.0321412064    -0.7163724067
    9      C      -3.5155733716     0.0664365744     2.3422116813
   10      C      -4.8896133081     0.1004965996     2.2599248921
   11      H      -5.4038216475     0.1178372906     1.3072263662
   12      C      -5.6319273761     0.1113929080     3.4572880044
   13      H      -6.7122887927     0.1382724321     3.3977963329
   14      C      -5.0321082001     0.0881823038     4.6978747930
   15      H      -5.6451032478     0.0972813180     5.5906973325
   16      C      -2.9064727108     0.0436418892     3.6158870825
   17      C      -3.6203513904     0.0529060718     4.8106529393
   18      C      -1.4977847436     0.0089810033     3.5240780820
   19      C      -0.7731873740    -0.0196604274     4.6907926912
   20      H       0.3087351888    -0.0497328398     4.6896709092
   21      C      -1.4716069394    -0.0103339913     5.9178729374
   22      H      -0.8995204986    -0.0324612809     6.8360545784
   23      C      -2.8460335457     0.0245698436     5.9936971674
   24      H      -3.3334560865     0.0294505104     6.9607691039
   25      B      -1.3016761945     0.0674835979    -2.2515725527
   26      B       1.3297322971     0.0146675085    -0.7702529784
   27      C       1.3010041041    -0.0733051781    -2.3042389294
   28      C       2.5024650855    -0.1611113632    -3.0331377263
   29      H       3.4448852537    -0.1678807337    -2.4967892281
   30      C       2.4807113597    -0.2361316642    -4.4046241997
   31      C       3.5236111417    -0.3445812620    -5.4096597426
   32      C       4.8954489314    -0.4200239364    -5.3948020992
   33      H       5.4576283248    -0.4040921323    -4.4701071172
   34      C       5.5747930246    -0.5225129347    -6.6274024837
   35      H       6.6550379328    -0.5829560103    -6.6158735223
   36      C       4.9223285439    -0.5495880366    -7.8403071280
   37      H       5.4927512544    -0.6294795152    -8.7572039517
   38      C       2.8672126016    -0.3744137774    -6.6605365589
   39      C       3.5106335333    -0.4742162757    -7.8889693044
   40      C       1.4639532951    -0.2917376459    -6.5174736979
   41      C       0.6730537454    -0.3064205132    -7.6447305626
   42      H      -0.4061903788    -0.2436002407    -7.5847959976
   43      C       1.3042424534    -0.4054840225    -8.8990552857
   44      H       0.6898331615    -0.4172500083    -9.7899557317
   45      C       2.6743489500    -0.4879741310    -9.0327780043
   46      H       3.1119711186    -0.5634152313   -10.0204303008
   47      C       1.2065994792    -0.2066311726    -5.1037970207
   48      C       0.0237743410    -0.1077400311    -4.4082770703
   49      H      -0.9216441344    -0.0721343498    -4.9384000410
   50      C       0.0281586691    -0.0478443317    -3.0132852095
   51      C       2.6846859152     0.1935143113     0.0056519778
   52      C       3.3156778425    -0.8709009115     0.6651871070
   53      C       4.5041980291    -0.6632080170     1.3537052754
   54      H       4.9954287008    -1.4965102331     1.8437314071
   55      C       5.0704763003     0.6042657188     1.4259551118
   56      C       4.4371718923     1.6635285942     0.7883442442
   57      H       4.8659193843     2.6573638200     0.8497646421
   58      C       3.2648934448     1.4687287242     0.0723480041
   59      N       6.2699241518     0.8180220561     2.1319803417
   60      C       6.4299204752     0.2819064379     3.4175302228
   61      C       7.6684803053    -0.2080621913     3.8299937434
   62      H       8.5105067534    -0.1753445636     3.1507578410
   63      C       7.8204407114    -0.7384347707     5.0997273344
   64      H       8.7882177685    -1.1160673748     5.4033904251
   65      C       6.7434873616    -0.8080264713     5.9716768925
   66      H       6.8647037056    -1.2324260970     6.9591614893
   67      C       5.5093652870    -0.3268037890     5.5603373277
   68      H       4.6609211407    -0.3664890601     6.2313782513
   69      C       5.3515296989     0.2236231753     4.2999598792
   70      H       4.3876885467     0.6084472645     3.9923584225
   71      C       7.2362725381     1.6813745840     1.5921032240
   72      C       7.8604973332     2.6423409636     2.3854599753
   73      H       7.6037905428     2.7236905093     3.4339499660
   74      C       8.8005082373     3.4982742118     1.8354139165
   75      H       9.2737717661     4.2401232203     2.4656073163
   76      C       9.1186813694     3.4262664379     0.4876622972
   77      H       9.8453981128     4.1033469366     0.0593562048
   78      C       8.4909312904     2.4766084082    -0.3056899378
   79      H       8.7309676863     2.4060267533    -1.3587884595
   80      C       7.5651295520     1.6039429078     0.2389860867
   81      H       7.0836252282     0.8630946787    -0.3863742837
   82      C       2.7536794762    -2.2671293813     0.5816601933
   83      H       3.0346675831    -2.8286679529     1.4761922974
   84      H       1.6609068616    -2.2345508806     0.5780786200
   85      C       2.6023750090     2.6684536578    -0.5598255877
   86      H       2.1096225832     2.3849370609    -1.4931222774
   87      H       3.3667355152     3.3987081328    -0.8374035725
   88      C       3.2330107824    -3.0191246855    -0.6575196207
   89      H       2.9161760457    -2.5184207446    -1.5725922727
   90      H       4.3210127781    -3.0897514379    -0.6767781939
   91      H       2.8297243209    -4.0320701458    -0.6808926863
   92      C       1.5838405342     3.3371618084     0.3618400515
   93      H       0.7725381704     2.6569359583     0.6205832036
   94      H       2.0499516775     3.6641944580     1.2919617799
   95      H       1.1407966814     4.2119558403    -0.1162445663
   96      C      -2.6671865672     0.2724229810    -3.0154814451
   97      C      -3.5553570840    -0.7836295740    -3.2642501898
   98      C      -4.7646663439    -0.5544569184    -3.9083277950
   99      H      -5.4459320467    -1.3814075562    -4.0742499663
  100      C      -5.1090033588     0.7172004240    -4.3515203307
  101      C      -4.2252875692     1.7645097653    -4.1225621720
  102      H      -4.4754183132     2.7614514714    -4.4683658081
  103      C      -3.0304105195     1.5571700467    -3.4479378042
  104      N      -6.3257323260     0.9377402734    -5.0216625963
  105      C      -7.0452789871     2.1278847123    -4.8248141623
  106      C      -7.6221447324     2.7917534575    -5.9070025295
  107      H      -7.5076870713     2.3909215051    -6.9058516469
  108      C      -8.3403886751     3.9594486670    -5.7105399275
  109      H      -8.7808538794     4.4597949249    -6.5633250384
  110      C      -8.4810335625     4.4974756851    -4.4401073185
  111      H      -9.0355431573     5.4142117315    -4.2911330003
  112      C      -7.9001771744     3.8441854137    -3.3627292004
  113      H      -8.0059236670     4.2473034908    -2.3637618699
  114      C      -7.1973605874     2.6652895798    -3.5466594390
  115      H      -6.7589084826     2.1577084861    -2.6972613236
  116      C      -6.7900289279     0.0019622066    -5.9618042434
  117      C      -8.1372958898    -0.3534645488    -5.9865902387
  118      H      -8.8179814756     0.0835049414    -5.2671668458
  119      C      -8.6057400478    -1.2526251701    -6.9294694778
  120      H      -9.6557696580    -1.5149750387    -6.9374535710
  121      C      -7.7383072849    -1.8270538826    -7.8470715593
  122      H      -8.1056453474    -2.5340770419    -8.5787233224
  123      C      -6.3944777797    -1.4840269191    -7.8161495759
  124      H      -5.7082451271    -1.9187604829    -8.5313535439
  125      C      -5.9211084068    -0.5700100600    -6.8892123019
  126      H      -4.8747341913    -0.2933394873    -6.8828682295
  127      C      -3.2117061368    -2.2020553596    -2.8918080063
  128      H      -2.5159116853    -2.2217154972    -2.0496189791
  129      H      -4.1117601676    -2.7212580259    -2.5513048985
  130      C      -2.1756413128     2.7617230824    -3.1468827586
  131      H      -1.1267661383     2.4756403638    -3.0393011780
  132      H      -2.2106414824     3.4569287898    -3.9901250436
  133      C      -2.6072928547    -2.9642527578    -4.0687181617
  134      H      -1.6834895490    -2.4943617025    -4.4071293506
  135      H      -2.3749427014    -3.9938718824    -3.7948274124
  136      H      -3.2967469709    -2.9890150299    -4.9137512046
  137      C      -2.6376970365     3.4805349007    -1.8812364001
  138      H      -2.5952683321     2.8176609219    -1.0164868054
  139      H      -2.0092870167     4.3463524818    -1.6691712170
  140      H      -3.6661709763     3.8299919579    -1.9819245959
 ----------------------------------------------------------------
 Nuclear Repulsion Energy = 12123.0290427773 hartrees
 There are      271 alpha and      269 beta electrons
 Requested basis set is def2-mSVP
 There are 680 shells and 1320 basis functions

 Total QAlloc Memory Limit   8000 MB
 Mega-Array Size      1001 MB
 MEM_STATIC part      1024 MB
 Discretize the solute cavity surface with Lebedev spheres
	Using 302 Lebedev grid points for each H atom
	Using 302 Lebedev grid points for other atoms
	Atomic van der Waals radii will be scaled by 1.20
 Remove points where switching function is < 1.0e-08
 Keep 14680 surface tesserae and discard 27600 interior tesserae
 Molecular Surface Area = 1080.580 Angst**2
 A cutoff of  1.0D-11 yielded  62623 shell pairs
 There are    243259 function pairs (    267511 Cartesian)
 
 -------------------------------------------------------
 OpenMP Integral Computing Module                       
 Release: version 1.0, May 2013, Q-Chem Inc. Pittsburgh 
 -------------------------------------------------------
 Integral Job Info:
 Integral job number is                      11
 Integral operator is                         1
 short-range coefficients                     0
 long-range coefficients              100000000
 Omega coefficients                           0
 if combine SR and LR in K                    0
 Integral screening is                        0
 Integral computing path is                   2
 max size of driver memory is            800000
 size of driver memory is                593474
 size of scratch memory is              1809772
 max col of scratch BK array               1296
 max len of scratch array in speh3          155
 max len of scratch index in speh4           18
 max int batch size is                      520
 min int batch size is                       52
 fixed nKL is                                52
 max L of basis functions is                  2
 order of int derivative is                   0
 number of shells is                        680
 number of basis is                        1400
 number of cartesian basis is              1400
 number of contracted shell pairs         62623
 number of primitive shell pairs         129344
 maxK2 (contraction) of shell pair           25
 max number of K2 of shell pair               1
 max number of CS2 of shell pair          15484
 max number of PS2 of shell pair          22635
 mem total for path MDJ                  628152
 -------------------------------------------------------
 Smallest overlap matrix eigenvalue = 2.01E-04

 Scale SEOQF with 1.000000e-02/1.000000e-02/1.000000e-02

 Standard Electronic Orientation quadrupole field applied
 Nucleus-field energy     =    -0.0000000539 hartrees
 Guess from superposition of atomic densities
 Warning:  Energy on first SCF cycle will be non-variational
 An unrestricted hybrid HF-DFT SCF calculation will be
 performed using Pulay DIIS extrapolation
 Polarizable Continuum solvation model will be applied
 Exchange:     0.4200 Hartree-Fock + 0.5800 PBEh-3c
 Correlation:  1.0000 PBEh-3c
 Using SG-1 standard quadrature grid
 Dispersion:   Grimme D3
 SCF converges when DIIS error is below 1.0E-08
 using 8 threads for integral computing
 -------------------------------------------------------
 OpenMP Integral computing Module                
 Release: version 1.0, May 2013, Q-Chem Inc. Pittsburgh 
 -------------------------------------------------------
 ---------------------------------------
  Cycle       Energy         DIIS Error
 ---------------------------------------
    1   -3111.8830659521      2.31E-02
 Using non-symmetric K matrix
    2   -3083.9645684341      1.69E-03
    3   -3083.2907787560      2.20E-03
    4   -3084.4132957309      1.01E-03
    5   -3084.6976091123      1.82E-04
    6   -3084.7055478188      1.32E-04
    7   -3084.7103473784      4.33E-05
    8   -3084.7110730162      1.39E-05
    9   -3084.7113782993      7.26E-06
   10   -3084.7115192564      4.58E-06
   11   -3084.7116150373      1.92E-06
   12   -3084.7116530398      1.17E-06
   13   -3084.7116675668      6.56E-07
   14   -3084.7116769062      4.66E-07
   15   -3084.7116812369      2.64E-07
   16   -3084.7116838838      1.36E-07
   17   -3084.7116851967      1.04E-07
   18   -3084.7116861900      7.54E-08
   19   -3084.7116865234      4.95E-08
   20   -3084.7116867428      2.10E-08
   21   -3084.7116867886      1.03E-08
   22   -3084.7116867990      7.92E-09 Convergence criterion met
 ---------------------------------------

************** Final PCM Free Energy Summary **************
 G_electrostatic  =      -0.02538028 hartree =     -15.92636485 kcal/mol
 G_cavitation     =       0.00000000 hartree =       0.00000000 kcal/mol
 G_dispersion     =       0.00000000 hartree =       0.00000000 kcal/mol
 G_repulsion      =       0.00000000 hartree =       0.00000000 kcal/mol
 --------------------------------------------------
 Non-electrostatic Free Energy =       0.00000000 hartree =       0.00000000 kcal/mol
 Total                         =      -0.02538028 hartree =     -15.92636485 kcal/mol
 --------------------------------------------------
 SCF Energy (H0 + V/2)                       =   -3084.71168680 
 Solute Internal Energy (H0)                 =   -3084.68630652 
 Total Free Energy (H0 + V/2 + non-elec)     =   -3084.71168680 hartree
                                             = -1935685.79877073 kcal/mol
***********************************************************

 <S^2> = 2.0769
 SCF time:  CPU 16966.07 s  wall 5964.61 s
 SCF   energy in the final basis set = -3084.71168680
 Total energy in the final basis set = -3084.71168680
 
 --------------------------------------------------------------
 
                    Orbital Energies (a.u.)
 --------------------------------------------------------------
 
 Alpha MOs
 -- Occupied --
-14.781 -14.656 -10.544 -10.543 -10.538 -10.498 -10.498 -10.498
-10.497 -10.492 -10.492 -10.489 -10.489 -10.488 -10.487 -10.481
-10.480 -10.480 -10.479 -10.478 -10.477 -10.465 -10.458 -10.446
-10.445 -10.445 -10.444 -10.443 -10.443 -10.443 -10.442 -10.442
-10.442 -10.441 -10.440 -10.440 -10.440 -10.440 -10.439 -10.439
-10.439 -10.439 -10.438 -10.438 -10.438 -10.438 -10.437 -10.435
-10.435 -10.434 -10.434 -10.433 -10.433 -10.433 -10.432 -10.429
-10.428 -10.428 -10.428 -10.428 -10.427 -10.427 -10.427 -10.422
-10.421 -10.421 -10.419 -10.415 -10.414 -10.412 -10.412 -10.405
-10.405 -10.402 -10.402 -10.398 -10.398 -10.396  -6.898  -6.890
 -1.163  -1.066  -1.012  -1.006  -0.992  -0.991  -0.985  -0.950
 -0.944  -0.933  -0.931  -0.925  -0.914  -0.914  -0.910  -0.907
 -0.902  -0.885  -0.884  -0.879  -0.871  -0.868  -0.855  -0.849
 -0.840  -0.833  -0.832  -0.829  -0.828  -0.828  -0.827  -0.827
 -0.824  -0.806  -0.793  -0.790  -0.789  -0.780  -0.774  -0.772
 -0.761  -0.756  -0.733  -0.726  -0.724  -0.711  -0.709  -0.709
 -0.708  -0.701  -0.695  -0.693  -0.684  -0.681  -0.680  -0.671
 -0.667  -0.663  -0.662  -0.655  -0.653  -0.646  -0.642  -0.628
 -0.625  -0.619  -0.618  -0.612  -0.607  -0.596  -0.595  -0.592
 -0.586  -0.575  -0.574  -0.572  -0.567  -0.566  -0.561  -0.560
 -0.553  -0.553  -0.549  -0.546  -0.541  -0.540  -0.539  -0.528
 -0.528  -0.525  -0.519  -0.519  -0.513  -0.511  -0.509  -0.506
 -0.505  -0.501  -0.497  -0.495  -0.489  -0.488  -0.487  -0.486
 -0.485  -0.480  -0.477  -0.477  -0.476  -0.473  -0.472  -0.471
 -0.470  -0.469  -0.465  -0.465  -0.465  -0.464  -0.463  -0.462
 -0.458  -0.457  -0.457  -0.451  -0.449  -0.448  -0.448  -0.442
 -0.441  -0.437  -0.434  -0.433  -0.432  -0.423  -0.422  -0.420
 -0.415  -0.414  -0.413  -0.411  -0.410  -0.408  -0.405  -0.403
 -0.403  -0.402  -0.394  -0.393  -0.391  -0.389  -0.388  -0.383
 -0.383  -0.381  -0.379  -0.378  -0.378  -0.374  -0.371  -0.370
 -0.367  -0.364  -0.353  -0.349  -0.348  -0.347  -0.345  -0.344
 -0.340  -0.338  -0.331  -0.324  -0.312  -0.312  -0.308  -0.302
 -0.295  -0.295  -0.289  -0.285  -0.283  -0.280  -0.279  -0.268
 -0.258  -0.254  -0.246  -0.235  -0.225  -0.206  -0.142
 -- Virtual --
 -0.051  -0.042  -0.036  -0.034  -0.022  -0.017  -0.012  -0.003
  0.009   0.015   0.016   0.017   0.024   0.027   0.038   0.039
  0.049   0.060   0.073   0.089   0.106   0.106   0.107   0.109
  0.114   0.125   0.137   0.139   0.142   0.148   0.153   0.155
  0.158   0.159   0.163   0.166   0.170   0.172   0.173   0.174
  0.175   0.175   0.177   0.180   0.182   0.184   0.185   0.189
  0.192   0.193   0.195   0.196   0.198   0.201   0.202   0.203
  0.205   0.208   0.210   0.211   0.212   0.213   0.214   0.215
  0.215   0.216   0.219   0.220   0.221   0.222   0.223   0.224
  0.227   0.228   0.229   0.231   0.233   0.234   0.236   0.239
  0.240   0.245   0.246   0.248   0.249   0.249   0.250   0.252
  0.253   0.255   0.255   0.256   0.258   0.262   0.263   0.265
  0.268   0.269   0.271   0.272   0.273   0.275   0.280   0.283
  0.286   0.288   0.288   0.290   0.292   0.293   0.295   0.296
  0.299   0.300   0.301   0.307   0.308   0.308   0.310   0.311
  0.319   0.320   0.322   0.324   0.327   0.329   0.330   0.332
  0.333   0.337   0.338   0.340   0.342   0.345   0.349   0.350
  0.353   0.360   0.364   0.367   0.369   0.372   0.375   0.376
  0.385   0.387   0.391   0.400   0.403   0.404   0.408   0.411
  0.418   0.421   0.422   0.428   0.430   0.434   0.438   0.443
  0.448   0.454   0.455   0.462   0.463   0.469   0.470   0.471
  0.475   0.476   0.479   0.481   0.483   0.484   0.487   0.492
  0.497   0.504   0.506   0.507   0.509   0.512   0.513   0.514
  0.517   0.522   0.524   0.525   0.528   0.528   0.532   0.533
  0.535   0.536   0.539   0.543   0.544   0.545   0.547   0.550
  0.551   0.554   0.557   0.558   0.559   0.561   0.562   0.563
  0.565   0.567   0.568   0.571   0.573   0.575   0.576   0.577
  0.578   0.579   0.580   0.582   0.583   0.584   0.585   0.586
  0.587   0.589   0.592   0.593   0.596   0.598   0.601   0.603
  0.604   0.606   0.606   0.607   0.607   0.608   0.608   0.609
  0.610   0.611   0.613   0.614   0.616   0.617   0.618   0.620
  0.621   0.624   0.626   0.627   0.629   0.630   0.634   0.635
  0.637   0.637   0.638   0.639   0.640   0.641   0.642   0.643
  0.644   0.645   0.647   0.647   0.650   0.653   0.654   0.659
  0.659   0.661   0.662   0.664   0.665   0.666   0.668   0.670
  0.670   0.673   0.675   0.676   0.677   0.680   0.683   0.684
  0.686   0.689   0.691   0.694   0.696   0.697   0.699   0.705
  0.708   0.709   0.710   0.716   0.719   0.719   0.721   0.722
  0.723   0.725   0.729   0.733   0.734   0.737   0.741   0.743
  0.746   0.751   0.754   0.757   0.759   0.760   0.766   0.769
  0.770   0.772   0.777   0.779   0.783   0.785   0.789   0.789
  0.794   0.794   0.796   0.799   0.804   0.807   0.808   0.812
  0.817   0.818   0.820   0.826   0.829   0.836   0.839   0.841
  0.844   0.851   0.855   0.857   0.866   0.869   0.875   0.877
  0.880   0.883   0.886   0.893   0.900   0.905   0.906   0.908
  0.911   0.913   0.916   0.917   0.921   0.923   0.925   0.926
  0.931   0.933   0.933   0.934   0.937   0.938   0.943   0.946
  0.952   0.954   0.954   0.963   0.964   0.965   0.966   0.968
  0.968   0.969   0.974   0.975   0.975   0.976   0.977   0.981
  0.984   0.986   0.988   0.990   0.999   0.999   1.001   1.003
  1.004   1.005   1.005   1.008   1.010   1.012   1.016   1.017
  1.019   1.019   1.020   1.021   1.025   1.027   1.034   1.035
  1.038   1.039   1.040   1.041   1.043   1.047   1.049   1.053
  1.053   1.057   1.057   1.059   1.059   1.061   1.067   1.068
  1.069   1.071   1.074   1.076   1.078   1.082   1.084   1.088
  1.088   1.090   1.091   1.092   1.098   1.098   1.103   1.104
  1.105   1.107   1.110   1.113   1.115   1.118   1.125   1.128
  1.132   1.137   1.138   1.142   1.145   1.145   1.146   1.152
  1.154   1.157   1.159   1.162   1.164   1.167   1.168   1.171
  1.174   1.178   1.180   1.183   1.187   1.189   1.193   1.196
  1.199   1.206   1.208   1.210   1.215   1.218   1.221   1.222
  1.226   1.235   1.238   1.239   1.241   1.244   1.252   1.254
  1.258   1.271   1.272   1.273   1.276   1.277   1.281   1.282
  1.284   1.287   1.292   1.294   1.300   1.302   1.303   1.307
  1.310   1.313   1.318   1.318   1.322   1.325   1.329   1.331
  1.332   1.333   1.339   1.341   1.347   1.352   1.355   1.359
  1.361   1.366   1.370   1.372   1.378   1.381   1.390   1.395
  1.395   1.398   1.400   1.404   1.406   1.409   1.414   1.417
  1.424   1.427   1.430   1.431   1.435   1.436   1.444   1.448
  1.454   1.459   1.460   1.460   1.462   1.463   1.466   1.471
  1.486   1.487   1.491   1.495   1.496   1.500   1.503   1.505
  1.512   1.512   1.517   1.521   1.522   1.524   1.526   1.530
  1.530   1.536   1.537   1.540   1.543   1.548   1.549   1.550
  1.550   1.552   1.557   1.560   1.561   1.562   1.564   1.568
  1.572   1.576   1.578   1.580   1.580   1.582   1.589   1.591
  1.594   1.597   1.600   1.604   1.609   1.614   1.617   1.618
  1.623   1.634   1.637   1.637   1.651   1.659   1.661   1.668
  1.679   1.685   1.689   1.695   1.703   1.709   1.714   1.722
  1.733   1.737   1.754   1.758   1.761   1.763   1.765   1.774
  1.776   1.777   1.781   1.792   1.795   1.802   1.803   1.808
  1.813   1.817   1.822   1.824   1.826   1.830   1.832   1.833
  1.834   1.835   1.841   1.842   1.843   1.844   1.848   1.850
  1.852   1.863   1.866   1.872   1.882   1.883   1.890   1.897
  1.903   1.906   1.910   1.912   1.916   1.922   1.930   1.933
  1.934   1.941   1.941   1.942   1.947   1.949   1.952   1.955
  1.961   1.964   1.964   1.974   1.983   1.988   1.992   1.994
  1.999   2.001   2.003   2.003   2.009   2.014   2.025   2.027
  2.028   2.032   2.035   2.037   2.041   2.047   2.050   2.053
  2.057   2.067   2.071   2.075   2.081   2.083   2.087   2.089
  2.092   2.093   2.098   2.099   2.104   2.106   2.107   2.118
  2.122   2.129   2.131   2.132   2.137   2.141   2.144   2.146
  2.149   2.152   2.155   2.160   2.163   2.164   2.168   2.169
  2.171   2.176   2.177   2.178   2.179   2.183   2.188   2.191
  2.196   2.204   2.208   2.212   2.215   2.218   2.220   2.220
  2.221   2.223   2.227   2.232   2.233   2.238   2.248   2.250
  2.251   2.253   2.262   2.265   2.268   2.270   2.273   2.277
  2.281   2.282   2.286   2.290   2.297   2.297   2.301   2.302
  2.303   2.312   2.315   2.319   2.321   2.323   2.326   2.332
  2.334   2.342   2.342   2.343   2.345   2.347   2.350   2.356
  2.361   2.362   2.366   2.367   2.373   2.375   2.376   2.378
  2.381   2.383   2.384   2.388   2.392   2.395   2.400   2.401
  2.403   2.407   2.412   2.419   2.422   2.423   2.426   2.427
  2.428   2.434   2.442   2.447   2.448   2.451   2.452   2.455
  2.460   2.467   2.471   2.477   2.484   2.488   2.494   2.501
  2.503   2.506   2.513   2.519   2.525   2.529   2.531   2.538
  2.543   2.554   2.561   2.566   2.568   2.584   2.593   2.594
  2.600   2.605   2.615   2.629   2.630   2.631   2.639   2.640
  2.654   2.657   2.664   2.665   2.666   2.671   2.677   2.688
  2.689   2.692   2.694   2.699   2.701   2.705   2.709   2.711
  2.715   2.723   2.725   2.735   2.741   2.742   2.745   2.748
  2.749   2.753   2.754   2.758   2.760   2.767   2.769   2.769
  2.777   2.780   2.781   2.781   2.789   2.797   2.800   2.802
  2.803   2.804   2.808   2.811   2.811   2.812   2.825   2.825
  2.827   2.829   2.830   2.837   2.841   2.843   2.847   2.865
  2.868   2.869   2.879   2.881   2.885   2.888   2.891   2.894
  2.900   2.913   2.920   2.932   2.934   2.944   2.945   2.956
  2.959   2.971   2.976   2.981   2.986   3.005   3.016   3.019
  3.032   3.036   3.043   3.051   3.067   3.079   3.102   3.105
  3.111   3.120   3.138   3.169   3.259   3.274   3.284   3.288
  3.292   3.327   3.361   3.434   3.436   3.452   3.463   3.472
  3.495   3.508   3.510   3.512   3.520   3.523   3.575   3.684
  3.699   9.648   9.798  13.165  13.198  13.201  13.231  13.257
 13.290  13.418  13.509  13.527  13.529  13.544  13.579  13.627
 13.635  13.657  13.664  13.672  13.681  13.691  13.702  13.722
 13.726  13.748  13.777  13.782  13.814  13.816  13.822  13.858
 13.885  13.898  13.908  13.950  13.989  14.033  14.038  14.040
 14.048  14.051  14.063  14.068  14.076  14.103  14.108  14.135
 14.135  14.164  14.166  14.176  14.185  14.186  14.192  14.194
 14.208  14.220  14.232  14.262  14.278  14.304  14.308  14.350
 14.351  14.353  14.355  14.527  14.535  14.535  14.538  14.563
 14.582  14.584  14.594  14.598  14.600  14.601  14.627  19.580
 19.702
 
 Beta MOs
 -- Occupied --
-14.771 -14.656 -10.546 -10.545 -10.538 -10.496 -10.496 -10.496
-10.495 -10.490 -10.490 -10.490 -10.489 -10.489 -10.489 -10.480
-10.480 -10.479 -10.478 -10.478 -10.477 -10.465 -10.455 -10.446
-10.446 -10.444 -10.444 -10.444 -10.443 -10.443 -10.442 -10.441
-10.441 -10.441 -10.440 -10.440 -10.439 -10.439 -10.439 -10.439
-10.438 -10.438 -10.438 -10.438 -10.438 -10.438 -10.438 -10.435
-10.435 -10.434 -10.434 -10.433 -10.433 -10.432 -10.432 -10.428
-10.428 -10.427 -10.427 -10.427 -10.427 -10.427 -10.426 -10.422
-10.422 -10.422 -10.419 -10.415 -10.414 -10.412 -10.412 -10.405
-10.404 -10.402 -10.402 -10.397 -10.397 -10.396  -6.895  -6.888
 -1.147  -1.066  -1.009  -1.002  -0.991  -0.991  -0.980  -0.950
 -0.944  -0.932  -0.930  -0.925  -0.913  -0.913  -0.909  -0.903
 -0.900  -0.883  -0.882  -0.877  -0.871  -0.868  -0.849  -0.849
 -0.840  -0.832  -0.830  -0.829  -0.827  -0.827  -0.827  -0.822
 -0.821  -0.806  -0.792  -0.788  -0.787  -0.780  -0.774  -0.770
 -0.757  -0.752  -0.730  -0.724  -0.722  -0.709  -0.707  -0.707
 -0.707  -0.701  -0.694  -0.693  -0.684  -0.681  -0.678  -0.671
 -0.666  -0.662  -0.661  -0.654  -0.650  -0.644  -0.640  -0.626
 -0.624  -0.619  -0.618  -0.611  -0.605  -0.594  -0.592  -0.583
 -0.581  -0.574  -0.573  -0.572  -0.566  -0.564  -0.561  -0.559
 -0.552  -0.552  -0.549  -0.545  -0.539  -0.539  -0.538  -0.528
 -0.526  -0.524  -0.518  -0.518  -0.512  -0.511  -0.506  -0.505
 -0.504  -0.500  -0.496  -0.488  -0.487  -0.486  -0.485  -0.485
 -0.480  -0.480  -0.476  -0.475  -0.473  -0.471  -0.471  -0.470
 -0.470  -0.467  -0.465  -0.464  -0.464  -0.463  -0.461  -0.461
 -0.457  -0.456  -0.456  -0.448  -0.448  -0.445  -0.444  -0.441
 -0.441  -0.436  -0.432  -0.432  -0.423  -0.423  -0.421  -0.420
 -0.414  -0.413  -0.413  -0.410  -0.408  -0.404  -0.403  -0.402
 -0.400  -0.393  -0.393  -0.392  -0.388  -0.387  -0.384  -0.383
 -0.382  -0.379  -0.378  -0.376  -0.375  -0.374  -0.371  -0.368
 -0.366  -0.362  -0.348  -0.345  -0.344  -0.343  -0.340  -0.339
 -0.336  -0.334  -0.322  -0.319  -0.311  -0.303  -0.297  -0.295
 -0.295  -0.291  -0.289  -0.284  -0.277  -0.277  -0.267  -0.254
 -0.246  -0.238  -0.232  -0.217  -0.205
 -- Virtual --
 -0.174  -0.060  -0.038  -0.035  -0.033  -0.024  -0.011  -0.007
 -0.001   0.005   0.015   0.017   0.018   0.026   0.027   0.028
  0.038   0.040   0.050   0.071   0.074   0.097   0.107   0.108
  0.114   0.115   0.118   0.128   0.140   0.145   0.146   0.150
  0.154   0.156   0.158   0.160   0.164   0.168   0.172   0.174
  0.175   0.176   0.176   0.178   0.178   0.182   0.184   0.185
  0.186   0.192   0.193   0.194   0.196   0.198   0.199   0.202
  0.202   0.204   0.206   0.209   0.211   0.212   0.213   0.214
  0.214   0.215   0.216   0.218   0.220   0.221   0.222   0.223
  0.224   0.225   0.227   0.229   0.230   0.232   0.234   0.235
  0.237   0.240   0.241   0.246   0.247   0.249   0.249   0.250
  0.251   0.253   0.255   0.256   0.256   0.258   0.261   0.262
  0.264   0.266   0.270   0.270   0.272   0.273   0.275   0.276
  0.282   0.285   0.287   0.288   0.289   0.292   0.293   0.294
  0.296   0.297   0.299   0.300   0.302   0.307   0.309   0.309
  0.311   0.313   0.320   0.321   0.323   0.325   0.327   0.330
  0.331   0.333   0.335   0.337   0.338   0.341   0.344   0.345
  0.350   0.351   0.355   0.364   0.367   0.370   0.371   0.373
  0.376   0.377   0.387   0.388   0.392   0.404   0.405   0.407
  0.409   0.413   0.420   0.424   0.427   0.429   0.431   0.437
  0.441   0.445   0.449   0.455   0.456   0.463   0.464   0.471
  0.473   0.475   0.477   0.478   0.479   0.482   0.484   0.487
  0.490   0.494   0.499   0.506   0.508   0.509   0.511   0.514
  0.515   0.516   0.518   0.524   0.526   0.527   0.530   0.531
  0.533   0.535   0.538   0.538   0.540   0.545   0.546   0.547
  0.548   0.551   0.553   0.555   0.558   0.559   0.560   0.561
  0.564   0.564   0.567   0.569   0.570   0.571   0.575   0.576
  0.577   0.578   0.579   0.579   0.581   0.583   0.584   0.585
  0.586   0.588   0.588   0.591   0.593   0.594   0.597   0.600
  0.603   0.604   0.606   0.607   0.608   0.608   0.609   0.609
  0.610   0.611   0.612   0.612   0.613   0.615   0.617   0.619
  0.620   0.621   0.624   0.625   0.626   0.628   0.630   0.631
  0.635   0.635   0.637   0.638   0.639   0.639   0.640   0.642
  0.643   0.644   0.645   0.647   0.648   0.649   0.652   0.655
  0.656   0.659   0.661   0.662   0.663   0.664   0.666   0.667
  0.670   0.671   0.672   0.675   0.676   0.677   0.679   0.681
  0.684   0.685   0.688   0.691   0.693   0.695   0.697   0.697
  0.701   0.706   0.709   0.709   0.711   0.718   0.719   0.720
  0.722   0.722   0.723   0.726   0.730   0.734   0.735   0.738
  0.742   0.745   0.748   0.753   0.755   0.758   0.760   0.761
  0.768   0.770   0.771   0.774   0.778   0.781   0.784   0.785
  0.789   0.790   0.795   0.796   0.797   0.801   0.805   0.808
  0.811   0.813   0.817   0.819   0.821   0.828   0.830   0.837
  0.840   0.842   0.846   0.851   0.855   0.858   0.868   0.871
  0.876   0.878   0.881   0.885   0.887   0.895   0.901   0.908
  0.908   0.910   0.912   0.914   0.918   0.918   0.922   0.924
  0.926   0.927   0.932   0.934   0.935   0.936   0.938   0.939
  0.944   0.948   0.953   0.954   0.955   0.963   0.964   0.966
  0.967   0.968   0.969   0.969   0.974   0.975   0.976   0.976
  0.978   0.982   0.985   0.987   0.989   0.990   0.999   1.000
  1.002   1.004   1.004   1.005   1.006   1.009   1.010   1.013
  1.016   1.018   1.019   1.019   1.020   1.021   1.026   1.027
  1.034   1.035   1.038   1.040   1.041   1.042   1.045   1.048
  1.050   1.053   1.054   1.057   1.057   1.059   1.060   1.061
  1.068   1.069   1.070   1.071   1.074   1.078   1.078   1.083
  1.084   1.088   1.089   1.090   1.091   1.092   1.098   1.099
  1.103   1.105   1.106   1.108   1.111   1.113   1.116   1.119
  1.126   1.128   1.132   1.138   1.139   1.143   1.146   1.146
  1.147   1.153   1.155   1.158   1.161   1.163   1.165   1.168
  1.169   1.172   1.175   1.179   1.182   1.183   1.188   1.190
  1.194   1.197   1.201   1.206   1.210   1.214   1.216   1.221
  1.221   1.223   1.227   1.236   1.239   1.240   1.243   1.245
  1.253   1.255   1.260   1.273   1.274   1.275   1.277   1.278
  1.281   1.283   1.284   1.288   1.293   1.296   1.302   1.303
  1.304   1.308   1.310   1.314   1.319   1.319   1.323   1.327
  1.329   1.332   1.333   1.334   1.340   1.342   1.349   1.354
  1.356   1.360   1.363   1.367   1.371   1.376   1.379   1.383
  1.393   1.396   1.396   1.400   1.402   1.407   1.409   1.414
  1.417   1.419   1.425   1.428   1.431   1.432   1.436   1.437
  1.444   1.450   1.456   1.460   1.461   1.461   1.464   1.465
  1.469   1.471   1.487   1.487   1.492   1.499   1.500   1.501
  1.507   1.508   1.515   1.517   1.518   1.522   1.523   1.526
  1.527   1.530   1.531   1.537   1.538   1.542   1.545   1.550
  1.550   1.551   1.551   1.553   1.557   1.560   1.561   1.564
  1.565   1.570   1.573   1.577   1.579   1.580   1.581   1.583
  1.590   1.591   1.596   1.598   1.601   1.605   1.610   1.614
  1.617   1.619   1.625   1.635   1.638   1.639   1.652   1.661
  1.663   1.670   1.681   1.690   1.693   1.699   1.706   1.711
  1.716   1.727   1.736   1.739   1.754   1.759   1.761   1.764
  1.770   1.774   1.778   1.780   1.782   1.793   1.796   1.802
  1.804   1.810   1.816   1.819   1.823   1.828   1.830   1.831
  1.834   1.834   1.836   1.837   1.843   1.843   1.845   1.846
  1.849   1.851   1.855   1.863   1.866   1.873   1.883   1.886
  1.894   1.898   1.906   1.907   1.911   1.915   1.917   1.924
  1.931   1.935   1.938   1.942   1.944   1.945   1.949   1.953
  1.955   1.959   1.964   1.965   1.968   1.975   1.986   1.990
  1.993   1.997   2.000   2.002   2.003   2.004   2.010   2.014
  2.026   2.028   2.029   2.032   2.036   2.037   2.043   2.047
  2.054   2.055   2.059   2.070   2.073   2.077   2.081   2.083
  2.087   2.089   2.093   2.094   2.099   2.101   2.104   2.107
  2.108   2.118   2.122   2.129   2.132   2.133   2.138   2.143
  2.145   2.147   2.150   2.155   2.155   2.161   2.163   2.164
  2.170   2.171   2.173   2.177   2.178   2.180   2.180   2.184
  2.190   2.192   2.198   2.204   2.210   2.213   2.217   2.219
  2.220   2.220   2.223   2.223   2.228   2.233   2.235   2.242
  2.249   2.252   2.252   2.254   2.263   2.266   2.269   2.272
  2.274   2.278   2.282   2.284   2.288   2.292   2.299   2.300
  2.302   2.304   2.305   2.315   2.318   2.322   2.323   2.325
  2.327   2.335   2.336   2.343   2.344   2.344   2.347   2.348
  2.350   2.357   2.363   2.365   2.367   2.369   2.374   2.376
  2.377   2.378   2.382   2.384   2.385   2.389   2.395   2.396
  2.401   2.402   2.405   2.409   2.413   2.422   2.424   2.426
  2.427   2.429   2.430   2.435   2.445   2.448   2.449   2.452
  2.453   2.456   2.462   2.469   2.473   2.481   2.485   2.489
  2.495   2.503   2.505   2.508   2.515   2.520   2.526   2.530
  2.532   2.538   2.544   2.557   2.564   2.568   2.570   2.589
  2.595   2.596   2.602   2.608   2.617   2.629   2.632   2.634
  2.639   2.643   2.655   2.658   2.665   2.665   2.667   2.671
  2.678   2.689   2.691   2.694   2.695   2.699   2.702   2.706
  2.710   2.712   2.716   2.725   2.727   2.736   2.742   2.742
  2.747   2.749   2.749   2.754   2.755   2.759   2.761   2.768
  2.769   2.770   2.777   2.780   2.781   2.782   2.791   2.799
  2.800   2.802   2.803   2.806   2.808   2.811   2.812   2.813
  2.825   2.826   2.828   2.830   2.830   2.837   2.841   2.844
  2.847   2.867   2.868   2.870   2.881   2.883   2.886   2.888
  2.891   2.896   2.902   2.913   2.921   2.933   2.936   2.944
  2.946   2.957   2.961   2.972   2.979   2.982   2.987   3.005
  3.018   3.019   3.033   3.037   3.044   3.052   3.069   3.083
  3.102   3.105   3.113   3.121   3.139   3.170   3.261   3.275
  3.287   3.288   3.292   3.327   3.361   3.434   3.436   3.452
  3.463   3.473   3.495   3.508   3.510   3.512   3.521   3.523
  3.575   3.684   3.699   9.652   9.802  13.165  13.199  13.201
 13.231  13.257  13.290  13.419  13.509  13.528  13.529  13.544
 13.580  13.628  13.635  13.658  13.665  13.672  13.681  13.691
 13.702  13.722  13.726  13.748  13.777  13.782  13.814  13.816
 13.822  13.859  13.885  13.899  13.909  13.951  13.989  14.033
 14.039  14.041  14.049  14.052  14.064  14.068  14.076  14.104
 14.108  14.135  14.136  14.164  14.166  14.176  14.185  14.186
 14.192  14.195  14.209  14.220  14.233  14.262  14.279  14.304
 14.308  14.350  14.351  14.354  14.355  14.528  14.535  14.536
 14.538  14.564  14.583  14.585  14.594  14.598  14.600  14.601
 14.627  19.594  19.702
 --------------------------------------------------------------
 
          Ground-State Mulliken Net Atomic Charges

     Atom                 Charge (a.u.)    Spin (a.u.)
  --------------------------------------------------------
      1 C                    -0.133934       0.014339
      2 C                    -0.400029      -0.009583
      3 H                     0.193345      -0.000922
      4 C                     0.079291       0.030488
      5 C                     0.054522       0.108463
      6 C                    -0.390974      -0.065706
      7 H                     0.225559       0.002694
      8 C                    -0.140799       0.070547
      9 C                     0.192711      -0.066171
     10 C                    -0.390963       0.099585
     11 H                     0.226294      -0.005859
     12 C                    -0.215238      -0.061450
     13 H                     0.229701       0.002973
     14 C                    -0.353559       0.093486
     15 H                     0.221553      -0.005578
     16 C                    -0.084876       0.027257
     17 C                     0.239981      -0.042854
     18 C                     0.195507      -0.045206
     19 C                    -0.400486       0.073061
     20 H                     0.204884      -0.004381
     21 C                    -0.213730      -0.049521
     22 H                     0.221616       0.002479
     23 C                    -0.355221       0.069382
     24 H                     0.222455      -0.004071
     25 B                     0.543952       0.261335
     26 B                     0.512020       0.334966
     27 C                    -0.135217       0.008815
     28 C                    -0.404658      -0.009888
     29 H                     0.196241      -0.001013
     30 C                     0.078113       0.031097
     31 C                     0.194435      -0.045554
     32 C                    -0.401163       0.073389
     33 H                     0.207806      -0.004388
     34 C                    -0.214019      -0.049610
     35 H                     0.222544       0.002479
     36 C                    -0.356219       0.069822
     37 H                     0.222392      -0.004099
     38 C                    -0.085823       0.026721
     39 C                     0.241754      -0.042530
     40 C                     0.190643      -0.066250
     41 C                    -0.388705       0.098810
     42 H                     0.224991      -0.005812
     43 C                    -0.215293      -0.061282
     44 H                     0.229053       0.002974
     45 C                    -0.354359       0.092853
     46 H                     0.221212      -0.005545
     47 C                     0.053226       0.105298
     48 C                    -0.390300      -0.065147
     49 H                     0.223490       0.002695
     50 C                    -0.145298       0.067515
     51 C                    -0.127261       0.231072
     52 C                     0.065051      -0.077743
     53 C                    -0.330823       0.110889
     54 H                     0.260306      -0.005810
     55 C                     0.296643       0.027517
     56 C                    -0.339473       0.106543
     57 H                     0.261517      -0.005712
     58 C                     0.054649      -0.077471
     59 N                    -0.583508       0.388989
     60 C                     0.288729      -0.080853
     61 C                    -0.263111       0.123593
     62 H                     0.277881      -0.006444
     63 C                    -0.224437      -0.085542
     64 H                     0.260818       0.004198
     65 C                    -0.218489       0.148545
     66 H                     0.263285      -0.008106
     67 C                    -0.223930      -0.089180
     68 H                     0.263683       0.004738
     69 C                    -0.265087       0.128204
     70 H                     0.284495      -0.006676
     71 C                     0.277712      -0.078779
     72 C                    -0.263281       0.119524
     73 H                     0.276846      -0.006299
     74 C                    -0.224583      -0.081340
     75 H                     0.261028       0.004138
     76 C                    -0.218434       0.142369
     77 H                     0.263267      -0.007775
     78 C                    -0.223399      -0.086145
     79 H                     0.264107       0.004474
     80 C                    -0.257410       0.122621
     81 H                     0.282462      -0.006345
     82 C                    -0.542202       0.007977
     83 H                     0.229833      -0.000074
     84 H                     0.283449      -0.001891
     85 C                    -0.551858       0.008221
     86 H                     0.290123      -0.002411
     87 H                     0.231378       0.000208
     88 C                    -0.656096      -0.001537
     89 H                     0.263361      -0.000412
     90 H                     0.204769       0.000008
     91 H                     0.233813      -0.000547
     92 C                    -0.655317      -0.001749
     93 H                     0.268773      -0.000548
     94 H                     0.203975      -0.000056
     95 H                     0.230812      -0.000605
     96 C                    -0.203862      -0.025486
     97 C                     0.067063       0.004535
     98 C                    -0.359972      -0.001692
     99 H                     0.231789       0.000393
    100 C                     0.310971       0.001909
    101 C                    -0.369075      -0.001646
    102 H                     0.233552       0.000354
    103 C                     0.059069       0.004327
    104 N                    -0.673742       0.000332
    105 C                     0.294399      -0.000087
    106 C                    -0.289614       0.000152
    107 H                     0.250770      -0.000008
    108 C                    -0.226342      -0.000107
    109 H                     0.228930       0.000005
    110 C                    -0.252286       0.000177
    111 H                     0.225853      -0.000010
    112 C                    -0.226953      -0.000115
    113 H                     0.230446       0.000007
    114 C                    -0.284125       0.000157
    115 H                     0.254136      -0.000009
    116 C                     0.283309      -0.000080
    117 C                    -0.281592       0.000142
    118 H                     0.249990      -0.000008
    119 C                    -0.227680      -0.000100
    120 H                     0.229715       0.000005
    121 C                    -0.249718       0.000162
    122 H                     0.227027      -0.000009
    123 C                    -0.228075      -0.000106
    124 H                     0.230725       0.000007
    125 C                    -0.279662       0.000146
    126 H                     0.252734      -0.000009
    127 C                    -0.538974       0.002828
    128 H                     0.257239      -0.001707
    129 H                     0.223495       0.000244
    130 C                    -0.547219       0.003449
    131 H                     0.262134      -0.002539
    132 H                     0.225147       0.000334
    133 C                    -0.649039      -0.000193
    134 H                     0.239719      -0.000154
    135 H                     0.215122       0.000007
    136 H                     0.212963      -0.000042
    137 C                    -0.649804      -0.000185
    138 H                     0.245957      -0.000225
    139 H                     0.210062       0.000011
    140 H                     0.212925      -0.000046
  --------------------------------------------------------
  Sum of atomic charges =    -0.000000
  Sum of spin   charges =     2.000000

 -----------------------------------------------------------------
                    Cartesian Multipole Moments
 -----------------------------------------------------------------
    Charge (ESU x 10^10)
                -0.0000
    Dipole Moment (Debye)
         X      22.8391      Y       3.0493      Z      13.4407
       Tot      26.6754
    Quadrupole Moments (Debye-Ang)
        XX    -301.0759     XY      28.8647     YY    -453.6225
        XZ      59.1378     YZ       1.8560     ZZ    -437.3408
    Octopole Moments (Debye-Ang^2)
       XXX    1328.2575    XXY      86.3348    XYY     122.6201
       YYY    -486.3038    XXZ    1064.9730    XYZ     -36.3821
       YYZ     712.2958    XZZ     250.2990    YZZ    -265.6302
       ZZZ    2317.5729
    Hexadecapole Moments (Debye-Ang^3)
      XXXX  -56592.3668   XXXY    2850.7595   XXYY  -11268.3389
      XYYY     742.9007   YYYY   -8067.1438   XXXZ   -7459.0514
      XXYZ     227.9038   XYYZ   -2626.3350   YYYZ     211.2635
      XXZZ  -17784.5212   XYZZ     194.9904   YYZZ  -10740.1911
      XZZZ   -8086.6066   YZZZ     583.9335   ZZZZ  -49977.9899
 -----------------------------------------------------------------
 Calculating analytic gradient of the SCF energy
 -1.354372780096586E-003 -1.354332493129369E-003
 -1.354348791089522E-003 -1.354356589760995E-003
 -1.354361102262822E-003 -1.354344162031575E-003
 -1.354354132048592E-003 -1.354351135595794E-003
 -1.354354798687900E-003 -1.354350603144126E-003
 -1.354336244855630E-003 -1.354369029796485E-003
 -1.354375951264016E-003 -1.354329319668379E-003
 -1.354357679573271E-003 -1.354347669833828E-003
 -1.354351285258685E-003 -1.354354001029168E-003
 -1.354385626432377E-003 -1.354319650481697E-003
 -1.354353479941288E-003 -1.354351912141876E-003
 -1.354334699089464E-003 -1.354370566918748E-003
 -1.354349745880351E-003 -1.354355518826043E-003
 -1.354353007042894E-003 -1.354352384608050E-003
 -1.354319436343116E-003 -1.354385847254235E-003
 -1.354370710398429E-003 -1.354334572699566E-003
 -1.354353584892958E-003 -1.354351813480157E-003
 -1.354339132489057E-003 -1.354366124207967E-003
 -1.354339378102832E-003 -1.354365902415802E-003
 -1.354357918743314E-003 -1.354347426782624E-003
 -1.354333058412125E-003 -1.354372219029400E-003
 -1.354333053718760E-003 -1.354372219281446E-003
 -1.354348891865278E-003 -1.354356486141830E-003
 -1.354341406888420E-003 -1.354363857550355E-003
 -1.354354123251167E-003 -1.354351138178638E-003
 -1.354353977037522E-003 -1.354351411230319E-003
 -1.354331057802471E-003 -1.354374211567694E-003
 -1.354353647332094E-003 -1.354351618567030E-003
 -1.354354900730080E-003 -1.354350488403794E-003
 -1.354311244512080E-003 -1.354394033305267E-003
 -1.354351110995065E-003 -1.354354150286372E-003
 -1.354348716770017E-003 -1.354356601484522E-003
 -1.354336670206877E-003 -1.354368608199607E-003
 -1.354330449063106E-003 -1.354374802873471E-003
 -1.354356033424718E-003 -1.354349333614943E-003
 -1.354368582502083E-003 -1.354336690573910E-003
 -1.354357635023507E-003 -1.354347616331799E-003
 -1.354353988129641E-003 -1.354351310039328E-003
 -1.354338756567821E-003 -1.354366500441354E-003
 -1.354370727063594E-003 -1.354334522567630E-003
 -1.354356055091953E-003 -1.354349321607596E-003
 -1.354331818531824E-003 -1.354373450452452E-003
 -1.354342675727440E-003 -1.354362600032870E-003
 -1.354355569525506E-003 -1.354349760936534E-003
 -1.354370801473720E-003 -1.354334457223882E-003
 -1.354365564960123E-003 -1.354339725912329E-003
 -1.354356273576515E-003 -1.354349122766265E-003
 -1.354331505767374E-003 -1.354373776309930E-003
 -1.354334571387483E-003 -1.354370684390122E-003
 -1.354357406183759E-003 -1.354347960364583E-003
 -1.354380460564408E-003 -1.354324819217548E-003
 -1.354367223639408E-003 -1.354338030610396E-003
 -1.354354988976277E-003 -1.354350405329286E-003
 -1.354339706315856E-003 -1.354365577172179E-003
 -1.354391070800910E-003 -1.354314215465214E-003
 -1.354355598293635E-003 -1.354349795794863E-003
 -1.354333297760429E-003 -1.354371963620182E-003
 -1.354362008185749E-003 -1.354343271369488E-003
 -1.354352828666783E-003 -1.354352493248642E-003
 -1.354343258058856E-003 -1.354362003241336E-003
 -1.354346897830759E-003 -1.354358336747064E-003
 -1.354355842871672E-003 -1.354349533317786E-003
 -1.354376644945379E-003 -1.354328649737247E-003
 -1.354361675049245E-003 -1.354343563040092E-003
 -1.354354928123771E-003 -1.354350376934769E-003
 -1.354344737746099E-003 -1.354360534462397E-003
 -1.354361522195207E-003 -1.354343766894794E-003
 -1.354355798166308E-003 -1.354349581460526E-003
 -1.354327751271792E-003 -1.354377488302908E-003
 -1.354341590618974E-003 -1.354363705459789E-003
 -1.354355060565451E-003 -1.354350270107598E-003
 -1.354370342891784E-003 -1.354334893503469E-003
 -1.354362269584058E-003 -1.354343009838443E-003
 -1.354350429054262E-003 -1.354354918697330E-003
 -1.354357939810118E-003 -1.354347336776006E-003
 -1.354341066107615E-003 -1.354364215002801E-003
 -1.354351772422101E-003 -1.354353579914261E-003
 -1.354348321482293E-003 -1.354356959881352E-003
 -1.354369373075569E-003 -1.354335898192455E-003
 -1.354352504709658E-003 -1.354352876771603E-003
 -1.354365976112856E-003 -1.354339288170333E-003
 -1.354338670521590E-003 -1.354366616039331E-003
 -1.354356473356487E-003 -1.354348924444806E-003
 -1.354365739719118E-003 -1.354339516849612E-003
 -1.354366214661065E-003 -1.354339067627469E-003
 -1.354350657219465E-003 -1.354354685994082E-003
 -1.354373510235304E-003 -1.354331761499188E-003
 -1.354353385434218E-003 -1.354351877895021E-003
 -1.354355875478315E-003 -1.354349516961867E-003
 -1.354386670222051E-003 -1.354318609497413E-003
 -1.354352353069428E-003 -1.354352908879917E-003
 -1.354355562938417E-003 -1.354349827253794E-003
 -1.354368770419729E-003 -1.354336504824060E-003
 -1.354355391704656E-003 -1.354349877003516E-003
 -1.354355861882232E-003 -1.354349525391623E-003
 -1.354395282140903E-003 -1.354309993823853E-003
 -1.354352838487627E-003 -1.354352421863725E-003
 -1.354346215208896E-003 -1.354359099233751E-003
 -1.354365137327001E-003 -1.354340142131726E-003
 -1.354371574993256E-003 -1.354333674132753E-003
 -1.354351054991146E-003 -1.354354313160451E-003
 -1.354333148911798E-003 -1.354372128266639E-003
 -1.354348984538868E-003 -1.354356266488855E-003
 -1.354352101958873E-003 -1.354353197331318E-003
 -1.354365594547813E-003 -1.354339667371008E-003
 -1.354337117966468E-003 -1.354368136665183E-003
 -1.354355569801382E-003 -1.354349804527886E-003
 -1.354374250536214E-003 -1.354331018229505E-003
 -1.354361274528097E-003 -1.354344004988413E-003
 -1.354351727525929E-003 -1.354353601594182E-003
 -1.354334044109685E-003 -1.354371209020668E-003
 -1.354342317027351E-003 -1.354362970591036E-003
 -1.354356908767686E-003 -1.354348488042765E-003
 -1.354374883979531E-003 -1.354330400307626E-003
 -1.354367639369286E-003 -1.354337617068500E-003
 -1.354350732145991E-003 -1.354354633235563E-003
 -1.354321127051278E-003 -1.354384152725968E-003
 -1.354337028260935E-003 -1.354368224231224E-003
 -1.354357714829175E-003 -1.354347677851066E-003
 -1.354362980566195E-003 -1.354342301480928E-003
 -1.354317260831463E-003 -1.354388032031010E-003
 -1.354359656870385E-003 -1.354345738058716E-003
 -1.354373761234801E-003 -1.354331496749791E-003
 -1.354339354009998E-003 -1.354365926409043E-003
 -1.354355763133238E-003 -1.354349559160913E-003
 -1.354359414505984E-003 -1.354345850610702E-003
 -1.354353517191092E-003 -1.354351715527997E-003
 -1.354352210143524E-003 -1.354353162009177E-003
 -1.354325040592975E-003 -1.354380249836791E-003
 -1.354344243251716E-003 -1.354360994921952E-003
 -1.354354336030295E-003 -1.354350964261625E-003
 -1.354362958605955E-003 -1.354342309798501E-003
 -1.354347007258815E-003 -1.354358275073776E-003
 -1.354354211970823E-003 -1.354351164477421E-003
 -1.354378589484482E-003 -1.354326651553506E-003
 -1.354362344944245E-003 -1.354342954859525E-003
 -1.354350911930925E-003 -1.354354417514433E-003
 -1.354334763448046E-003 -1.354370471220341E-003
 -1.354324277880537E-003 -1.354381002891444E-003
 -1.354358050610628E-003 -1.354347343898129E-003
 -1.354368017151388E-003 -1.354337249026720E-003
 -1.354349513603601E-003 -1.354355756429623E-003
 -1.354357282088531E-003 -1.354348117707219E-003
 -1.354373076461868E-003 -1.354332199208665E-003
 -1.354327566262956E-003 -1.354377707687265E-003
 -1.354356564038295E-003 -1.354348782445239E-003
 -1.354350861626084E-003 -1.354354422928786E-003
 -1.354330665613919E-003 -1.354374608997446E-003
 -1.354353081510051E-003 -1.354352299775510E-003
 -1.354345697882548E-003 -1.354359563309946E-003
 -1.354370783983843E-003 -1.354334504940121E-003
 -1.354368692783151E-003 -1.354336579682923E-003
 -1.354361028267543E-003 -1.354344250737643E-003
 -1.354322399683873E-003 -1.354382881449683E-003
 -1.354322485499273E-003 -1.354382778395559E-003
 -1.354334591378209E-003 -1.354370696496306E-003
 -1.354374732105411E-003 -1.354330571196449E-003
 -1.354361738370279E-003 -1.354343499964260E-003
 -1.354354527186367E-003 -1.354350765939794E-003
 -1.354346021727047E-003 -1.354359274935050E-003
 -1.354339830761451E-003 -1.354365406840881E-003
 -1.354340375157337E-003 -1.354364916485541E-003
 -1.354310592364306E-003 -1.354394689081943E-003
 -1.354336559356561E-003 -1.354368722499224E-003
 -1.354328614396606E-003 -1.354376664413555E-003
 -1.354362184473535E-003 -1.354343114784337E-003
 -1.354365314583150E-003 -1.354339929616235E-003
 -1.354367803303230E-003 -1.354337493199826E-003
 -1.354328518033350E-003 -1.354376766557082E-003
 -1.354357199886313E-003 -1.354348055291771E-003
 -1.354351547396490E-003 -1.354353729493701E-003
 -1.354306421193049E-003 -1.354398866288080E-003
 -1.354365812761684E-003 -1.354339444448923E-003
 -1.354327540306414E-003 -1.354377748811812E-003
 -1.354365929075661E-003 -1.354339397830359E-003
 -1.354352750110818E-003 -1.354352536648479E-003
 -1.354354999957393E-003 -1.354350292345194E-003
 -1.354323470858219E-003 -1.354381824017636E-003
 -1.354366074203528E-003 -1.354339231375002E-003
 -1.354351129439221E-003 -1.354354165865140E-003
 -1.354390808964976E-003 -1.354314494071140E-003
 -1.354335201572348E-003 -1.354370095950925E-003
 -1.354340264124349E-003 -1.354364998155940E-003
 -1.354350985390111E-003 -1.354354288038951E-003
 -1.354343352325939E-003 -1.354361920811112E-003
 -1.354335296679606E-003 -1.354369939234364E-003
 -1.354330732028006E-003 -1.354374528241816E-003
 -1.354349221281405E-003 -1.354356076354894E-003
 -1.354353461657974E-003 -1.354351839082008E-003
 -1.354363067510744E-003 -1.354342182761563E-003
 -1.354346227486135E-003 -1.354359054395528E-003
 -1.354339219039739E-003 -1.354366083390189E-003
 -1.354374897254210E-003 -1.354330410812628E-003
 -1.354348013619625E-003 -1.354357295962475E-003
 -1.354333814696447E-003 -1.354371460525120E-003
 -1.354343942170824E-003 -1.354361352663054E-003
 -1.354347676501853E-003 -1.354357618881361E-003
 -1.354352853210425E-003 -1.354352437187775E-003
 -1.354317999744544E-003 -1.354387265889569E-003
 -1.354358330341276E-003 -1.354346979671163E-003
 -1.354361465141654E-003 -1.354343829499283E-003
 -1.354354194252933E-003 -1.354351066990150E-003
 -1.354359833550531E-003 -1.354345452090592E-003
 -1.354339230189526E-003 -1.354366025293491E-003
 -1.354344791932493E-003 -1.354360498921730E-003
 -1.354371460020602E-003 -1.354333845583314E-003
 -1.354339551000537E-003 -1.354365725489050E-003
 -1.354334120104321E-003 -1.354371147098791E-003
 -1.354388541079918E-003 -1.354316743553258E-003
 -1.354352650780315E-003 -1.354352639262932E-003
 -1.354350232636814E-003 -1.354355090932526E-003
 -1.354333373914580E-003 -1.354371894572891E-003
 -1.354333852586153E-003 -1.354371436168814E-003
 -1.354345760602270E-003 -1.354359543059758E-003
 -1.354374958500661E-003 -1.354330302622323E-003
 -1.354386498407479E-003 -1.354318785983162E-003
 -1.354334173277839E-003 -1.354371075289016E-003
 -1.354358900882689E-003 -1.354346362856996E-003
 -1.354355495527212E-003 -1.354349771927508E-003
 -1.354344146628073E-003 -1.354361184055060E-003
 -1.354352677534652E-003 -1.354352581742188E-003
 -1.354332650179743E-003 -1.354372610645472E-003
 -1.354337118526192E-003 -1.354368193410915E-003
 -1.354357727292778E-003 -1.354347521752083E-003
 -1.354364295313784E-003 -1.354340971563073E-003
 -1.354337951499783E-003 -1.354367378286424E-003
 -1.354357472951298E-003 -1.354347800669897E-003
 -1.354378037971259E-003 -1.354327242179626E-003
 -1.354343690353659E-003 -1.354361635331420E-003
 -1.354356484312294E-003 -1.354348802999522E-003
 -1.354344784085483E-003 -1.354360486418956E-003
 -1.354347302665999E-003 -1.354358015154163E-003
 -1.354342387594830E-003 -1.354362878594714E-003
 -1.354323628289626E-003 -1.354381639951406E-003
 -1.354340680473328E-003 -1.354364572040166E-003
 -1.354345802409207E-003 -1.354359472251451E-003
 -1.354361360138377E-003 -1.354343911473645E-003
 -1.354344134988532E-003 -1.354361184396212E-003
 -1.354329022982218E-003 -1.354376241320975E-003
 -1.354350301013316E-003 -1.354354969392265E-003
 -1.354360717646918E-003 -1.354344587908948E-003
 -1.354319772587039E-003 -1.354385473986125E-003
 -1.354348677027192E-003 -1.354356593719820E-003
 -1.354357776421013E-003 -1.354347507497946E-003
 -1.354368229877362E-003 -1.354337047172851E-003
 -1.354337314764373E-003 -1.354367950913465E-003
 -1.354340732726694E-003 -1.354364554952623E-003
 -1.354357338203753E-003 -1.354347926652092E-003
 -1.354357141186119E-003 -1.354348137477899E-003
 -1.354332007226055E-003 -1.354373270162596E-003
 -1.354353649938096E-003 -1.354351634489838E-003
 -1.354359989880645E-003 -1.354345293608531E-003
 -1.354344039866464E-003 -1.354361250830060E-003
 -1.354346775495768E-003 -1.354358478282019E-003
 -1.354362881211182E-003 -1.354342382875692E-003
 -1.354351838146716E-003 -1.354353455210335E-003
 -1.354344950388111E-003 -1.354360329092927E-003
 -1.354331637042678E-003 -1.354373629011732E-003
 -1.354339144340559E-003 -1.354366154796294E-003
 -1.354345802219451E-003 -1.354359447575209E-003
 -1.354339485806398E-003 -1.354365784270977E-003
 -1.354329241060180E-003 -1.354376013753426E-003
 -1.354354408387150E-003 -1.354350868505510E-003
 -1.354353984056137E-003 -1.354351304635250E-003
 -1.354352699438590E-003 -1.354352589949218E-003
 -1.354364332250601E-003 -1.354340933577570E-003
 -1.354339633276846E-003 -1.354365631985446E-003
 -1.354359913037429E-003 -1.354345349176337E-003
 -1.354371772831884E-003 -1.354333507453957E-003
 -1.354341394039583E-003 -1.354363888397158E-003
 -1.354339557018304E-003 -1.354365704505917E-003
 -1.354382103138619E-003 -1.354323176959721E-003
 -1.354350653233155E-003 -1.354354611090676E-003
 -1.354338669913110E-003 -1.354366646648667E-003
 -1.354341916379995E-003 -1.354363338074620E-003
 -1.354336717029420E-003 -1.354368521889470E-003
 -1.354346933995140E-003 -1.354358358143317E-003
 -1.354335116151942E-003 -1.354370134429642E-003
 -1.354364644427801E-003 -1.354340609544492E-003
 -1.354341441703128E-003 -1.354363853159133E-003
 -1.354334029650012E-003 -1.354371243093165E-003
 -1.354362335020324E-003 -1.354342925977967E-003
 -1.354355007568340E-003 -1.354350271078389E-003
 -1.354323847025233E-003 -1.354381409264953E-003
 -1.354349600917272E-003 -1.354355665773607E-003
 -1.354337077327138E-003 -1.354368208716629E-003
 -1.354367503488544E-003 -1.354337766257416E-003
 -1.354342485922392E-003 -1.354362795819179E-003
 -1.354378212537696E-003 -1.354327074643009E-003
 -1.354323466350126E-003 -1.354381800356063E-003
 -1.354377135652349E-003 -1.354328143918780E-003
 -1.354328441165457E-003 -1.354376867228504E-003
 -1.354365082648839E-003 -1.354340156582139E-003
 -1.354359620405986E-003 -1.354345670146579E-003
 -1.354355820434461E-003 -1.354349481827422E-003
 -1.354344702117371E-003 -1.354360537015035E-003
 -1.354377755926681E-003 -1.354327524612086E-003
 -1.354394573293318E-003 -1.354310711950107E-003
 -1.354338225068608E-003 -1.354367041631392E-003
 -1.354379677289504E-003 -1.354325620125539E-003
 -1.354347962410511E-003 -1.354357327995972E-003
 -1.354360500541737E-003 -1.354344741084344E-003
 -1.354326952245931E-003 -1.354378359530953E-003
 -1.354379957058242E-003 -1.354325314794532E-003
 -1.354351255403001E-003 -1.354354000130466E-003
 -1.354345134269686E-003 -1.354360149219125E-003
 -1.354401956199354E-003 -1.354303323273599E-003
 -1.354364466504540E-003 -1.354340793267906E-003
 -1.354369476556273E-003 -1.354335821664412E-003
 -1.354337729534676E-003 -1.354367601473508E-003
 -1.354356436195563E-003 -1.354348805380150E-003
 -1.354349260451208E-003 -1.354356072998861E-003
 -1.354355824691948E-003 -1.354349504166907E-003
 -1.354340191765666E-003 -1.354365083635659E-003
 -1.354380949041146E-003 -1.354324335502240E-003
 -1.354358862624479E-003 -1.354346454674234E-003
 -1.354357977189675E-003 -1.354347272592187E-003
 -1.354309873987237E-003 -1.354395415286565E-003
 -1.354370756235652E-003 -1.354334500149580E-003
 -1.354354347884452E-003 -1.354350908578525E-003
 -1.354347727900268E-003 -1.354357543131039E-003
 -1.354362619746569E-003 -1.354342715036624E-003
 -1.354360910322520E-003 -1.354344365469757E-003
 -1.354372009886875E-003 -1.354333239890051E-003
 -1.354365467987963E-003 -1.354339846717454E-003
 -1.354348950318067E-003 -1.354356328491612E-003
 -1.354338693939077E-003 -1.354366548242990E-003
 -1.354363753938508E-003 -1.354341578854813E-003
 -1.354341563588581E-003 -1.354363697196002E-003
 -1.354324393787951E-003 -1.354380890383219E-003
 -1.354360890754978E-003 -1.354344430708308E-003
 -1.354357584941087E-003 -1.354347688498486E-003
 -1.354358035725512E-003 -1.354347252324555E-003
 -1.354357770278720E-003 -1.354347550778508E-003
 -1.354355689793637E-003 -1.354349588016213E-003
 -1.354389351839042E-003 -1.354315903252576E-003
 -1.354363644104888E-003 -1.354341612401882E-003
 -1.354339541255628E-003 -1.354365723524682E-003
 -1.354347691177904E-003 -1.354357575912692E-003
 -1.354353854830030E-003 -1.354351476359295E-003
 -1.354328846752778E-003 -1.354376419177491E-003
 -1.354358240039074E-003 -1.354347035330819E-003
 -1.354343072396513E-003 -1.354362238243532E-003
 -1.354328839514879E-003 -1.354376441885581E-003
 -1.354376232031989E-003 -1.354329012806280E-003
 -1.354378094913580E-003 -1.354327194523000E-003
 -1.354358748684360E-003 -1.354346529483353E-003
 -1.354342802327091E-003 -1.354362517131808E-003
 -1.354319247826518E-003 -1.354386046020876E-003
 -1.354351720347290E-003 -1.354353546336348E-003
 -1.354381536777487E-003 -1.354323754464483E-003
 -1.354357032173646E-003 -1.354348231949577E-003
 -1.354347844870438E-003 -1.354357420883512E-003
 -1.354369569278227E-003 -1.354335679989382E-003
 -1.354371217494891E-003 -1.354334049114772E-003
 -1.354340126631488E-003 -1.354365157513427E-003
 -1.354347242216494E-003 -1.354358064846268E-003
 -1.354348096468476E-003 -1.354357157811652E-003
 -1.354354306968723E-003 -1.354350979754129E-003
 -1.354370267005046E-003 -1.354335027708139E-003
 -1.354337579932148E-003 -1.354367723682271E-003
 -1.354362244852697E-003 -1.354343032933118E-003
 -1.354378409946616E-003 -1.354326887997171E-003
 -1.354359804772919E-003 -1.354345501578906E-003
 -1.354346048813942E-003 -1.354359226695451E-003
 -1.354354397494592E-003 -1.354350901914109E-003
 -1.354382237892981E-003 -1.354323023065118E-003
 -1.354344591675439E-003 -1.354360698181425E-003
 -1.354335967816002E-003 -1.354369335547774E-003
 -1.354356676498576E-003 -1.354348577223310E-003
 -1.354362679317534E-003 -1.354342596420860E-003
 -1.354366156637692E-003 -1.354339104146112E-003
 -1.354364783819495E-003 -1.354340518669999E-003
 -1.354375108820131E-003 -1.354330169177181E-003
 -1.354356529937331E-003 -1.354348758456601E-003
 -1.354373396335635E-003 -1.354331872627543E-003
 -1.354376432566085E-003 -1.354328859763592E-003
 -1.354336668164349E-003 -1.354368603836424E-003
 -1.354352420205229E-003 -1.354352872024958E-003
 -1.354366415544686E-003 -1.354338870096949E-003
 -1.354343011946904E-003 -1.354362236193457E-003
 -1.354362340276841E-003 -1.354342963833993E-003
 -1.354349549699986E-003 -1.354355739362907E-003
 -1.354370141689553E-003 -1.354335137393377E-003
 -1.354355457746436E-003 -1.354349826599571E-003
 -1.354361763301822E-003 -1.354343503357796E-003
 -1.354362176415670E-003 -1.354343085133492E-003
 -1.354346616875703E-003 -1.354358635895783E-003
 -1.354349101190478E-003 -1.354356164882035E-003
 -1.354352884221459E-003 -1.354352400878017E-003
 -1.354370926288848E-003 -1.354334356239891E-003
 -1.354346832852941E-003 -1.354358454755112E-003
 -1.354346114044790E-003 -1.354359173415056E-003
 -1.354366897134582E-003 -1.354338371648819E-003
 -1.354341814252175E-003 -1.354363436724776E-003
 -1.354356682402065E-003 -1.354348598497435E-003
 -1.354374555201444E-003 -1.354330731045843E-003
 -1.354348930280529E-003 -1.354356342879371E-003
 -1.354372083833463E-003 -1.354333157721521E-003
 -1.354357359083607E-003 -1.354347923865946E-003
 -1.354362536769820E-003 -1.354342727232359E-003
 -1.354344933429731E-003 -1.354360319062359E-003
 -1.354361053716487E-003 -1.354344210922646E-003
 -1.354383278345645E-003 -1.354322003295566E-003
 -1.354361654104396E-003 -1.354343603056587E-003
 -1.354359817364890E-003 -1.354345466186822E-003
 -1.354368222189077E-003 -1.354337055343024E-003
 -1.354342457273445E-003 -1.354362817792701E-003
 -1.354381082763866E-003 -1.354324143272205E-003
 -1.354343049462168E-003 -1.354362214084996E-003
 -1.354365272641924E-003 -1.354340038343094E-003
 -1.354346951722800E-003 -1.354358305651379E-003
 -1.354338274900859E-003 -1.354366977544313E-003
 -1.354360216878532E-003 -1.354345054641979E-003
 -1.354354842279899E-003 -1.354350421234702E-003
 -1.354322281293630E-003 -1.354382978844271E-003
 -1.354348910615812E-003 -1.354356366104389E-003
 -1.354354373257812E-003 -1.354350902304143E-003
 -1.354336784880747E-003 -1.354368495052943E-003
 -1.354366950622585E-003 -1.354338339793144E-003
 Gradient of SCF Energy
            1           2           3           4           5           6
    1   0.0048768   0.0026566  -0.0006102   0.0125820  -0.0132070  -0.0016498
    2  -0.0016731  -0.0004388   0.0002019  -0.0005520   0.0002466   0.0006095
    3   0.0084371   0.0003417  -0.0024418   0.0062729  -0.0063731  -0.0070405
            7           8           9          10          11          12
    1   0.0034357  -0.0181578  -0.0007536  -0.0024836   0.0006026   0.0010341
    2  -0.0001229  -0.0006182   0.0001382   0.0000046  -0.0000207  -0.0000240
    3   0.0022975  -0.0022619  -0.0036318   0.0008497   0.0021234  -0.0025911
           13          14          15          16          17          18
    1   0.0011224   0.0011536   0.0005004   0.0030872  -0.0005271   0.0024158
    2  -0.0000070  -0.0001122   0.0000168  -0.0001115   0.0000963   0.0001706
    3   0.0000119  -0.0030077  -0.0008258  -0.0022380   0.0021899   0.0011167
           19          20          21          22          23          24
    1  -0.0012482   0.0001197  -0.0007558   0.0002891   0.0013848   0.0003369
    2  -0.0001511   0.0000279   0.0000714   0.0000263  -0.0000693  -0.0000151
    3   0.0009705   0.0004311  -0.0023579  -0.0001097  -0.0025205  -0.0003853
           25          26          27          28          29          30
    1  -0.0035916   0.0154909   0.0130057   0.0017625  -0.0022126   0.0164442
    2   0.0011125   0.0033680  -0.0010799  -0.0006987   0.0002164  -0.0004252
    3  -0.0020450   0.0096969  -0.0000981   0.0026886   0.0003281   0.0052438
           31          32          33          34          35          36
    1   0.0000757   0.0004912   0.0000088  -0.0029831  -0.0003081  -0.0019459
    2   0.0000887  -0.0001675   0.0001357   0.0001036   0.0000765   0.0002076
    3   0.0018515  -0.0013830  -0.0002200   0.0012908   0.0003803   0.0025078
           37          38          39          40          41          42
    1  -0.0004414   0.0011665   0.0011915  -0.0035723  -0.0011641   0.0021146
    2   0.0001118   0.0000293  -0.0002139   0.0003764  -0.0001199  -0.0000786
    3   0.0007195   0.0008143  -0.0010961   0.0032043  -0.0030820  -0.0003339
           43          44          45          46          47          48
    1  -0.0025496   0.0006420  -0.0013392  -0.0004857  -0.0107359  -0.0072513
    2   0.0002663   0.0000360   0.0002937   0.0000862  -0.0001104   0.0002418
    3   0.0034226   0.0011893   0.0033015   0.0011744  -0.0123761   0.0037577
           49          50          51          52          53          54
    1   0.0038919  -0.0133985   0.0043740  -0.0127836   0.0070752   0.0023970
    2  -0.0001510  -0.0002836  -0.0000261   0.0084965   0.0152684  -0.0029681
    3   0.0021756  -0.0153988   0.0022808  -0.0076360  -0.0057806   0.0032299
           55          56          57          58          59          60
    1  -0.0148753   0.0017921   0.0028728  -0.0105605   0.0144737  -0.0021406
    2  -0.0018986  -0.0144587   0.0038690  -0.0140051  -0.0012998   0.0049421
    3  -0.0075199   0.0120188  -0.0000842  -0.0055879   0.0049439  -0.0034004
           61          62          63          64          65          66
    1  -0.0094356   0.0053401  -0.0068792   0.0066711   0.0002504   0.0008965
    2  -0.0000336   0.0012579   0.0010116  -0.0025656   0.0003033  -0.0027390
    3   0.0019652  -0.0043199   0.0031483   0.0025813  -0.0008166   0.0063942
           67          68          69          70          71          72
    1   0.0054858  -0.0050080   0.0091865  -0.0046212  -0.0031839  -0.0021774
    2  -0.0015460  -0.0006126  -0.0001437   0.0012301  -0.0047561  -0.0023906
    3  -0.0011449   0.0047834   0.0011250  -0.0021678   0.0016366  -0.0095102
           73          74          75          76          77          78
    1  -0.0011295   0.0008958   0.0037343  -0.0006750   0.0046913   0.0003817
    2  -0.0000098  -0.0021362   0.0051404  -0.0002388   0.0044090   0.0029429
    3   0.0069462  -0.0069105   0.0041482   0.0011180  -0.0026286   0.0049000
           79          80          81          82          83          84
    1   0.0019808   0.0044896  -0.0031838  -0.0006869   0.0001899  -0.0000759
    2   0.0001026   0.0038418  -0.0032263   0.0023514  -0.0011348  -0.0015308
    3  -0.0065979   0.0072261  -0.0029813  -0.0033236   0.0014860   0.0005141
           85          86          87          88          89          90
    1  -0.0021819   0.0002508   0.0007018  -0.0027339   0.0011889   0.0005753
    2  -0.0026904   0.0020945   0.0014188   0.0001602  -0.0005047   0.0005463
    3   0.0011418  -0.0006103  -0.0006813   0.0000662   0.0008298   0.0004413
           91          92          93          94          95          96
    1   0.0002340  -0.0019055   0.0016518   0.0004829  -0.0002530  -0.0010590
    2  -0.0010393  -0.0004027   0.0011377  -0.0001914   0.0009051  -0.0002805
    3  -0.0003114  -0.0019987   0.0003712   0.0003345   0.0004349  -0.0000431
           97          98          99         100         101         102
    1  -0.0020864   0.0001162   0.0022034  -0.0001611   0.0013769   0.0007515
    2   0.0034709  -0.0010002   0.0023524  -0.0005675  -0.0010224  -0.0026682
    3  -0.0013852   0.0012880   0.0006272  -0.0001988  -0.0000653   0.0009415
          103         104         105         106         107         108
    1  -0.0037303   0.0027164  -0.0014410   0.0009636  -0.0003273   0.0008649
    2  -0.0032574  -0.0002237   0.0019424   0.0008712   0.0010809  -0.0010769
    3  -0.0013856   0.0014821   0.0000890   0.0005768   0.0017740   0.0015709
          109         110         111         112         113         114
    1   0.0003194   0.0010715   0.0004524   0.0002348  -0.0000260  -0.0011641
    2  -0.0003225  -0.0018670  -0.0007250  -0.0004255  -0.0001694   0.0002492
    3   0.0008156  -0.0002115  -0.0001275  -0.0019132  -0.0010069  -0.0004836
          115         116         117         118         119         120
    1  -0.0013095  -0.0009508   0.0010893   0.0011983   0.0019627   0.0008533
    2   0.0013985  -0.0022972  -0.0009179  -0.0007835   0.0007896   0.0002665
    3  -0.0017016  -0.0015246   0.0002513  -0.0013576   0.0001587  -0.0000714
          121         122         123         124         125         126
    1   0.0009063   0.0002648  -0.0013365  -0.0007967  -0.0006520  -0.0023111
    2   0.0015115   0.0006384   0.0007283   0.0004055   0.0007793  -0.0003538
    3   0.0015462   0.0005575   0.0013833   0.0005499  -0.0005915  -0.0004361
          127         128         129         130         131         132
    1  -0.0003892  -0.0020182   0.0019795   0.0032838  -0.0021155   0.0004760
    2  -0.0003042  -0.0004505   0.0009458   0.0001858   0.0017099  -0.0012262
    3   0.0045886  -0.0018720  -0.0005427  -0.0023505  -0.0002581   0.0017961
          133         134         135         136         137         138
    1   0.0025387  -0.0028732  -0.0004839   0.0017090  -0.0014365  -0.0003372
    2  -0.0014988  -0.0017062   0.0021293   0.0000442   0.0013176   0.0024655
    3  -0.0033808   0.0006390  -0.0006588   0.0020457   0.0041760  -0.0022567
          139         140
    1  -0.0011638   0.0025523
    2  -0.0015725  -0.0005621
    3  -0.0004378   0.0003790
 Max gradient component =       1.816E-02
 RMS gradient           =       3.812E-03
 Computing fast IEFPCM-SWIG gradient.
 Updating gradient with PCM contributions...
 -- total gradient after adding PCM contribution --
---------------------------------------------------
  Atom         X              Y              Z     
---------------------------------------------------
   1       0.006406      -0.001526       0.009006
   2       0.004575      -0.000618       0.000089
   3      -0.000265       0.000228      -0.002328
   4       0.012704      -0.000512       0.009760
   5      -0.016463       0.000390      -0.003915
   6      -0.000819       0.000240      -0.006616
   7       0.000508       0.000038       0.000052
   8      -0.017366      -0.000481      -0.002673
   9       0.002238       0.000058      -0.005478
  10      -0.004031       0.000094       0.000519
  11      -0.000125      -0.000011       0.000361
  12      -0.000418      -0.000003      -0.003247
[...]
 -1.362621568435948E-003 -1.362708650444993E-003
 -1.362675607166422E-003 -1.362654621328227E-003
 -1.362642471254661E-003 -1.362687765233116E-003
 -1.362676602013797E-003 -1.362653641308090E-003
 -1.362661457712675E-003 -1.362668728302047E-003
 -1.362683609878154E-003 -1.362646638815003E-003
 -1.362647991618634E-003 -1.362682255691013E-003
 -1.362676814489919E-003 -1.362653369450516E-003
 -1.362664284940467E-003 -1.362665944438689E-003
 -1.362628780232294E-003 -1.362701446075239E-003
 -1.362693747019792E-003 -1.362636461071939E-003
 -1.362648551971332E-003 -1.362681683563170E-003
 -1.362677104696839E-003 -1.362653152036862E-003
 -1.362665024578865E-003 -1.362665193791154E-003
 -1.362669881141229E-003 -1.362660384367572E-003
 -1.362647876851133E-003 -1.362682370184780E-003
 -1.362681013269111E-003 -1.362649204223466E-003
 -1.362673199829701E-003 -1.362657053817811E-003
 -1.362693564569577E-003 -1.362636682560628E-003
 -1.362647888827320E-003 -1.362682314484155E-003
 -1.362636446846656E-003 -1.362693779236310E-003
 -1.362658273269378E-003 -1.362671936591599E-003
 -1.362659027972941E-003 -1.362671179018483E-003
 -1.362649169789041E-003 -1.362681019780561E-003
 -1.362645237016873E-003 -1.362684991114352E-003
 -1.362661073162000E-003 -1.362669134059325E-003
 -1.362670723535112E-003 -1.362659523288171E-003
 -1.362666870455321E-003 -1.362663351001520E-003
 -1.362662173235973E-003 -1.362668028243108E-003
 -1.362645630302048E-003 -1.362684606395810E-003
 -1.362680076322511E-003 -1.362650184195703E-003
 -1.362663779063499E-003 -1.362666435964326E-003
 -1.362638221783975E-003 -1.362692012766523E-003
 -1.362655303166020E-003 -1.362674940520525E-003
 -1.362660387174968E-003 -1.362669840655714E-003
 -1.362662445220431E-003 -1.362667797468405E-003
 -1.362638548030807E-003 -1.362691674163335E-003
 -1.362670349961199E-003 -1.362659865810707E-003
 -1.362679995894242E-003 -1.362650249296442E-003
 -1.362665226582588E-003 -1.362664977697250E-003
 -1.362673178618918E-003 -1.362657040381578E-003
 -1.362650382501524E-003 -1.362679821781804E-003
 -1.362657784518258E-003 -1.362672476792357E-003
 -1.362689866511936E-003 -1.362640344749261E-003
 -1.362658084769679E-003 -1.362672132909645E-003
 -1.362661966296138E-003 -1.362668276409199E-003
 -1.362698414800194E-003 -1.362631782843024E-003
 -1.362675796761383E-003 -1.362654417975262E-003
 -1.362652898421827E-003 -1.362677360590322E-003
 -1.362648787677053E-003 -1.362681445591814E-003
 -1.362641372490898E-003 -1.362688859366095E-003
 -1.362669481006973E-003 -1.362660758800784E-003
 -1.362682907571065E-003 -1.362647318634792E-003
 -1.362704615824062E-003 -1.362625608231326E-003
 -1.362647901869673E-003 -1.362682289880666E-003
 -1.362672617723701E-003 -1.362657596042968E-003
 -1.362671619871750E-003 -1.362658586668823E-003
 -1.362654165353333E-003 -1.362676099036908E-003
 -1.362667438224041E-003 -1.362662787906035E-003
 -1.362646387949030E-003 -1.362683808397035E-003
 -1.362655480396868E-003 -1.362674766517974E-003
 -1.362670699894972E-003 -1.362659515853602E-003
 -1.362680097046671E-003 -1.362650104098518E-003
 -1.362657551018627E-003 -1.362672712793940E-003
 -1.362668734262761E-003 -1.362661503692868E-003
 -1.362693280697721E-003 -1.362636938829353E-003
 -1.362658484038942E-003 -1.362671777918601E-003
 -1.362670060758298E-003 -1.362660171654255E-003
 -1.362657728298442E-003 -1.362672487556486E-003
 -1.362657394068896E-003 -1.362672857944444E-003
 -1.362659623996298E-003 -1.362670615299902E-003
 -1.362632479249363E-003 -1.362697728047986E-003
 -1.362654016207966E-003 -1.362676178351058E-003
 -1.362658229146830E-003 -1.362671997294163E-003
 -1.362672846459747E-003 -1.362657365359322E-003
 -1.362651345313719E-003 -1.362678915866718E-003
 -1.362643087368731E-003 -1.362687142156027E-003
 -1.362662652685624E-003 -1.362667552388165E-003
 -1.362662599406320E-003 -1.362667651752739E-003
 -1.362628420649868E-003 -1.362701794558920E-003
 -1.362652495890524E-003 -1.362677702273608E-003
 -1.362669765217520E-003 -1.362660460359090E-003
 -1.362670795578788E-003 -1.362659405760632E-003
 -1.362646300818442E-003 -1.362683922160501E-003
 -1.362649222709759E-003 -1.362681002968762E-003
 -1.362670018852297E-003 -1.362660179406217E-003
 -1.362660504839100E-003 -1.362669727234137E-003
 -1.362646786774151E-003 -1.362683437324157E-003
 -1.362672019400483E-003 -1.362658203547711E-003
 -1.362671300620933E-003 -1.362658927593834E-003
 -1.362651950836735E-003 -1.362678281205688E-003
 -1.362651909039544E-003 -1.362678302935407E-003
 -1.362675371127784E-003 -1.362654841544369E-003
 -1.362662762642668E-003 -1.362667475796413E-003
 -1.362661363367130E-003 -1.362668861936488E-003
 -1.362643701504903E-003 -1.362686504348413E-003
 -1.362660233135539E-003 -1.362670004452474E-003
 -1.362661430346013E-003 -1.362668773281017E-003
 -1.362652078682877E-003 -1.362678143811703E-003
 -1.362643662972686E-003 -1.362686536070511E-003
 -1.362675165247814E-003 -1.362655041278088E-003
 -1.362663939423795E-003 -1.362666300281074E-003
 -1.362669892146628E-003 -1.362660329695196E-003
 -1.362682188471535E-003 -1.362648010567765E-003
 -1.362651364667508E-003 -1.362678851396418E-003
 -1.362670226686536E-003 -1.362659986305526E-003
 -1.362683206685715E-003 -1.362647011355962E-003
 -1.362649980503450E-003 -1.362680247628303E-003
 -1.362662292906099E-003 -1.362667923629997E-003
 -1.362695484662922E-003 -1.362634720173085E-003
 -1.362665666222963E-003 -1.362664543003201E-003
 -1.362655265209589E-003 -1.362674980550269E-003
 -1.362661386799362E-003 -1.362668832086854E-003
 -1.362645096176738E-003 -1.362685094236694E-003
 -1.362652628919628E-003 -1.362677605090999E-003
 -1.362650919317788E-003 -1.362679286711062E-003
 -1.362671611476205E-003 -1.362658603043718E-003
 -1.362656801320701E-003 -1.362673431106632E-003
 -1.362646415768055E-003 -1.362683807256762E-003
 -1.362675916091685E-003 -1.362654285869476E-003
 -1.362659404521682E-003 -1.362670805554007E-003
 -1.362635065403702E-003 -1.362695153385103E-003
 -1.362656479213836E-003 -1.362673726940978E-003
 -1.362647682282916E-003 -1.362682549610717E-003
 -1.362658760022780E-003 -1.362671453072741E-003
 -1.362655956752461E-003 -1.362674265437454E-003
 -1.362703230182296E-003 -1.362627004468598E-003
 -1.362646139056509E-003 -1.362684069571615E-003
 -1.362696666632824E-003 -1.362633559929416E-003
 -1.362639107807845E-003 -1.362691149196241E-003
 -1.362661630468514E-003 -1.362668550825681E-003
 -1.362671543174390E-003 -1.362658689262539E-003
 -1.362672040636610E-003 -1.362658197852913E-003
 -1.362662325950531E-003 -1.362667865945513E-003
 -1.362692197712161E-003 -1.362638016326750E-003
 -1.362713020955018E-003 -1.362617198601182E-003
 -1.362673056511761E-003 -1.362657157427489E-003
 -1.362685835672508E-003 -1.362644402155165E-003
 -1.362653985450714E-003 -1.362676252595493E-003
 -1.362659143927194E-003 -1.362671035931078E-003
 -1.362638419826119E-003 -1.362691828562255E-003
 -1.362686127114923E-003 -1.362644108206601E-003
 -1.362670972959905E-003 -1.362659211268070E-003
 -1.362658046461688E-003 -1.362672181684729E-003
 -1.362704510576175E-003 -1.362625706712473E-003
 -1.362690186184440E-003 -1.362640025183142E-003
 -1.362676970414748E-003 -1.362653266956842E-003
 -1.362655809505973E-003 -1.362674453099727E-003
 -1.362669203411733E-003 -1.362660992446548E-003
 -1.362657315313184E-003 -1.362672962779667E-003
 -1.362678063065001E-003 -1.362652202043804E-003
 -1.362654133370287E-003 -1.362676094525061E-003
 -1.362691850357328E-003 -1.362638382994826E-003
 -1.362660733395785E-003 -1.362669514770610E-003
 -1.362678083016846E-003 -1.362652135466852E-003
 -1.362625675585504E-003 -1.362704552670452E-003
 -1.362683757419215E-003 -1.362646440013748E-003
 -1.362669569726957E-003 -1.362660641924630E-003
 -1.362656941978838E-003 -1.362673267477924E-003
 -1.362679144471500E-003 -1.362651122830632E-003
 -1.362669417487387E-003 -1.362660813903252E-003
 -1.362684954853759E-003 -1.362645238856323E-003
 -1.362673428605069E-003 -1.362656822670901E-003
 -1.362667651582667E-003 -1.362662573923078E-003
 -1.362649207182152E-003 -1.362680987592971E-003
 -1.362671596063851E-003 -1.362658673042596E-003
 -1.362663324562975E-003 -1.362666905889891E-003
 -1.362637196427247E-003 -1.362693027945095E-003
 -1.362672957729379E-003 -1.362657306156056E-003
 -1.362669934873798E-003 -1.362660291941150E-003
 -1.362672267810487E-003 -1.362657953396871E-003
 -1.362677688774892E-003 -1.362652564683849E-003
 -1.362663388389462E-003 -1.362666849675146E-003
 -1.362701363089781E-003 -1.362628843612386E-003
 -1.362676367773190E-003 -1.362653830649406E-003
 -1.362657081267652E-003 -1.362673142157342E-003
 -1.362659435360976E-003 -1.362670773209768E-003
 -1.362672832463881E-003 -1.362657435106918E-003
 -1.362646200949798E-003 -1.362684027283700E-003
 -1.362671954323458E-003 -1.362658253737532E-003
 -1.362666343961383E-003 -1.362663909873684E-003
 -1.362636280774697E-003 -1.362693949640812E-003
 -1.362687543078365E-003 -1.362642643660524E-003
 -1.362690012031261E-003 -1.362640224963258E-003
 -1.362676246069972E-003 -1.362653974733193E-003
 -1.362654800741917E-003 -1.362675465159658E-003
 -1.362632481495599E-003 -1.362697764626812E-003
 -1.362658085808232E-003 -1.362672115938024E-003
 -1.362692498231151E-003 -1.362637741725765E-003
 -1.362669791798521E-003 -1.362660421334380E-003
 -1.362660240340719E-003 -1.362669965516441E-003
 -1.362682588594783E-003 -1.362647607572012E-003
 -1.362685331243876E-003 -1.362644885920261E-003
 -1.362655328764058E-003 -1.362674892582134E-003
 -1.362661842529038E-003 -1.362668411033166E-003
 -1.362660034049420E-003 -1.362670173522904E-003
 -1.362665429395302E-003 -1.362664791894580E-003
 -1.362684064912028E-003 -1.362646173457625E-003
 -1.362648438879227E-003 -1.362681809805807E-003
 -1.362672529058355E-003 -1.362657683379888E-003
 -1.362690597594790E-003 -1.362639653379418E-003
 -1.362673594338544E-003 -1.362656652053010E-003
 -1.362658321581414E-003 -1.362671897707627E-003
 -1.362668264648846E-003 -1.362661985391296E-003
 -1.362697149571255E-003 -1.362633061449495E-003
 -1.362661962529432E-003 -1.362668261349501E-003
 -1.362650898568140E-003 -1.362679352043803E-003
 -1.362667567605604E-003 -1.362662636128557E-003
 -1.362674931987015E-003 -1.362655284084175E-003
 -1.362678253567140E-003 -1.362651951678807E-003
 -1.362672778495971E-003 -1.362657475164516E-003
 -1.362687841544222E-003 -1.362642373647101E-003
 -1.362667275619106E-003 -1.362662960349704E-003
 -1.362680146650410E-003 -1.362650079487916E-003
 -1.362690727732750E-003 -1.362639496837323E-003
 -1.362648337285174E-003 -1.362681879949364E-003
 -1.362664079249612E-003 -1.362666157766468E-003
 -1.362674676339866E-003 -1.362655536808266E-003
 -1.362660303973794E-003 -1.362669885040398E-003
 -1.362670225914576E-003 -1.362660015076656E-003
 -1.362669712610601E-003 -1.362660519550903E-003
 -1.362685762498499E-003 -1.362644454727789E-003
 -1.362673134218865E-003 -1.362657104460002E-003
 -1.362675241215355E-003 -1.362654954901944E-003
 -1.362676322707470E-003 -1.362653880657089E-003
 -1.362655341696716E-003 -1.362674867576855E-003
 -1.362653106756626E-003 -1.362677118138385E-003
 -1.362671088879760E-003 -1.362659129025912E-003
 -1.362685203217569E-003 -1.362645030749673E-003
 -1.362664009069629E-003 -1.362666225644931E-003
 -1.362666155207235E-003 -1.362664080803265E-003
 -1.362673969465286E-003 -1.362656250434036E-003
 -1.362654589132752E-003 -1.362675618106194E-003
 -1.362666652111833E-003 -1.362663563936794E-003
 -1.362688301033879E-003 -1.362641941971374E-003
 -1.362668585749784E-003 -1.362661629463126E-003
 -1.362685820690474E-003 -1.362644357255948E-003
 -1.362670002982911E-003 -1.362660227552510E-003
 -1.362679141851672E-003 -1.362651055052572E-003
 -1.362657678057571E-003 -1.362672516216662E-003
 -1.362666003313988E-003 -1.362664214320224E-003
 -1.362696608768582E-003 -1.362633603826511E-003
 -1.362671847771592E-003 -1.362658351894670E-003
 -1.362676054495724E-003 -1.362654175273595E-003
 -1.362681177144938E-003 -1.362649046850759E-003
 -1.362657443751593E-003 -1.362672776114466E-003
 -1.362693386515700E-003 -1.362636793192655E-003
 -1.362663892607660E-003 -1.362666328452247E-003
 -1.362674044961979E-003 -1.362656195554152E-003
 -1.362660771626065E-003 -1.362669443448821E-003
 -1.362653499674147E-003 -1.362676705970264E-003
 -1.362675224786206E-003 -1.362654981919758E-003
 -1.362673438294282E-003 -1.362656760876523E-003
 -1.362632531356520E-003 -1.362697694383575E-003
 -1.362668170338403E-003 -1.362662043272630E-003
 -1.362659726015300E-003 -1.362670493344510E-003
 -1.362649948807174E-003 -1.362680273586054E-003
 -1.362677301435754E-003 -1.362652932330589E-003
 Gradient of SCF Energy
            1           2           3           4           5           6
    1  -0.0015790  -0.0018887  -0.0001590   0.0000182   0.0032159  -0.0009841
    2  -0.0000032   0.0002033  -0.0000322  -0.0001764  -0.0002317   0.0002239
    3  -0.0007490   0.0004004  -0.0001075  -0.0033751  -0.0023490  -0.0004366
            7           8           9          10          11          12
    1   0.0026205  -0.0007711  -0.0028917   0.0016212   0.0005607   0.0014044
    2   0.0001132  -0.0001128   0.0000480  -0.0000218   0.0000874   0.0000281
    3   0.0021296   0.0002748   0.0017592   0.0004422   0.0015634   0.0006816
           13          14          15          16          17          18
    1   0.0006508   0.0001368   0.0003192   0.0003420  -0.0005221  -0.0005646
    2   0.0000016  -0.0001200  -0.0000303  -0.0000592   0.0000360   0.0000770
    3   0.0001186  -0.0023221  -0.0003743  -0.0007768   0.0007924   0.0025748
           19          20          21          22          23          24
    1  -0.0025723   0.0004535  -0.0016641   0.0003601   0.0014765   0.0001794
    2   0.0000261  -0.0000287  -0.0000373  -0.0000027  -0.0000629  -0.0000185
    3  -0.0011594   0.0002420  -0.0013294   0.0003972  -0.0014709  -0.0000486
           25          26          27          28          29          30
    1   0.0021870   0.0012867  -0.0014981  -0.0006258  -0.0000385  -0.0027853
    2   0.0000147  -0.0001993   0.0001536  -0.0002287   0.0000300   0.0002010
    3   0.0012357   0.0007090  -0.0009863  -0.0018872  -0.0000213   0.0014953
           31          32          33          34          35          36
    1   0.0018531  -0.0023639   0.0006538  -0.0021146   0.0008154  -0.0007686
    2  -0.0001032   0.0000046   0.0000234   0.0000178  -0.0000001   0.0000808
    3  -0.0015347  -0.0020222   0.0006549  -0.0008701   0.0001967   0.0018769
           37          38          39          40          41          42
    1   0.0001390  -0.0005244   0.0004658   0.0003068   0.0010466   0.0016058
    2   0.0000064   0.0000628  -0.0000564  -0.0000709   0.0000500  -0.0000634
    3   0.0000795   0.0005867  -0.0007435  -0.0032887   0.0012182  -0.0001951
           43          44          45          46          47          48
    1   0.0012423   0.0003626  -0.0020052  -0.0001526  -0.0006447  -0.0008226
    2  -0.0000323   0.0000069   0.0001063   0.0000232   0.0001645  -0.0001799
    3   0.0009781   0.0004646   0.0011865   0.0003810   0.0037998  -0.0006452
           49          50          51          52          53          54
    1   0.0030773  -0.0000552  -0.0010925  -0.0018896  -0.0019161   0.0016194
    2  -0.0000017   0.0000946   0.0000603  -0.0002144   0.0025106  -0.0039183
    3   0.0013674  -0.0007491  -0.0005459  -0.0012143  -0.0001987   0.0020919
           55          56          57          58          59          60
    1   0.0000751  -0.0015440   0.0033453  -0.0020231   0.0005472  -0.0002214
    2  -0.0000473  -0.0023305   0.0035272   0.0007682  -0.0000387   0.0016341
    3   0.0001455  -0.0016324   0.0004770  -0.0008830   0.0001840  -0.0015765
           61          62          63          64          65          66
    1  -0.0017316   0.0048408  -0.0025450   0.0051705  -0.0004125   0.0006339
    2   0.0015313  -0.0001105   0.0013580  -0.0039859   0.0017874  -0.0039369
    3   0.0024984  -0.0045858   0.0004280   0.0002675  -0.0022073   0.0047615
           67          68          69          70          71          72
    1   0.0020358  -0.0040767   0.0012906  -0.0045132  -0.0018443   0.0006870
    2  -0.0001015  -0.0000880  -0.0024066   0.0034695  -0.0013453  -0.0013611
    3  -0.0014786   0.0043630  -0.0013230   0.0000907   0.0006396  -0.0030879
           73          74          75          76          77          78
    1  -0.0008156  -0.0014536   0.0040432  -0.0023084   0.0048954   0.0000164
    2  -0.0002843  -0.0009364   0.0029038  -0.0014208   0.0031791  -0.0001305
    3   0.0067043  -0.0023657   0.0042513   0.0008176  -0.0020413   0.0024595
           79          80          81          82          83          84
    1   0.0010962   0.0000323  -0.0031866  -0.0014628   0.0008104   0.0010967
    2   0.0003340   0.0022752  -0.0024852   0.0016197  -0.0011401  -0.0004814
    3  -0.0057812   0.0018971  -0.0037585  -0.0019498   0.0015396   0.0002706
           85          86          87          88          89          90
    1  -0.0026260   0.0007425   0.0019380  -0.0015662   0.0005727   0.0010532
    2  -0.0014127   0.0003282   0.0010366   0.0015498  -0.0009019  -0.0002788
    3  -0.0001433   0.0006494  -0.0000375  -0.0016440   0.0012961   0.0003270
           91          92          93          94          95          96
    1   0.0000674  -0.0020443   0.0013331   0.0008369   0.0002434  -0.0014883
    2  -0.0002757  -0.0013589   0.0006622   0.0001409   0.0004071  -0.0001068
    3   0.0002959  -0.0007440  -0.0000230   0.0008343  -0.0001408  -0.0007269
           97          98          99         100         101         102
    1  -0.0023060  -0.0006644   0.0013450   0.0022475   0.0002414   0.0012378
    2   0.0036912   0.0000656   0.0022884   0.0003328  -0.0002165  -0.0020654
    3  -0.0021431   0.0008846   0.0003597   0.0012242  -0.0010445   0.0011257
          103         104         105         106         107         108
    1  -0.0024119  -0.0000244  -0.0011754   0.0006369  -0.0004174   0.0009675
    2  -0.0040892  -0.0000902   0.0007979   0.0008805   0.0007683  -0.0007584
    3  -0.0005843  -0.0001179   0.0005288   0.0003870   0.0016859   0.0011183
          109         110         111         112         113         114
    1   0.0003927   0.0012244   0.0005082   0.0003668   0.0000071  -0.0006724
    2  -0.0002664  -0.0010419  -0.0004909  -0.0004889  -0.0002161  -0.0006261
    3   0.0005523  -0.0003459  -0.0002030  -0.0014528  -0.0009112  -0.0001259
          115         116         117         118         119         120
    1  -0.0017687  -0.0000769   0.0006365   0.0012763   0.0014191   0.0007648
    2   0.0009490  -0.0009113  -0.0008322  -0.0009713   0.0008395   0.0003419
    3  -0.0013557  -0.0009795   0.0003953  -0.0013129  -0.0000177  -0.0000636
          121         122         123         124         125         126
    1   0.0003462   0.0001473  -0.0009525  -0.0007585  -0.0005143  -0.0020783
    2   0.0012146   0.0006352   0.0006204   0.0002574   0.0004316  -0.0011433
    3   0.0010148   0.0005197   0.0011659   0.0005777  -0.0006258  -0.0003786
          127         128         129         130         131         132
    1  -0.0004560  -0.0015024   0.0013962   0.0039335  -0.0027409   0.0002087
    2  -0.0002272  -0.0006803   0.0009625   0.0004302   0.0003705  -0.0008350
    3   0.0046421  -0.0021518  -0.0006157  -0.0027047  -0.0003703   0.0016333
          133         134         135         136         137         138
    1   0.0028043  -0.0022678  -0.0006445   0.0012947  -0.0015894  -0.0005662
    2  -0.0008865  -0.0019650   0.0013410   0.0002942   0.0012593   0.0016661
    3  -0.0033213   0.0008557  -0.0005865   0.0018192   0.0040437  -0.0025660
          139         140
    1  -0.0007576   0.0022765
    2  -0.0015836  -0.0000485
    3  -0.0001615   0.0002417
 Max gradient component =       6.704E-03
 RMS gradient           =       1.605E-03
 Computing fast IEFPCM-SWIG gradient.
