140
 Final energy is   -3084.72529963357     
C        -0.0850591555    0.7577586593    0.0338295727
C        -0.1384105847    0.8369748226    1.4455244839
H         0.7848271985    0.8509527634    2.0181000304
C        -1.3430870414    0.8947563734    2.1005528063
C        -2.5551190801    0.8695044515    1.3494462318
C        -2.5250529132    0.7960092913   -0.0219090369
H        -3.4529349236    0.7759707420   -0.5845625038
C        -1.3022129396    0.7424892011   -0.7158052733
C        -3.6728701015    0.9307010774    2.2815998833
C        -5.0406286664    0.9342591111    2.1600112937
H        -5.5272896765    0.8852641643    1.1934852618
C        -5.8227717388    1.0026700615    3.3357408492
H        -6.9012508936    1.0040758038    3.2391204210
C        -5.2659941723    1.0674252707    4.5928030188
H        -5.9050479835    1.1189977146    5.4659593206
C        -3.1103223100    0.9952245764    3.5715994976
C        -3.8573579564    1.0654912750    4.7438639206
C        -1.7013748439    0.9783452499    3.5174241539
C        -1.0105231045    1.0390668963    4.7007504801
H         0.0720951018    1.0332492046    4.7296899390
C        -1.7413555099    1.1129611905    5.9098633442
H        -1.1923418419    1.1618116750    6.8417050532
C        -3.1170839979    1.1260241805    5.9482658841
H        -3.6320715728    1.1835212874    6.8995096072
B        -1.2844749973    0.6488561677   -2.2542592360
B         1.2453459286    0.6683532268   -0.7095173852
C         1.2902140865    0.6104175083   -2.2353626883
C         2.5228240140    0.5414895816   -2.9248686288
H         3.4538028402    0.5262488989   -2.3662135676
C         2.5590103946    0.4928883752   -4.2934625975
C         3.6683416277    0.4266409631   -5.2464740867
C         5.0376612551    0.3887563542   -5.1602640995
H         5.5498257335    0.4042989233   -4.2059652503
C         5.7911382876    0.3281629151   -6.3558630712
H         6.8711784365    0.2984823409   -6.2847828622
C         5.2069521243    0.3053592301   -7.6022084295
H         5.8270026293    0.2589356094   -8.4893486973
C         3.0824704978    0.4020778873   -6.5290855806
C         3.7969108009    0.3427972956   -7.7233755592
C         1.6746288671    0.4469216569   -6.4546984783
C         0.9548621499    0.4316937981   -7.6247178204
H        -0.1278075635    0.4650127667   -7.6289014636
C         1.6564268973    0.3715165361   -8.8508296868
H         1.0865884268    0.3600804161   -9.7716010410
C         3.0304563567    0.3279328729   -8.9158567479
H         3.5246993172    0.2828290588   -9.8788197786
C         1.3400576331    0.5038808917   -5.0371305665
C         0.1306804478    0.5546416921   -4.3869419450
H        -0.7921515675    0.5518072246   -4.9591662758
C         0.0704041615    0.6092389868   -2.9807897468
C         2.6068799049    0.5641746763    0.0853590904
C         2.9931669736   -0.6763264108    0.6584732813
C         4.1959008083   -0.7888782361    1.3131874680
H         4.5024427704   -1.7474826423    1.7136561319
C         5.0718876361    0.3110848529    1.3914636705
C         4.6978006376    1.5444066125    0.8209897583
H         5.3542244377    2.4004735617    0.9184841969
C         3.4803948307    1.6786088962    0.1974801907
N         6.2881613270    0.1750281812    2.0085080131
C         6.4387113195   -0.7033954791    3.0998973562
C         7.5505207965   -1.5408826000    3.1745180676
H         8.2990379245   -1.5269473582    2.3929912251
C         7.6700969361   -2.4135501595    4.2409181349
H         8.5235155778   -3.0757290276    4.2934961965
C         6.6942239463   -2.4529952860    5.2293731841
H         6.7926992357   -3.1400332327    6.0589257074
C         5.5939521131   -1.6094517177    5.1540378004
H         4.8386894535   -1.6288268406    5.9277654061
C         5.4616114923   -0.7301599728    4.0947154853
H         4.6142724741   -0.0583055788    4.0449970110
C         7.4050281910    0.8922788265    1.5375516851
C         8.2785862037    1.4938761694    2.4407414605
H         8.0927588780    1.4286040225    3.5048203340
C         9.3679542227    2.1970995547    1.9598214254
H        10.0414967837    2.6779061706    2.6559500094
C         9.5902486093    2.2991910950    0.5918096741
H        10.4437620285    2.8520661480    0.2234837986
C         8.7203687404    1.6895960551   -0.3026649279
H         8.8985121538    1.7555086838   -1.3672943858
C         7.6280463497    0.9810447609    0.1632985294
H         6.9616682154    0.4828290225   -0.5293631062
C         2.1364557207   -1.9042375766    0.5003935838
H         2.3314332679   -2.5855943313    1.3321669335
H         1.0822698023   -1.6318037111    0.5622785960
C         3.0653161477    3.0250622348   -0.3280517246
H         2.5633479947    2.9067150559   -1.2901279879
H         3.9547222785    3.6316160027   -0.5141015578
C         2.3937237643   -2.6299127830   -0.8199926644
H         2.1528741249   -1.9995019276   -1.6749866435
H         3.4371034710   -2.9362250205   -0.9078299560
H         1.7746615679   -3.5245900468   -0.8858178191
C         2.1371919495    3.7611310481    0.6362896916
H         1.2159756742    3.2041064427    0.8031911230
H         2.6169362892    3.9221245796    1.6026952580
H         1.8627180521    4.7346297578    0.2305162085
C        -2.6445021888    0.5612858566   -3.0652349433
C        -3.3081465637   -0.6676649035   -3.2086658117
C        -4.5277542545   -0.7434704578   -3.8697657766
H        -5.0374233795   -1.6982338837   -3.9441033974
C        -5.1049008688    0.3868411194   -4.4304155178
C        -4.4414441129    1.6009438921   -4.3251792292
H        -4.8811058744    2.4886536648   -4.7677136300
C        -3.2349985743    1.6968146581   -3.6403934584
N        -6.3600211738    0.3130969869   -5.0769163093
C        -7.3659570087    1.2215279552   -4.7129306136
C        -8.2175935485    1.7595926328   -5.6784637912
H        -8.0971135490    1.4788598379   -6.7171467669
C        -9.2143871848    2.6495803163   -5.3143612306
H        -9.8658429455    3.0563625341   -6.0774435020
C        -9.3690748964    3.0353585202   -3.9898427144
H       -10.1439093146    3.7369130115   -3.7104904632
C        -8.5152313271    2.5110540647   -3.0296688287
H        -8.6244920600    2.7978954911   -1.9915838540
C        -7.5275789071    1.6054990670   -3.3818881330
H        -6.8761172217    1.1926523763   -2.6225308740
C        -6.6373573563   -0.7422388253   -5.9552482660
C        -7.8870630375   -1.3652365202   -5.9594044984
H        -8.6564931280   -1.0373985677   -5.2724106328
C        -8.1500390287   -2.4056417180   -6.8358472792
H        -9.1261996918   -2.8737810423   -6.8216080264
C        -7.1727532218   -2.8615421665   -7.7088291957
H        -7.3789836326   -3.6797065110   -8.3860951564
C        -5.9246108783   -2.2540418275   -7.6970519841
H        -5.1500076867   -2.5940158152   -8.3727163888
C        -5.6576086487   -1.2005445979   -6.8386534871
H        -4.6827912525   -0.7304487901   -6.8485876774
C        -2.7125889792   -1.9499327907   -2.6864427924
H        -2.0907290898   -1.7520586819   -1.8110986791
H        -3.5130751163   -2.6143339459   -2.3492078905
C        -2.6154634212    3.0610766050   -3.4896809454
H        -1.5354072409    2.9751039310   -3.3535478808
H        -2.7635840077    3.6341955311   -4.4092657436
C        -1.8817394581   -2.6653664872   -3.7501419679
H        -1.0538340937   -2.0403094222   -4.0853513802
H        -1.4616109581   -3.5942534122   -3.3612438071
H        -2.4888601534   -2.9122718908   -4.6227062611
C        -3.2174876592    3.8286616235   -2.3146549365
H        -3.0432863076    3.3031781362   -1.3753398018
H        -2.7782078448    4.8233608121   -2.2264925566
H        -4.2955557971    3.9468647359   -2.4354320171
