mFile = /cm/shared/apps/q-chem/intel/QCHEM_5.1.0_Trunk/bin/mpi/machines
Process 0 of 1 is on ctcp042 - thread support 0
initial socket setup ...start
initial socket setup ...done 
now start server 0 ... 
Q-Chem Developer Version!
                  Welcome to Q-Chem
     A Quantum Leap Into The Future Of Chemistry


 Q-Chem 5.1, Q-Chem, Inc., Pleasanton, CA (2018)

 Yihan Shao,  Zhengting Gan,  E. Epifanovsky,  A. T. B. Gilbert,  M. Wormit,  
 J. Kussmann,  A. W. Lange,  A. Behn,  Jia Deng,  Xintian Feng,  D. Ghosh,  
 M. Goldey,  P. R. Horn,  L. D. Jacobson,  I. Kaliman,  T. Kus,  A. Landau,  
 Jie Liu,  E. I. Proynov,  R. M. Richard,  R. P. Steele,  E. J. Sundstrom,  
 H. L. Woodcock III,  P. M. Zimmerman,  D. Zuev,  B. Albrecht,  E. Alguire,  
 S. A. Baeppler,  D. Barton,  Z. Benda,  Y. A. Bernard,  E. J. Berquist,  
 K. B. Bravaya,  H. Burton,  D. Casanova,  Chun-Min Chang,  Yunqing Chen,  
 A. Chien,  K. D. Closser,  M. P. Coons,  S. Coriani,  S. Dasgupta,  
 A. L. Dempwolff,  M. Diedenhofen,  Hainam Do,  R. G. Edgar,  Po-Tung Fang,  
 S. Faraji,  S. Fatehi,  Qingguo Feng,  K. D. Fenk,  J. Fosso-Tande,  
 Qinghui Ge,  A. Ghysels,  G. Gidofalvi,  J. Gomes,  J. Gonthier,  A. Gunina,  
 D. Hait,  M. W. D. Hanson-Heine,  P. H. P. Harbach,  A. W. Hauser,  
 J. E. Herr,  E. G. Hohenstein,  Z. C. Holden,  Kerwin Hui,  B. C. Huynh,  
 T.-C. Jagau,  Hyunjun Ji,  B. Kaduk,  K. Khistyaev,  Jaehoon Kim,  
 P. Klunzinger,  K. Koh,  D. Kosenkov,  L. Koulias,  T. Kowalczyk,  
 C. M. Krauter,  A. Kunitsa,  Ka Un Lao,  A. Laurent,  K. V. Lawler,  
 Joonho Lee,  D. Lefrancois,  S. Lehtola,  D. S. Levine,  Yi-Pei Li,  
 You-Sheng Lin,  Fenglai Liu,  E. Livshits,  A. Luenser,  P. Manohar,  
 E. Mansoor,  S. F. Manzer,  Shan-Ping Mao,  Yuezhi Mao,  N. Mardirossian,  
 A. V. Marenich,  T. Markovich,  L. A. Martinez-Martinez,  S. A. Maurer,  
 N. J. Mayhall,  S. C. McKenzie,  J.-M. Mewes,  A. F. Morrison,  
 J. W. Mullinax,  K. Nanda,  T. S. Nguyen-Beck,  R. Olivares-Amaya,  
 J. A. Parkhill,  T. M. Perrine,  F. Plasser,  P. Pokhilko,  S. Prager,  
 A. Prociuk,  E. Ramos,  D. R. Rehn,  F. Rob,  M. Schneider,  N. Sergueev,  
 S. M. Sharada,  S. Sharma,  D. W. Small,  T. Stauch,  T. Stein,  
 Yu-Chuan Su,  A. J. W. Thom,  A. Tkatchenko,  T. Tsuchimochi,  N. M. Tubman,  
 L. Vogt,  M. L. Vidal,  O. Vydrov,  M. A. Watson,  J. Wenzel,  
 M. de Wergifosse,  T. A. Wesolowski,  A. White,  J. Witte,  A. Yamada,  
 Jun Yang,  K. Yao,  S. Yeganeh,  S. R. Yost,  Zhi-Qiang You,  A. Zech,  
 Igor Ying Zhang,  Xing Zhang,  Yan Zhao,  Ying Zhu,  B. R. Brooks,  
 G. K. L. Chan,  C. J. Cramer,  M. S. Gordon,  W. J. Hehre,  A. Klamt,  
 M. W. Schmidt,  C. D. Sherrill,  D. G. Truhlar,  A. Aspuru-Guzik,  R. Baer,  
 A. T. Bell,  N. A. Besley,  Jeng-Da Chai,  A. E. DePrince, III,  
 R. A. DiStasio Jr.,  A. Dreuw,  B. D. Dunietz,  T. R. Furlani,  
 Chao-Ping Hsu,  Yousung Jung,  Jing Kong,  D. S. Lambrecht,  WanZhen Liang,  
 C. Ochsenfeld,  V. A. Rassolov,  L. V. Slipchenko,  J. E. Subotnik,  
 T. Van Voorhis,  J. M. Herbert,  A. I. Krylov,  P. M. W. Gill,  M. Head-Gordon

 Contributors to earlier versions of Q-Chem not listed above: 
 R. D. Adamson,  B. Austin,  J. Baker,  G. J. O. Beran,  K. Brandhorst,  
 S. T. Brown,  E. F. C. Byrd,  A. K. Chakraborty,  C.-L. Cheng,  
 Siu Hung Chien,  D. M. Chipman,  D. L. Crittenden,  H. Dachsel,  
 R. J. Doerksen,  A. D. Dutoi,  L. Fusti-Molnar,  W. A. Goddard III,  
 A. Golubeva-Zadorozhnaya,  S. R. Gwaltney,  G. Hawkins,  A. Heyden,  
 S. Hirata,  G. Kedziora,  F. J. Keil,  C. Kelley,  Jihan Kim,  R. A. King,  
 R. Z. Khaliullin,  P. P. Korambath,  W. Kurlancheek,  A. M. Lee,  M. S. Lee,  
 S. V. Levchenko,  Ching Yeh Lin,  D. Liotard,  R. C. Lochan,  I. Lotan,  
 P. E. Maslen,  N. Nair,  D. P. O'Neill,  D. Neuhauser,  E. Neuscamman,  
 C. M. Oana,  R. Olson,  B. Peters,  R. Peverati,  P. A. Pieniazek,  
 Y. M. Rhee,  J. Ritchie,  M. A. Rohrdanz,  E. Rosta,  N. J. Russ,  
 H. F. Schaefer III,  N. E. Schultz,  N. Shenvi,  A. C. Simmonett,  A. Sodt,  
 D. Stuck,  K. S. Thanthiriwatte,  V. Vanovschi,  Tao Wang,  A. Warshel,  
 C. F. Williams,  Q. Wu,  X. Xu,  W. Zhang

 Please cite Q-Chem as follows:
 Y. Shao et al., Mol. Phys. 113, 184-215 (2015)
 DOI: 10.1080/00268976.2014.952696

 Q-Chem 5.1.1 for Intel X86 EM64T Linux

 Parts of Q-Chem use Armadillo 8.300.2 (Tropical Shenanigans).
 http://arma.sourceforge.net/

 Q-Chem begins on Tue Dec 18 22:53:11 2018  

Host: ctcp042
0

     Scratch files written to /scratch/mewes/142071/qchem14054//
 Parallel job on  1  processors
The previous job contains 0 fragments, simply inherited here
Symmetry turned off for PCM/SM12/SMD calculation
Input Ideriv = 2
Curr. Ideriv = -1
Max.  Ideriv = 2
Input Ideriv = 2
Curr. Ideriv = 2
Max.  Ideriv = 2

Checking the input file for inconsistencies... 	...done.

--------------------------------------------------------------
User input:
--------------------------------------------------------------
$rem
threads 8
jobtype	opt
method PBEh-3c
basis def2-mSVP
mem_static	512
mem_total	6096
sym_ignore	true
solvent_method  pcm
$end

$pcm
theory iefpcm
$end 
$solvent
dielectric 7 
$end

$molecule
read incoords.mol
$end

--------------------------------------------------------------
 Adding empirical dispersion correction 
 ----------------------------------------------------------------
 Doing -D3(BJ) with
 s6 =   1.00000
 s8 =   0.00000
 a1 =   0.48600
 a2 =   4.50000
 -D3 energy including 3body term =     -0.0865950921 hartrees
 ----------------------------------------------------------------
 Adding gCP correction 
 ----------------------------------------------------------------
 gCP energy =      0.1196193969 hartrees
 ----------------------------------------------------------------
             Standard Nuclear Orientation (Angstroms)
    I     Atom           X                Y                Z
 ----------------------------------------------------------------
    1      C      -9.3025700000     4.0358400000     0.1372100000
    2      C      -9.3907800000     2.9089100000     1.0147200000
    3      B      -8.3076300000     1.7636600000     0.9603700000
    4      C      -7.1075300000     1.8984900000    -0.0527000000
    5      C      -7.0238900000     3.0195400000    -0.9351800000
    6      B      -8.1232700000     4.1961900000    -0.9649200000
    7      C      -5.9413100000     3.1151700000    -1.8430100000
    8      C      -4.9723300000     2.1227800000    -1.8352100000
    9      C      -5.0456100000     1.0477100000    -0.9679700000
   10      C      -6.0941900000     0.9094800000    -0.0709000000
   11      C     -10.2849100000     5.0551500000     0.2114200000
   12      C     -11.3127600000     4.9289800000     1.1337900000
   13      C     -11.4025400000     3.8319600000     1.9708400000
   14      C     -10.4659600000     2.8104300000     1.9309400000
   15      H     -10.2454100000     5.9249800000    -0.4328200000
   16      C      -8.4071300000     0.5009200000     1.9308100000
   17      C      -7.3325200000     5.6397200000    -0.7195100000
   18      C      -8.7436400000    -0.7766200000     1.4066200000
   19      C      -8.8311200000    -1.8792000000     2.2703000000
   20      C      -8.5878100000    -1.7368100000     3.6400100000
   21      C      -8.2528900000    -0.4835200000     4.1588700000
   22      C      -8.1589500000     0.6402800000     3.3234000000
   23      C      -7.7587200000     1.9644500000     3.9325800000
   24      C      -9.0434400000    -0.9794800000    -0.0609700000
   25      H      -9.0938600000    -2.8531000000     1.8744000000
   26      C      -8.6819000000    -2.9199100000     4.5590700000
   27      H      -8.0596600000    -0.3859100000     5.2209300000
   28      H      -6.8187700000     2.3211300000     3.4619000000
   29      H      -7.5794000000     1.8782800000     5.0252400000
   30      H      -8.5486200000     2.7255500000     3.7886000000
   31      H      -9.9002800000    -0.3392100000    -0.3590600000
   32      H      -9.3115700000    -2.0335200000    -0.2861700000
   33      H      -8.1639100000    -0.7226000000    -0.6824700000
   34      H      -8.9550600000    -3.8464900000     4.0105300000
   35      H      -9.4557900000    -2.7306100000     5.3325100000
   36      H      -7.7031800000    -3.0841600000     5.0570900000
   37      C      -6.7395200000     5.9015000000     0.5721800000
   38      C      -6.0900700000     7.1206500000     0.8198900000
   39      C      -5.9975800000     8.1010200000    -0.1557300000
   40      C      -6.5395100000     7.8717900000    -1.4102700000
   41      C      -7.1914700000     6.6692400000    -1.7320000000
   42      C      -7.6493400000     6.6013400000    -3.1771700000
   43      C      -6.7682200000     4.9192200000     1.7232200000
   44      H      -5.6524700000     7.3108400000     1.7931200000
   45      C      -5.3043000000     9.4028800000     0.1283900000
   46      H      -6.4389800000     8.6444000000    -2.1659700000
   47      H      -8.0465600000     5.6739200000    -3.5836600000
   48      H      -6.7704700000     6.7997700000    -3.8277600000
   49      H      -8.3999500000     7.3990600000    -3.3613000000
   50      H      -7.8006000000     4.7367900000     2.0661000000
   51      H      -6.2291300000     5.3031900000     2.6151300000
   52      H      -6.2627200000     3.9770200000     1.4436400000
   53      H      -4.9161700000     9.4462900000     1.1683200000
   54      H      -6.0163600000    10.2430900000    -0.0135500000
   55      H      -4.4494000000     9.5303800000    -0.5687700000
   56      C      -3.7560300000     1.9617900000    -2.6333400000
   57      C     -12.5916000000     4.0112000000     2.8051800000
   58      C     -13.1775300000     3.2453600000     3.8140400000
   59      C      -1.9547000000     2.2536100000    -4.2109100000
   60      C      -1.3570600000     1.0476800000    -3.7510800000
   61      C      -1.9801500000     0.3107000000    -2.7250300000
   62      C     -14.9226800000     4.9781400000     4.0178800000
   63      C     -14.3576000000     3.7382000000     4.4254600000
   64      H     -14.8330800000     3.1651900000     5.2106400000
   65      H      -0.4291000000     0.7026800000    -4.1895300000
   66      C      -3.1600100000     0.8065700000    -2.2103400000
   67      H      -6.1178400000     0.0560100000     0.5938000000
   68      C      -3.1690200000     2.7197800000    -3.6474600000
   69      H      -1.4774100000     2.8214500000    -4.9987400000
   70      H      -3.6270900000     3.6369300000    -3.9935500000
   71      H      -5.8551900000     3.9479300000    -2.5306100000
   72      C      -3.8757300000     0.2034300000    -1.2141000000
   73      C      -1.4894800000    -0.8938900000    -2.1842500000
   74      C      -2.2137600000    -1.5435400000    -1.1468200000
   75      C      -3.4221700000    -0.9911600000    -0.6529800000
   76      H      -1.8384300000    -2.4688500000    -0.7298500000
   77      H      -3.9764200000    -1.4814900000     0.1364300000
   78      H     -10.5706000000     1.9662300000     2.5994400000
   79      H     -12.7435600000     2.3029700000     4.1211900000
   80      C     -13.1555900000     5.1994200000     2.4331900000
   81      C     -12.4447200000     5.8064300000     1.4358200000
   82      C     -12.8682700000     7.0335700000     0.9236300000
   83      C     -14.0412800000     7.6144200000     1.4676900000
   84      C     -14.7609100000     6.9602100000     2.5054900000
   85      C     -14.3013400000     5.7223200000     2.9959500000
   86      H     -14.3925100000     8.5655600000     1.0896500000
   87      H     -15.6552800000     7.4147000000     2.9128100000
   88      H     -12.3172200000     7.5278000000     0.1344500000
   89      H     -15.8242500000     5.3437000000     4.4931700000
   90      H      -0.5674600000    -1.3260200000    -2.5523800000
   91      O      -8.7795200000     4.0880300000    -2.2910600000
   92      H      -9.1628100000     3.1746900000    -2.3576600000
   93      H      -9.5724200000     4.6827600000    -2.3017200000
 ----------------------------------------------------------------
 Nuclear Repulsion Energy =  6467.6055305072 hartrees
 There are      179 alpha and      179 beta electrons
 Requested basis set is def2-mSVP
 There are 451 shells and 875 basis functions

 Total QAlloc Memory Limit   6096 MB
 Mega-Array Size       501 MB
 MEM_STATIC part       512 MB
 Discretize the solute cavity surface with Lebedev spheres
	Using 302 Lebedev grid points for each H atom
	Using 302 Lebedev grid points for other atoms
	Atomic van der Waals radii will be scaled by 1.20
 Remove points where switching function is < 1.0e-08
 Keep 9656 surface tesserae and discard 18430 interior tesserae
 Molecular Surface Area = 712.740 Angst**2
 A cutoff of  1.0D-11 yielded  38752 shell pairs
 There are    153024 function pairs (    168789 Cartesian)
 
 -------------------------------------------------------
 OpenMP Integral Computing Module                       
 Release: version 1.0, May 2013, Q-Chem Inc. Pittsburgh 
 -------------------------------------------------------
 Integral Job Info:
 Integral job number is                      11
 Integral operator is                         1
 short-range coefficients                     0
 long-range coefficients              100000000
 Omega coefficients                           0
 if combine SR and LR in K                    0
 Integral screening is                        0
 Integral computing path is                   2
 max size of driver memory is            800000
 size of driver memory is                593474
 size of scratch memory is              1809772
 max col of scratch BK array               1296
 max len of scratch array in speh3          155
 max len of scratch index in speh4           18
 max int batch size is                      520
 min int batch size is                       52
 fixed nKL is                                52
 max L of basis functions is                  2
 order of int derivative is                   0
 number of shells is                        451
 number of basis is                         928
 number of cartesian basis is               928
 number of contracted shell pairs         38752
 number of primitive shell pairs          81287
 maxK2 (contraction) of shell pair           25
 max number of K2 of shell pair               1
 max number of CS2 of shell pair           9344
 max number of PS2 of shell pair          14235
 mem total for path MDJ                  900556
 -------------------------------------------------------
 Smallest overlap matrix eigenvalue = 1.78E-04

 Scale SEOQF with 1.000000e-02/1.000000e-02/1.000000e-02

 Standard Electronic Orientation quadrupole field applied
 Nucleus-field energy     =     0.0000001244 hartrees
 Guess from superposition of atomic densities
 Warning:  Energy on first SCF cycle will be non-variational
 SAD guess density has 358.000000 electrons

 -----------------------------------------------------------------------
  General SCF calculation program by
  Eric Jon Sundstrom, Paul Horn, Yuezhi Mao, Dmitri Zuev, Alec White,
  David Stuck, Shaama M.S., Shane Yost, Joonho Lee, David Small,
  Daniel Levine, Susi Lehtola, Hugh Burton, Evgeny Epifanovsky
 -----------------------------------------------------------------------
 Exchange:     0.4200 Hartree-Fock + 0.5800 PBEh-3c
 Correlation:  1.0000 PBEh-3c
 Using SG-1 standard quadrature grid
 Dispersion:   Grimme D3
 using 8 threads for integral computing
 -------------------------------------------------------
 OpenMP Integral computing Module                
 Release: version 2.0, May 2017, Q-Chem Inc. Pleasanton 
 -------------------------------------------------------
 -------------------------------------------------------
 OpenMP BLAS3 based DFT computing Module                
 Release: version 1.0, May 2013, Q-Chem Inc. Pittsburgh 
 -------------------------------------------------------
 A restricted SCF calculation will be
 performed using DIIS
 SCF converges when DIIS error is below 1.0e-08
 ---------------------------------------
  Cycle       Energy         DIIS error
 ---------------------------------------
 Using non-symmetric K matrix
    1   -2066.7751736867      2.85e-02  
    2   -2049.5284844932      1.90e-03  
    3   -2049.7649761404      1.32e-03  
    4   -2049.9362123828      3.34e-04  
    5   -2049.9443980902      1.81e-04  
    6   -2049.9476123797      4.17e-05  
    7   -2049.9477773010      1.26e-05  
    8   -2049.9477935549      3.36e-06  
    9   -2049.9477947326      1.04e-06  
   10   -2049.9477948665      4.66e-07  
   11   -2049.9477948981      1.55e-07  
   12   -2049.9477949022      7.45e-08  
   13   -2049.9477949030      1.80e-08  
   14   -2049.9477949030      1.09e-08  
   15   -2049.9477949031      4.25e-09  Convergence criterion met
 ---------------------------------------
 SCF time:   CPU 8666.70s  wall 1132.00s 

************** Final PCM Free Energy Summary **************
 G_electrostatic  =      -0.04309288 hartree =     -27.04118726 kcal/mol
 G_cavitation     =       0.00000000 hartree =       0.00000000 kcal/mol
 G_dispersion     =       0.00000000 hartree =       0.00000000 kcal/mol
 G_repulsion      =       0.00000000 hartree =       0.00000000 kcal/mol
 --------------------------------------------------
 Non-electrostatic Free Energy =       0.00000000 hartree =       0.00000000 kcal/mol
 Total                         =      -0.04309288 hartree =     -27.04118726 kcal/mol
 --------------------------------------------------
 SCF Energy (H0 + V/2)                       =   -2049.94779490 
 Solute Internal Energy (H0)                 =   -2049.90470203 
 Total Free Energy (H0 + V/2 + non-elec)     =   -2049.94779490 hartree
                                             = -1286361.65635723 kcal/mol
***********************************************************

 SCF   energy in the final basis set =    -2049.9477949031
 Total energy in the final basis set =    -2049.9477949031
 
 --------------------------------------------------------------
 
                    Orbital Energies (a.u.)
 --------------------------------------------------------------
 
 Alpha MOs
 -- Occupied --
-19.611 -10.465 -10.463 -10.463 -10.463 -10.462 -10.462 -10.462
-10.461 -10.461 -10.461 -10.461 -10.460 -10.460 -10.459 -10.457
-10.456 -10.456 -10.455 -10.455 -10.455 -10.454 -10.453 -10.451
-10.451 -10.450 -10.449 -10.448 -10.447 -10.447 -10.446 -10.443
-10.439 -10.437 -10.436 -10.434 -10.433 -10.433 -10.432 -10.432
-10.431 -10.430 -10.430 -10.429 -10.428 -10.428 -10.428 -10.426
-10.424 -10.424 -10.417  -6.947  -6.939  -1.243  -1.021  -1.019
 -0.956  -0.953  -0.949  -0.940  -0.924  -0.923  -0.902  -0.895
 -0.866  -0.864  -0.858  -0.855  -0.845  -0.844  -0.842  -0.842
 -0.815  -0.801  -0.799  -0.799  -0.773  -0.768  -0.753  -0.752
 -0.747  -0.743  -0.727  -0.723  -0.722  -0.714  -0.696  -0.685
 -0.681  -0.676  -0.657  -0.649  -0.645  -0.640  -0.635  -0.631
 -0.629  -0.618  -0.591  -0.589  -0.582  -0.579  -0.571  -0.568
 -0.561  -0.544  -0.541  -0.535  -0.533  -0.531  -0.523  -0.520
 -0.518  -0.507  -0.502  -0.493  -0.490  -0.489  -0.488  -0.486
 -0.485  -0.484  -0.479  -0.478  -0.477  -0.475  -0.472  -0.469
 -0.464  -0.462  -0.462  -0.460  -0.460  -0.457  -0.453  -0.449
 -0.448  -0.443  -0.441  -0.439  -0.435  -0.433  -0.431  -0.426
 -0.420  -0.418  -0.416  -0.406  -0.402  -0.399  -0.395  -0.393
 -0.388  -0.388  -0.386  -0.386  -0.381  -0.379  -0.378  -0.374
 -0.371  -0.365  -0.356  -0.346  -0.339  -0.324  -0.320  -0.307
 -0.304  -0.295  -0.293  -0.273  -0.272  -0.264  -0.261  -0.257
 -0.251  -0.247  -0.240
 -- Virtual --
 -0.072  -0.058  -0.034  -0.004  -0.002   0.012   0.017   0.022
  0.025   0.028   0.032   0.056   0.075   0.077   0.083   0.093
  0.119   0.131   0.142   0.146   0.155   0.155   0.159   0.161
  0.165   0.166   0.167   0.170   0.175   0.176   0.178   0.182
  0.185   0.187   0.192   0.195   0.199   0.200   0.203   0.204
  0.205   0.206   0.208   0.210   0.213   0.217   0.219   0.221
  0.224   0.226   0.228   0.230   0.233   0.236   0.241   0.243
  0.245   0.246   0.250   0.255   0.257   0.259   0.262   0.264
  0.266   0.268   0.269   0.270   0.274   0.278   0.282   0.286
  0.287   0.293   0.296   0.300   0.301   0.304   0.307   0.310
  0.314   0.324   0.326   0.329   0.331   0.334   0.339   0.346
  0.354   0.355   0.359   0.366   0.375   0.378   0.382   0.388
  0.392   0.400   0.401   0.409   0.412   0.418   0.420   0.427
  0.430   0.431   0.445   0.446   0.450   0.463   0.466   0.470
  0.480   0.484   0.487   0.490   0.493   0.495   0.498   0.502
  0.503   0.504   0.507   0.513   0.517   0.520   0.527   0.531
  0.532   0.534   0.536   0.541   0.542   0.543   0.544   0.551
  0.554   0.556   0.560   0.561   0.565   0.566   0.568   0.570
  0.572   0.573   0.576   0.579   0.583   0.585   0.589   0.589
  0.591   0.593   0.594   0.595   0.596   0.597   0.599   0.602
  0.603   0.605   0.607   0.610   0.611   0.614   0.617   0.618
  0.619   0.622   0.626   0.629   0.635   0.639   0.643   0.647
  0.649   0.656   0.656   0.658   0.662   0.663   0.664   0.666
  0.669   0.674   0.675   0.683   0.684   0.688   0.694   0.700
  0.702   0.704   0.708   0.714   0.715   0.716   0.719   0.722
  0.727   0.732   0.732   0.734   0.738   0.746   0.747   0.751
  0.756   0.760   0.762   0.765   0.766   0.771   0.774   0.781
  0.782   0.789   0.791   0.793   0.801   0.808   0.812   0.816
  0.821   0.824   0.826   0.833   0.842   0.852   0.859   0.862
  0.866   0.872   0.877   0.881   0.885   0.893   0.899   0.902
  0.907   0.915   0.919   0.924   0.930   0.936   0.939   0.942
  0.947   0.950   0.952   0.956   0.960   0.961   0.967   0.969
  0.973   0.977   0.989   1.002   1.003   1.005   1.007   1.009
  1.010   1.011   1.015   1.017   1.021   1.027   1.030   1.032
  1.034   1.037   1.040   1.042   1.043   1.049   1.051   1.053
  1.058   1.060   1.063   1.067   1.069   1.069   1.072   1.080
  1.082   1.084   1.091   1.093   1.099   1.100   1.105   1.109
  1.117   1.118   1.122   1.124   1.131   1.136   1.137   1.138
  1.144   1.151   1.154   1.156   1.159   1.163   1.165   1.170
  1.176   1.179   1.187   1.188   1.197   1.210   1.212   1.219
  1.223   1.233   1.242   1.244   1.256   1.258   1.262   1.264
  1.269   1.272   1.274   1.279   1.285   1.289   1.304   1.307
  1.308   1.309   1.319   1.322   1.324   1.327   1.334   1.338
  1.348   1.351   1.355   1.362   1.368   1.374   1.376   1.381
  1.386   1.388   1.391   1.393   1.401   1.403   1.412   1.414
  1.415   1.428   1.439   1.444   1.446   1.447   1.448   1.451
  1.456   1.456   1.463   1.466   1.478   1.484   1.491   1.504
  1.510   1.512   1.514   1.516   1.517   1.518   1.528   1.528
  1.529   1.530   1.539   1.542   1.548   1.551   1.555   1.559
  1.566   1.568   1.575   1.578   1.580   1.586   1.590   1.593
  1.596   1.608   1.611   1.622   1.626   1.629   1.639   1.644
  1.649   1.658   1.665   1.672   1.696   1.710   1.718   1.728
  1.733   1.762   1.773   1.780   1.793   1.805   1.813   1.818
  1.819   1.823   1.828   1.830   1.832   1.834   1.841   1.845
  1.854   1.856   1.861   1.896   1.900   1.901   1.905   1.914
  1.920   1.922   1.928   1.933   1.936   1.937   1.938   1.940
  1.943   1.947   1.950   1.954   1.960   1.966   1.967   1.969
  1.970   1.971   1.976   1.983   1.985   1.990   2.002   2.005
  2.014   2.023   2.039   2.048   2.053   2.059   2.070   2.077
  2.080   2.082   2.084   2.086   2.095   2.103   2.105   2.111
  2.119   2.151   2.153   2.157   2.161   2.164   2.165   2.170
  2.177   2.179   2.180   2.183   2.188   2.197   2.200   2.208
  2.215   2.224   2.227   2.233   2.234   2.239   2.246   2.249
  2.254   2.260   2.264   2.266   2.270   2.273   2.278   2.281
  2.290   2.300   2.304   2.314   2.320   2.323   2.324   2.329
  2.338   2.343   2.345   2.350   2.350   2.354   2.355   2.361
  2.363   2.370   2.371   2.376   2.381   2.383   2.388   2.394
  2.399   2.407   2.408   2.413   2.415   2.416   2.426   2.426
  2.428   2.430   2.431   2.434   2.437   2.443   2.450   2.452
  2.458   2.462   2.471   2.473   2.475   2.484   2.496   2.505
  2.506   2.538   2.541   2.555   2.568   2.575   2.597   2.607
  2.625   2.636   2.643   2.646   2.648   2.663   2.693   2.699
  2.700   2.706   2.724   2.727   2.729   2.736   2.737   2.738
  2.740   2.750   2.758   2.766   2.777   2.783   2.787   2.789
  2.792   2.795   2.800   2.802   2.809   2.812   2.817   2.827
  2.837   2.854   2.859   2.862   2.867   2.875   2.882   2.890
  2.901   2.903   2.911   2.914   2.922   2.925   2.930   2.952
  2.966   2.971   2.997   2.999   3.003   3.008   3.034   3.051
  3.074   3.076   3.080   3.154   3.191   3.197   3.220   3.233
  3.237   3.412   3.420   3.449   3.475   3.479   3.490   3.525
  3.527   3.669   3.682   9.566   9.699  13.157  13.179  13.366
 13.383  13.519  13.531  13.535  13.558  13.697  13.701  13.742
 13.765  13.770  13.790  13.823  13.829  13.859  13.867  13.878
 13.882  13.922  13.936  13.942  13.970  13.976  14.010  14.012
 14.032  14.101  14.150  14.152  14.163  14.167  14.170  14.191
 14.195  14.237  14.247  14.331  14.335  14.342  14.368  14.471
 14.476  14.520  14.523  14.566  14.569  14.617  14.619  25.698
 --------------------------------------------------------------
 
          Ground-State Mulliken Net Atomic Charges

     Atom                 Charge (a.u.)
  ----------------------------------------
      1 C                    -0.195318
      2 C                    -0.186034
      3 B                     0.628047
      4 C                    -0.179900
      5 C                    -0.195166
      6 B                     0.777285
      7 C                    -0.404023
      8 C                     0.087008
      9 C                     0.064701
     10 C                    -0.394304
     11 C                    -0.429372
     12 C                     0.090623
     13 C                     0.064295
     14 C                    -0.395391
     15 H                     0.225942
     16 C                    -0.211447
     17 C                    -0.199731
     18 C                     0.044204
     19 C                    -0.353904
     20 C                     0.109244
     21 C                    -0.341616
     22 C                     0.033451
     23 C                    -0.755002
     24 C                    -0.753347
     25 H                     0.226041
     26 C                    -0.715150
     27 H                     0.226164
     28 H                     0.244245
     29 H                     0.242943
     30 H                     0.246491
     31 H                     0.234919
     32 H                     0.243567
     33 H                     0.246966
     34 H                     0.232483
     35 H                     0.234000
     36 H                     0.234710
     37 C                     0.047380
     38 C                    -0.342292
     39 C                     0.114766
     40 C                    -0.303164
     41 C                    -0.012396
     42 C                    -0.769123
     43 C                    -0.769212
     44 H                     0.220374
     45 C                    -0.716408
     46 H                     0.215453
     47 H                     0.247341
     48 H                     0.238560
     49 H                     0.232475
     50 H                     0.249282
     51 H                     0.234686
     52 H                     0.248224
     53 H                     0.230770
     54 H                     0.229401
     55 H                     0.230486
     56 C                     0.107130
     57 C                     0.114584
     58 C                    -0.376150
     59 C                    -0.251912
     60 C                    -0.359975
     61 C                     0.216516
     62 C                    -0.362496
     63 C                    -0.250890
     64 H                     0.254574
     65 H                     0.251312
     66 C                     0.055418
     67 H                     0.243680
     68 C                    -0.373513
     69 H                     0.254173
     70 H                     0.247070
     71 H                     0.229057
     72 C                     0.115347
     73 C                    -0.363286
     74 C                    -0.250847
     75 C                    -0.376787
     76 H                     0.253619
     77 H                     0.248131
     78 H                     0.245819
     79 H                     0.248834
     80 C                     0.056474
     81 C                     0.108484
     82 C                    -0.372735
     83 C                    -0.251886
     84 C                    -0.358796
     85 C                     0.216490
     86 H                     0.255069
     87 H                     0.252506
     88 H                     0.246535
     89 H                     0.250790
     90 H                     0.249873
     91 O                    -0.686251
     92 H                     0.534606
     93 H                     0.525209
  ----------------------------------------
  Sum of atomic charges =    -0.000000

 -----------------------------------------------------------------
                    Cartesian Multipole Moments
 -----------------------------------------------------------------
    Charge (ESU x 10^10)
                -0.0000
    Dipole Moment (Debye)
         X      -4.0804      Y       0.1743      Z      -4.5317
       Tot       6.1005
    Quadrupole Moments (Debye-Ang)
        XX    -214.0623     XY     -31.5358     YY    -281.5510
        XZ      28.5698     YZ     -31.1939     ZZ    -273.6671
    Octopole Moments (Debye-Ang^2)
       XXX    5868.9616    XXY    -340.1928    XYY    2076.0989
       YYY   -2631.6108    XXZ    -304.8913    XYZ     233.2421
       YYZ    -276.1615    XZZ    2155.5067    YZZ    -835.5241
       ZZZ    -379.5255
    Hexadecapole Moments (Debye-Ang^3)
      XXXX -119668.1750   XXXY   16091.2786   XXYY  -23629.2029
      XYYY   23248.6567   YYYY  -32690.9597   XXXZ    7884.9381
      XXYZ   -1634.8064   XYYZ    3997.7437   YYYZ   -1719.7197
      XXZZ  -21788.4380   XYZZ    7892.5003   YYZZ   -7202.4446
      XZZZ    8135.1133   YZZZ   -1207.5556   ZZZZ  -10310.3676
 -----------------------------------------------------------------
 Calculating analytic gradient of the SCF energy
 -8.045888135250643E-004 -8.045934450727431E-004
 -8.045825724533817E-004 -8.045996807908625E-004
 -8.045847825416184E-004 -8.045974870925896E-004
 -8.045844495609814E-004 -8.045978126837645E-004
 -8.045952235488079E-004 -8.045870441998335E-004
 -8.045806591586381E-004 -8.046016164924930E-004
 -8.045863246465416E-004 -8.045959586867595E-004
 -8.045863845417744E-004 -8.045958810381116E-004
 -8.045913884104090E-004 -8.045908895506211E-004
 -8.045954834559551E-004 -8.045867763828659E-004
 -8.045989854458392E-004 -8.045832777954060E-004
 -8.045822705496880E-004 -8.046000081348664E-004
 -8.045842388905646E-004 -8.045980172372432E-004
 -8.045852671019215E-004 -8.045969946849712E-004
 -8.045919618726017E-004 -8.045903036388326E-004
 -8.045814918161154E-004 -8.046007533526890E-004
 -8.045946240894512E-004 -8.045876208632322E-004
 -8.045721002557160E-004 -8.046101554106679E-004
 -8.045842769104114E-004 -8.045979908455224E-004
 -8.045952552210185E-004 -8.045869945179135E-004
 -8.045889654650839E-004 -8.045933170356362E-004
 -8.045658635114428E-004 -8.046163945561820E-004
 -8.046037463884102E-004 -8.045785235677387E-004
 -8.046035771312459E-004 -8.045787115780244E-004
 -8.045705665398935E-004 -8.046116979084517E-004
 -8.046082037826332E-004 -8.045740669965094E-004
 -8.046078475866948E-004 -8.045744464820811E-004
 -8.045877849286564E-004 -8.045944714781706E-004
 -8.045931429915838E-004 -8.045891364224218E-004
 -8.046064607917106E-004 -8.045758151270102E-004
 -8.045973539522844E-004 -8.045849108176074E-004
 -8.045922104408247E-004 -8.045900655773942E-004
 -8.045805860767484E-004 -8.046016749751026E-004
 -8.046140316702200E-004 -8.045682437150497E-004
 -8.045795230713448E-004 -8.046027478480411E-004
 -8.045789667636396E-004 -8.046033125701250E-004
 -8.046133723181232E-004 -8.045688985151682E-004
 -8.045778215345193E-004 -8.046044513395246E-004
 -8.045776830655459E-004 -8.046045947329630E-004
 -8.045926856342187E-004 -8.045895764028884E-004
 -8.045758786584532E-004 -8.046063809397255E-004
 -8.045892974964343E-004 -8.045929857721920E-004
 -8.046045872375916E-004 -8.045776540310243E-004
 -8.045930502446083E-004 -8.045892133133437E-004
 -8.045830342120760E-004 -8.045992133311206E-004
 -8.045906957617422E-004 -8.045915483188664E-004
 -8.045910176498172E-004 -8.045912259843274E-004
 -8.045984015164335E-004 -8.045838422027172E-004
 -8.045991136493684E-004 -8.045831291639569E-004
 -8.045846083577698E-004 -8.045976441105779E-004
 -8.046264017174024E-004 -8.045558472091664E-004
 -8.045790793821888E-004 -8.046031645960106E-004
 -8.046118315196367E-004 -8.045704143633459E-004
 -8.045505320809844E-004 -8.046317013061597E-004
 -8.045893865487201E-004 -8.045928673238292E-004
 -8.045929655094430E-004 -8.045893091027849E-004
 -8.046041988973155E-004 -8.045780306730547E-004
 -8.045935293863800E-004 -8.045887224181603E-004
 -8.046215512814520E-004 -8.045606971867816E-004
 -8.045598389815717E-004 -8.046223972720595E-004
 -8.045968229608283E-004 -8.045854262288914E-004
 -8.045873616964477E-004 -8.045948877802992E-004
 -8.045948566108590E-004 -8.045873906161864E-004
 -8.046075242529105E-004 -8.045747207220214E-004
 -8.046340534931465E-004 -8.045481778522986E-004
 -8.045800961740386E-004 -8.046021415764775E-004
 -8.045911331660471E-004 -8.045911044967683E-004
 -8.045857746160253E-004 -8.045964867874295E-004
 -8.045748432726391E-004 -8.046073824560612E-004
 -8.045900983719276E-004 -8.045921451455040E-004
 -8.046191728558996E-004 -8.045630569618528E-004
 -8.046071944172198E-004 -8.045750657288706E-004
 -8.045886699202485E-004 -8.045935792136544E-004
 -8.046045455048377E-004 -8.045777289338768E-004
 -8.045737301933055E-004 -8.046084938657525E-004
 -8.045954407022539E-004 -8.045868139316691E-004
 -8.045685633597530E-004 -8.046136869165840E-004
 -8.046019397695313E-004 -8.045802735046022E-004
 -8.045974946350886E-004 -8.045847467559676E-004
 -8.046097277766691E-004 -8.045725019352392E-004
 -8.045785465642248E-004 -8.046037083509395E-004
 -8.046038745181203E-004 -8.045783507677024E-004
 -8.045959692556045E-004 -8.045862727445442E-004
 -8.045832077972401E-004 -8.045990372607584E-004
 -8.045908358694524E-004 -8.045914040667136E-004
 -8.045994300877657E-004 -8.045828239294280E-004
 -8.045714577285770E-004 -8.046107881826112E-004
 -8.045834258109120E-004 -8.045988109587507E-004
 -8.046038494349901E-004 -8.045783989395321E-004
 -8.045850092394755E-004 -8.045972200859722E-004
 -8.045869800990786E-004 -8.045952425132190E-004
 -8.046038957950877E-004 -8.045783444624447E-004
 -8.045845571889354E-004 -8.045976777050531E-004
 -8.045939335888078E-004 -8.045883151087883E-004
 -8.046034897321011E-004 -8.045787765448780E-004
 -8.045926590600864E-004 -8.045896001045029E-004
 -8.045941047668777E-004 -8.045881370034898E-004
 -8.046032711681334E-004 -8.045789674131941E-004
 -8.045817654140987E-004 -8.046004799340753E-004
 -8.045903849992049E-004 -8.045918611895432E-004
 -8.045997727233128E-004 -8.045824863740454E-004
 -8.045830547252297E-004 -8.045991573251754E-004
 -8.045832404769050E-004 -8.045990080805218E-004
 -8.046011927273371E-004 -8.045810381057080E-004
 -8.045909800405556E-004 -8.045912574455110E-004
 -8.045976318880126E-004 -8.045846074641956E-004
 -8.046007832923741E-004 -8.045814515856687E-004
 -8.045856418254579E-004 -8.045965912112654E-004
 -8.045825844141926E-004 -8.045996446980532E-004
 -8.045626219701474E-004 -8.046196067883296E-004
 -8.045970957574382E-004 -8.045851291282872E-004
 -8.045914348477391E-004 -8.045908101943158E-004
 -8.045727415924164E-004 -8.046095128280698E-004
 -8.046099220569547E-004 -8.045722994554034E-004
 -8.045659957033936E-004 -8.046162490556669E-004
 -8.045530097252586E-004 -8.046292397179116E-004
 -8.045670126638193E-004 -8.046152363077992E-004
 -8.045911609397495E-004 -8.045910855024586E-004
 -8.045721490675936E-004 -8.046101044747109E-004
 -8.046156947333179E-004 -8.045665238796997E-004
 -8.045887555121222E-004 -8.045934825108444E-004
 -8.045983079688256E-004 -8.045839434054800E-004
 -8.045770146902044E-004 -8.046052307801016E-004
 -8.045913685888666E-004 -8.045908310333358E-004
 -8.045760190523174E-004 -8.046062525838308E-004
 -8.046097608273844E-004 -8.045724886302627E-004
 -8.046009239280334E-004 -8.045813284279374E-004
 -8.046031503072072E-004 -8.045790817824582E-004
 -8.045941985583312E-004 -8.045880510698187E-004
 -8.045769989947511E-004 -8.046052425006762E-004
 -8.045658006687392E-004 -8.046164318525513E-004
 -8.045801258962803E-004 -8.046021157130346E-004
 -8.046032963280655E-004 -8.045789342164427E-004
 -8.046063569205003E-004 -8.045758916917758E-004
 -8.046104004770864E-004 -8.045718432895450E-004
 -8.045813091036055E-004 -8.046009583713496E-004
 -8.045742516712751E-004 -8.046080218914064E-004
 -8.045861470007886E-004 -8.045960843154213E-004
 -8.045922225575984E-004 -8.045899985058802E-004
 -8.045931163818786E-004 -8.045891377095966E-004
 -8.045942921854821E-004 -8.045879189434803E-004
 -8.046014985394204E-004 -8.045807333918049E-004
 -8.045804249053362E-004 -8.046018206091466E-004
 -8.046051817610958E-004 -8.045770705017159E-004
 -8.045852285763860E-004 -8.045970057148700E-004
 -8.045846307638657E-004 -8.045976215717693E-004
 -8.046089057446366E-004 -8.045733371037703E-004
 -8.045793913017325E-004 -8.046028480179278E-004
 -8.045926358053859E-004 -8.045896008081494E-004
 -8.045914367228514E-004 -8.045908114667256E-004
 -8.045777879639324E-004 -8.046044455591142E-004
 -8.045702639018425E-004 -8.046119718029439E-004
 -8.045750862591528E-004 -8.046071387622401E-004
 -8.046020176894387E-004 -8.045802288806239E-004
 -8.045785491778972E-004 -8.046036809152016E-004
 -8.045855267156947E-004 -8.045967173832309E-004
 -8.045848655374327E-004 -8.045973755421686E-004
 -8.045808659725965E-004 -8.046013468259204E-004
 -8.045849506107921E-004 -8.045972987760260E-004
 -8.045761683723044E-004 -8.046060512948192E-004
 -8.045847965952647E-004 -8.045974429028989E-004
 -8.045909047260300E-004 -8.045913425738799E-004
 -8.045960582721386E-004 -8.045861830093734E-004
 -8.045769964370672E-004 -8.046052394271313E-004
 -8.045841995182670E-004 -8.045980318312460E-004
 -8.045887134292835E-004 -8.045935673547204E-004
 -8.045969402472904E-004 -8.045853145969013E-004
 -8.045908923813307E-004 -8.045913887770909E-004
 -8.045938526368598E-004 -8.045884371523776E-004
 -8.045851960187545E-004 -8.045970543963815E-004
 -8.045927994969459E-004 -8.045894750894443E-004
 -8.046226784705638E-004 -8.045595824697232E-004
 -8.045593128103859E-004 -8.046229609992918E-004
 -8.045892778271528E-004 -8.045929990970877E-004
 -8.046172221529913E-004 -8.045650648843397E-004
 -8.045783372102729E-004 -8.046038999076312E-004
 -8.045868967978087E-004 -8.045953788780356E-004
 -8.045690037647408E-004 -8.046132379342915E-004
 -8.046058646013103E-004 -8.045764093355342E-004
 -8.046011439742148E-004 -8.045811340693774E-004
 -8.046246205318697E-004 -8.045576541918712E-004
 -8.045791420775195E-004 -8.046031154861788E-004
 -8.045801649093575E-004 -8.046021088139642E-004
 -8.046164309930454E-004 -8.045658340387020E-004
 -8.045810568210411E-004 -8.046012078221260E-004
 -8.045827748475334E-004 -8.045994911663600E-004
 -8.045702999388193E-004 -8.046119963721008E-004
 -8.046055799853246E-004 -8.045766545447670E-004
 -8.046024010431074E-004 -8.045798652165697E-004
 -8.046036646228023E-004 -8.045786004213060E-004
 -8.045843940774690E-004 -8.045978345102876E-004
 -8.045898236671049E-004 -8.045924214371802E-004
 -8.046066497871662E-004 -8.045755694147217E-004
 -8.045838358322546E-004 -8.045984360976293E-004
 -8.045883171504288E-004 -8.045939567536768E-004
 -8.045671002204470E-004 -8.046151720282169E-004
 -8.046060144223691E-004 -8.045762753437243E-004
 -8.046060095014333E-004 -8.045762901718141E-004
 -8.045880725501480E-004 -8.045941731315934E-004
 -8.046024089563627E-004 -8.045798667891986E-004
 -8.046110636754405E-004 -8.045711913801369E-004
 -8.045607310370249E-004 -8.046215202419350E-004
 -8.046258172171173E-004 -8.045564567566679E-004
 -8.045931410702951E-004 -8.045891378221234E-004
 -8.045815068130015E-004 -8.046007582714071E-004
 -8.046001824727695E-004 -8.045820394010057E-004
 -8.045957875203956E-004 -8.045864673294486E-004
 -8.045868318034486E-004 -8.045954020164184E-004
 -8.045918751860961E-004 -8.045903800832957E-004
 -8.045910085705078E-004 -8.045912218426949E-004
 -8.045799233966884E-004 -8.046023239646990E-004
 -8.045967814888433E-004 -8.045854696091865E-004
 -8.045928605713806E-004 -8.045893968790036E-004
 -8.045933165203259E-004 -8.045889603271546E-004
 -8.045922504297536E-004 -8.045900146415603E-004
 -8.046019729936283E-004 -8.045803039068706E-004
 -8.045683394383665E-004 -8.046139082350764E-004
 -8.046006981134088E-004 -8.045815673221417E-004
 -8.046036490274222E-004 -8.045786331003673E-004
 -8.046160495859185E-004 -8.045662295892924E-004
 -8.045845431229982E-004 -8.045977119150149E-004
 -8.045806688495346E-004 -8.046015933701689E-004
 -8.045608445243878E-004 -8.046214049560509E-004
 -8.045904455060403E-004 -8.045918279598030E-004
 -8.046245964098396E-004 -8.045576919792501E-004
 -8.045798340185164E-004 -8.046024238431116E-004
 -8.045936513591253E-004 -8.045885916053223E-004
 -8.045991113760944E-004 -8.045831258467140E-004
 -8.045885432829597E-004 -8.045937002011136E-004
 -8.045920728102885E-004 -8.045901575075863E-004
 -8.045972425200770E-004 -8.045850138315179E-004
 -8.046039045654242E-004 -8.045783439050567E-004
 -8.045850130273039E-004 -8.045972421415275E-004
 -8.045868104097848E-004 -8.045954536134651E-004
 -8.045953127059078E-004 -8.045869252590610E-004
 -8.045873112749411E-004 -8.045949400372996E-004
 -8.045911663406025E-004 -8.045910737460067E-004
 -8.046205651866520E-004 -8.045617237798364E-004
 -8.045822851224441E-004 -8.045999912973423E-004
 -8.045811577148442E-004 -8.046011317851116E-004
 -8.045960934360870E-004 -8.045861924926523E-004
 -8.045953562280122E-004 -8.045868950700458E-004
 -8.045890304554499E-004 -8.045932411233360E-004
 -8.046288168190130E-004 -8.045534525890858E-004
 -8.045959597586751E-004 -8.045863018642303E-004
 -8.045659997703002E-004 -8.046162760337611E-004
 -8.045699916160857E-004 -8.046123130661589E-004
 -8.045990723341942E-004 -8.045831664629453E-004
 -8.046098686754868E-004 -8.045723914956838E-004
 -8.046174689058710E-004 -8.045647975485339E-004
 -8.045860415173503E-004 -8.045962119406523E-004
 -8.045794162937013E-004 -8.046028544607074E-004
 -8.045639844076079E-004 -8.046183082816047E-004
 -8.046066847132461E-004 -8.045755618464063E-004
 -8.046103488142836E-004 -8.045719180380804E-004
 -8.046045471908738E-004 -8.045777197629265E-004
 -8.045904318067792E-004 -8.045918037721190E-004
 -8.045860311171376E-004 -8.045962141774007E-004
 -8.045784293223136E-004 -8.046038088779424E-004
 -8.045963877976041E-004 -8.045858736971347E-004
 -8.046022061157067E-004 -8.045800592681721E-004
 -8.045946835534589E-004 -8.045875617916156E-004
 -8.045904498213411E-004 -8.045917826607974E-004
 -8.045885959034173E-004 -8.045936493629215E-004
 -8.045784221523357E-004 -8.046038167312145E-004
 -8.046009745879008E-004 -8.045812929181846E-004
 -8.045985315388920E-004 -8.045837313853173E-004
 -8.046063706417195E-004 -8.045758546521892E-004
 -8.045874191727214E-004 -8.045948480445826E-004
 -8.045837525529784E-004 -8.045985229811013E-004
 -8.045884670577793E-004 -8.045937438414304E-004
 -8.045527683382811E-004 -8.046294789775130E-004
 -8.046032262457506E-004 -8.045789984565744E-004
 -8.045929337718507E-004 -8.045892746872024E-004
 -8.045897513754188E-004 -8.045924698831550E-004
 -8.045995752202698E-004 -8.045826240631066E-004
 -8.045866672276783E-004 -8.045955786832851E-004
 -8.045810300730400E-004 -8.046012291718684E-004
 -8.046011380206476E-004 -8.045810981991059E-004
 Gradient of SCF Energy
            1           2           3           4           5           6
    1   0.0087433   0.0008920  -0.0021138   0.0038361  -0.0051873  -0.0390356
    2  -0.0029296   0.0033638  -0.0049234  -0.0003312   0.0065965  -0.0093527
    3  -0.0058544   0.0041929   0.0007168  -0.0015504   0.0069712  -0.0647296
            7           8           9          10          11          12
    1   0.0106996  -0.0013256   0.0013014   0.0008989  -0.0086180  -0.0052377
    2   0.0091721  -0.0251409   0.0235919  -0.0140584   0.0190225  -0.0231492
    3  -0.0131301   0.0183083  -0.0217984   0.0098458   0.0014946   0.0184420
           13          14          15          16          17          18
    1  -0.0006155  -0.0032364  -0.0023364   0.0009414   0.0029531  -0.0009959
    2   0.0233941  -0.0124567   0.0002129  -0.0002457  -0.0132790  -0.0014532
    3  -0.0184884   0.0118067  -0.0036505   0.0021872   0.0163545  -0.0081897
           19          20          21          22          23          24
    1  -0.0030042   0.0009557   0.0017784   0.0015018  -0.0021034   0.0039700
    2  -0.0129645   0.0036097  -0.0020852   0.0076087  -0.0000321   0.0007571
    3  -0.0039658   0.0024645   0.0135462   0.0008753  -0.0026397   0.0045750
           25          26          27          28          29          30
    1   0.0000406   0.0009536  -0.0003084   0.0094505   0.0016215  -0.0086767
    2  -0.0001816   0.0078129  -0.0009658  -0.0008723   0.0001057   0.0036544
    3   0.0001800  -0.0050603  -0.0002018  -0.0043997   0.0138512   0.0001838
           31          32          33          34          35          36
    1  -0.0108836  -0.0029576   0.0099024  -0.0037437  -0.0107330   0.0132521
    2   0.0071518  -0.0140598   0.0007192  -0.0122458   0.0050855   0.0002718
    3   0.0001142  -0.0042329  -0.0036481  -0.0080901   0.0070880   0.0032258
           37          38          39          40          41          42
    1   0.0051889   0.0073037  -0.0046658   0.0041718  -0.0019717   0.0011462
    2  -0.0016828   0.0094999  -0.0099643   0.0109838   0.0167831  -0.0068558
    3   0.0105243   0.0073175  -0.0012665  -0.0003958  -0.0232969   0.0176140
           43          44          45          46          47          48
    1  -0.0026765  -0.0006351  -0.0032287   0.0003630  -0.0034228   0.0118860
    2  -0.0035030   0.0015865  -0.0071577   0.0006734  -0.0061763  -0.0032797
    3  -0.0035346  -0.0026329  -0.0009347   0.0007774  -0.0110414  -0.0083378
           49          50          51          52          53          54
    1  -0.0122011  -0.0064535   0.0030869   0.0082450   0.0044887  -0.0108644
    2   0.0106862   0.0044883  -0.0000418  -0.0026045   0.0001672   0.0067978
    3   0.0002786   0.0040997   0.0110813  -0.0024635   0.0127588  -0.0015993
           55          56          57          58          59          60
    1   0.0091602   0.0104671  -0.0100530  -0.0024277  -0.0092030   0.0108559
    2  -0.0022518  -0.0457587   0.0459989  -0.0108840   0.0265887  -0.0324142
    3  -0.0086036   0.0250320  -0.0257701   0.0100603  -0.0127088   0.0166448
           61          62          63          64          65          66
    1  -0.0181623  -0.0093041   0.0096058  -0.0009710   0.0022803  -0.0234146
    2   0.0076333   0.0337473  -0.0279277  -0.0019017  -0.0010663   0.0089716
    3   0.0078500  -0.0157820   0.0122455   0.0022001  -0.0008091   0.0093318
           67          68          69          70          71          72
    1   0.0027133   0.0030442   0.0009824  -0.0015288   0.0003836   0.0165679
    2   0.0018161   0.0104463   0.0019929   0.0012187  -0.0020526   0.0336394
    3  -0.0040676  -0.0085867  -0.0021348   0.0001029  -0.0012535  -0.0383423
           73          74          75          76          77          78
    1   0.0145527  -0.0122959   0.0010286   0.0004929  -0.0006745  -0.0022397
    2   0.0227113  -0.0175695  -0.0113876  -0.0019142   0.0008338   0.0044774
    3  -0.0271860   0.0234543   0.0092142   0.0012079   0.0001326  -0.0000605
           79          80          81          82          83          84
    1   0.0013718   0.0207404  -0.0154815  -0.0007676   0.0127177  -0.0143390
    2  -0.0006621  -0.0100535  -0.0357296   0.0122532   0.0177774  -0.0223134
    3  -0.0003950  -0.0113508   0.0370228  -0.0060948  -0.0216355   0.0279647
           85          86          87          88          89          90
    1   0.0185476  -0.0008097  -0.0028621   0.0026977  -0.0025759   0.0021428
    2  -0.0079020   0.0036737   0.0013101   0.0005137   0.0015150  -0.0004738
    3  -0.0086280  -0.0018391   0.0016022  -0.0029119   0.0011752  -0.0010435
           91          92          93
    1   0.0711924  -0.0189277  -0.0278474
    2   0.0154798  -0.0275681   0.0154284
    3   0.0378272  -0.0016198   0.0020123
 Max gradient component =       7.119E-02
 RMS gradient           =       1.349E-02
 Computing fast IEFPCM-SWIG gradient.
 Updating gradient with PCM contributions...
 -- total gradient after adding PCM contribution --
---------------------------------------------------
  Atom         X              Y              Z     
---------------------------------------------------
   1       0.008602      -0.001576      -0.006712
   2       0.001781       0.004184       0.002564
   3      -0.001667      -0.006253       0.002579
   4       0.002007       0.000749      -0.001777
   5      -0.007461       0.008691       0.007083
   6      -0.035714      -0.009112      -0.060336
   7       0.008122       0.011136      -0.014655
   8       0.001522      -0.024332       0.015823
   9       0.004607       0.020623      -0.021991
  10      -0.000230      -0.014501       0.010098
  11      -0.007596       0.021217      -0.005712
  12      -0.005298      -0.021266       0.017561
  13      -0.003156       0.023586      -0.016612
  14      -0.002848      -0.013179       0.012218
  15      -0.001853      -0.002554       0.000444
  16       0.000886       0.001061       0.000792
  17      -0.000543      -0.016132       0.012122
  18      -0.001436      -0.001197      -0.011855
  19      -0.003864      -0.016266      -0.005750
  20       0.000819       0.000965       0.004851
  21       0.002146      -0.002119       0.017064
  22       0.002578       0.011989       0.001549
  23      -0.002814      -0.002465      -0.001000
  24       0.002001      -0.000358       0.003575
  25       0.000196       0.000400       0.000415
  26       0.000678       0.006521      -0.004358
  27      -0.000288      -0.000915      -0.000471
  28       0.011225      -0.000587      -0.005663
  29       0.001701       0.000203       0.013820
  30      -0.010180       0.004926      -0.000423
  31      -0.010447       0.006937       0.001094
  32      -0.002588      -0.013092      -0.003812
  33       0.011108       0.001181      -0.003694
  34      -0.003480      -0.011268      -0.007751
  35      -0.010485       0.005403       0.006323
  36       0.013050       0.000710       0.002579
  37       0.003861      -0.006810       0.012861
  38       0.008592       0.010484       0.009899
  39      -0.002181      -0.004862      -0.001258
  40       0.003487       0.012296      -0.003888
  41      -0.003556       0.015412      -0.025474
  42      -0.004686      -0.009702       0.011140
  43      -0.002780      -0.000824      -0.005216
  44       0.000162       0.001729      -0.000657
  45      -0.003541      -0.006911      -0.001408
  46       0.000572       0.000446       0.001497
  47      -0.000060      -0.001222      -0.008124
  48       0.010973      -0.003186      -0.006431
  49      -0.008974       0.008679       0.001303
  50      -0.009858       0.004803       0.004988
  51       0.004065       0.000511       0.012803
  52       0.010804      -0.005292      -0.004224
  53       0.004575      -0.000152       0.013320
  54      -0.011501       0.006484      -0.001479
  55       0.009491      -0.002986      -0.008889
  56       0.008130      -0.045726       0.026911
  57      -0.007984       0.046091      -0.027430
  58      -0.001944      -0.014832       0.012377
  59      -0.007498       0.029389      -0.016183
  60       0.015327      -0.034581       0.014835
  61      -0.020032       0.008497       0.008743
  62      -0.013790       0.036042      -0.013849
  63       0.007728      -0.030474       0.015534
  64       0.000254      -0.000518       0.000268
  65       0.000142      -0.000369       0.000326
  66      -0.022560       0.008727       0.008989
  67       0.002367       0.000316      -0.002220
  68       0.002192       0.014845      -0.011666
  69      -0.000110       0.000632      -0.000182
  70      -0.000882      -0.000459       0.001201
  71       0.000956      -0.001783      -0.000613
  72       0.014021       0.036130      -0.038169
  73       0.019048       0.021395      -0.029655
  74      -0.011071      -0.021447       0.025417
  75       0.000216      -0.014809       0.012199
  76      -0.000215      -0.000221       0.000515
  77      -0.000615       0.001491      -0.000298
  78      -0.001904       0.002878       0.000641
  79       0.001091       0.000690      -0.001108
  80       0.020234      -0.009695      -0.011078
  81      -0.014216      -0.036517       0.036802
  82       0.001397       0.015628      -0.010831
  83       0.011421       0.022086      -0.023671
  84      -0.018762      -0.020075       0.029893
  85       0.019901      -0.008472      -0.009206
  86       0.000354       0.000472      -0.000416
  87       0.000002      -0.000253       0.000439
  88       0.000910      -0.001347       0.000345
  89      -0.000003       0.000522      -0.000175
  90       0.000228       0.000475      -0.000279
  91       0.044824       0.008901       0.032088
  92      -0.007784      -0.014225       0.002915
  93      -0.011898       0.008384       0.005844
---------------------------------------------------
 Number of fixed atoms: 0
 Gradient time:  CPU 751.63 s  wall 197.24 s
 Geometry Optimization Parameters
   NAtoms,    NIC,     NZ,  NCons,   NDum,   NFix, NCnnct, MaxDiis
       93     741       0       0       0       0       0       0


** GEOMETRY OPTIMIZATION IN DELOCALIZED INTERNAL COORDINATES **
   Searching for a Minimum

   Optimization Cycle:   1

                       Coordinates (Angstroms)
     ATOM                X               Y               Z
      1  C        -9.3025700000    4.0358400000    0.1372100000
      2  C        -9.3907800000    2.9089100000    1.0147200000
      3  B        -8.3076300000    1.7636600000    0.9603700000
      4  C        -7.1075300000    1.8984900000   -0.0527000000
      5  C        -7.0238900000    3.0195400000   -0.9351800000
      6  B        -8.1232700000    4.1961900000   -0.9649200000
      7  C        -5.9413100000    3.1151700000   -1.8430100000
      8  C        -4.9723300000    2.1227800000   -1.8352100000
      9  C        -5.0456100000    1.0477100000   -0.9679700000
     10  C        -6.0941900000    0.9094800000   -0.0709000000
     11  C       -10.2849100000    5.0551500000    0.2114200000
     12  C       -11.3127600000    4.9289800000    1.1337900000
     13  C       -11.4025400000    3.8319600000    1.9708400000
     14  C       -10.4659600000    2.8104300000    1.9309400000
     15  H       -10.2454100000    5.9249800000   -0.4328200000
     16  C        -8.4071300000    0.5009200000    1.9308100000
     17  C        -7.3325200000    5.6397200000   -0.7195100000
     18  C        -8.7436400000   -0.7766200000    1.4066200000
     19  C        -8.8311200000   -1.8792000000    2.2703000000
     20  C        -8.5878100000   -1.7368100000    3.6400100000
     21  C        -8.2528900000   -0.4835200000    4.1588700000
     22  C        -8.1589500000    0.6402800000    3.3234000000
     23  C        -7.7587200000    1.9644500000    3.9325800000
     24  C        -9.0434400000   -0.9794800000   -0.0609700000
     25  H        -9.0938600000   -2.8531000000    1.8744000000
     26  C        -8.6819000000   -2.9199100000    4.5590700000
     27  H        -8.0596600000   -0.3859100000    5.2209300000
     28  H        -6.8187700000    2.3211300000    3.4619000000
     29  H        -7.5794000000    1.8782800000    5.0252400000
     30  H        -8.5486200000    2.7255500000    3.7886000000
     31  H        -9.9002800000   -0.3392100000   -0.3590600000
     32  H        -9.3115700000   -2.0335200000   -0.2861700000
     33  H        -8.1639100000   -0.7226000000   -0.6824700000
     34  H        -8.9550600000   -3.8464900000    4.0105300000
     35  H        -9.4557900000   -2.7306100000    5.3325100000
     36  H        -7.7031800000   -3.0841600000    5.0570900000
     37  C        -6.7395200000    5.9015000000    0.5721800000
     38  C        -6.0900700000    7.1206500000    0.8198900000
     39  C        -5.9975800000    8.1010200000   -0.1557300000
     40  C        -6.5395100000    7.8717900000   -1.4102700000
     41  C        -7.1914700000    6.6692400000   -1.7320000000
     42  C        -7.6493400000    6.6013400000   -3.1771700000
     43  C        -6.7682200000    4.9192200000    1.7232200000
     44  H        -5.6524700000    7.3108400000    1.7931200000
     45  C        -5.3043000000    9.4028800000    0.1283900000
     46  H        -6.4389800000    8.6444000000   -2.1659700000
     47  H        -8.0465600000    5.6739200000   -3.5836600000
     48  H        -6.7704700000    6.7997700000   -3.8277600000
     49  H        -8.3999500000    7.3990600000   -3.3613000000
     50  H        -7.8006000000    4.7367900000    2.0661000000
     51  H        -6.2291300000    5.3031900000    2.6151300000
     52  H        -6.2627200000    3.9770200000    1.4436400000
     53  H        -4.9161700000    9.4462900000    1.1683200000
     54  H        -6.0163600000   10.2430900000   -0.0135500000
     55  H        -4.4494000000    9.5303800000   -0.5687700000
     56  C        -3.7560300000    1.9617900000   -2.6333400000
     57  C       -12.5916000000    4.0112000000    2.8051800000
     58  C       -13.1775300000    3.2453600000    3.8140400000
     59  C        -1.9547000000    2.2536100000   -4.2109100000
     60  C        -1.3570600000    1.0476800000   -3.7510800000
     61  C        -1.9801500000    0.3107000000   -2.7250300000
     62  C       -14.9226800000    4.9781400000    4.0178800000
     63  C       -14.3576000000    3.7382000000    4.4254600000
     64  H       -14.8330800000    3.1651900000    5.2106400000
     65  H        -0.4291000000    0.7026800000   -4.1895300000
     66  C        -3.1600100000    0.8065700000   -2.2103400000
     67  H        -6.1178400000    0.0560100000    0.5938000000
     68  C        -3.1690200000    2.7197800000   -3.6474600000
     69  H        -1.4774100000    2.8214500000   -4.9987400000
     70  H        -3.6270900000    3.6369300000   -3.9935500000
     71  H        -5.8551900000    3.9479300000   -2.5306100000
     72  C        -3.8757300000    0.2034300000   -1.2141000000
     73  C        -1.4894800000   -0.8938900000   -2.1842500000
     74  C        -2.2137600000   -1.5435400000   -1.1468200000
     75  C        -3.4221700000   -0.9911600000   -0.6529800000
     76  H        -1.8384300000   -2.4688500000   -0.7298500000
     77  H        -3.9764200000   -1.4814900000    0.1364300000
     78  H       -10.5706000000    1.9662300000    2.5994400000
     79  H       -12.7435600000    2.3029700000    4.1211900000
     80  C       -13.1555900000    5.1994200000    2.4331900000
     81  C       -12.4447200000    5.8064300000    1.4358200000
     82  C       -12.8682700000    7.0335700000    0.9236300000
     83  C       -14.0412800000    7.6144200000    1.4676900000
     84  C       -14.7609100000    6.9602100000    2.5054900000
     85  C       -14.3013400000    5.7223200000    2.9959500000
     86  H       -14.3925100000    8.5655600000    1.0896500000
     87  H       -15.6552800000    7.4147000000    2.9128100000
     88  H       -12.3172200000    7.5278000000    0.1344500000
     89  H       -15.8242500000    5.3437000000    4.4931700000
     90  H        -0.5674600000   -1.3260200000   -2.5523800000
     91  O        -8.7795200000    4.0880300000   -2.2910600000
     92  H        -9.1628100000    3.1746900000   -2.3576600000
     93  H        -9.5724200000    4.6827600000   -2.3017200000
   Point Group: c1    Number of degrees of freedom:   273


   Energy is  -2049.947794903


 Attempting to Generate Delocalized Internal Coordinates

273 Hessian modes will be used to form the next step
  Hessian Eigenvalues:
     0.002000    0.004444    0.006100    0.006865    0.007397    0.007648
     0.007654    0.008068    0.008906    0.009036    0.010474    0.011173
     0.011849    0.013699    0.013850    0.013959    0.014463    0.014468
     0.015080    0.015636    0.015752    0.016465    0.016778    0.017044
     0.017305    0.018332    0.018736    0.018745    0.019506    0.019513
     0.019759    0.019759    0.019763    0.019763    0.020026    0.020217
     0.020218    0.020358    0.020359    0.020453    0.020453    0.020475
     0.020476    0.020756    0.020760    0.020876    0.020912    0.020928
     0.021471    0.021616    0.021617    0.021656    0.021656    0.021919
     0.021933    0.022136    0.022165    0.022231    0.022233    0.022268
     0.022328    0.022340    0.022344    0.022377    0.022401    0.022588
     0.022867    0.022877    0.022881    0.023094    0.023482    0.023493
     0.023909    0.025208    0.025212    0.053367    0.055380    0.061178
     0.066166    0.070624    0.071816    0.072006    0.072399    0.073153
     0.073364    0.073499    0.073514    0.075077    0.075435    0.075514
     0.088117    0.147766    0.159979    0.159993    0.159997    0.159998
     0.159998    0.159999    0.159999    0.160000    0.160000    0.160000
     0.160000    0.160000    0.160000    0.160000    0.160000    0.160000
     0.160000    0.160000    0.160000    0.160000    0.160000    0.160000
     0.160000    0.160000    0.160000    0.160000    0.160000    0.160000
     0.160000    0.160000    0.160000    0.160000    0.160000    0.160000
     0.160000    0.160000    0.160000    0.160000    0.160000    0.160000
     0.184308    0.198435    0.220661    0.220661    0.222295    0.222295
     0.225323    0.231450    0.231905    0.232893    0.234171    0.234173
     0.234245    0.234522    0.234922    0.234926    0.237864    0.237864
     0.240137    0.240660    0.241057    0.249077    0.249077    0.249737
     0.249737    0.249862    0.249895    0.249898    0.249922    0.249929
     0.249951    0.249951    0.249967    0.249977    0.249981    0.249986
     0.249997    0.249998    0.249999    0.250000    0.250000    0.250000
     0.254055    0.254898    0.306097    0.310043    0.311929    0.311976
     0.321616    0.322640    0.324596    0.325066    0.325104    0.325250
     0.325282    0.325308    0.325340    0.325504    0.325510    0.325582
     0.325595    0.325622    0.325921    0.329016    0.329927    0.331151
     0.333502    0.341027    0.341074    0.341629    0.349018    0.350174
     0.350779    0.353485    0.355270    0.355273    0.355595    0.355897
     0.356166    0.356625    0.356627    0.356629    0.356632    0.357416
     0.357421    0.357424    0.357427    0.357497    0.357504    0.357512
     0.357512    0.357537    0.357653    0.366859    0.369344    0.370988
     0.372196    0.378369    0.387877    0.400155    0.401933    0.401989
     0.403042    0.403082    0.404843    0.405569    0.405751    0.414035
     0.414037    0.420558    0.422535    0.424114    0.429746    0.429996
     0.432065    0.432474    0.432482    0.434213    0.434379    0.448101
     0.449176    0.450633    0.455663    0.455668    0.456552    0.456557
     0.458446    0.462757    0.464146    0.464488    0.464602    0.464923
     0.475035    0.475471    0.476667    0.488711    0.488809    0.489875
     0.492668    0.492838    0.493128

 Minimum Search - Taking Simple RFO Step
 Searching for Lamda that Minimizes Along All modes
 Value Taken    Lamda =  -0.06459020
 Calculated Step too Large.  Step scaled by  0.659052
 Step Taken.  Stepsize is  0.300000

                             Maximum     Tolerance    Cnvgd?
         Gradient           0.048094      0.000300      NO
         Displacement       0.079881      0.001200      NO
         Energy change     *********      0.000001      NO


 New Cartesian Coordinates Obtained by Inverse Iteration

 Displacement from previous Coordinates is:  1.870067
 Adding empirical dispersion correction 
 ----------------------------------------------------------------
 Doing -D3(BJ) with
 s6 =   1.00000
 s8 =   0.00000
 a1 =   0.48600
 a2 =   4.50000
 -D3 energy including 3body term =     -0.0869559995 hartrees
 ----------------------------------------------------------------
 Adding gCP correction 
 ----------------------------------------------------------------
 gCP energy =      0.1204196322 hartrees
 ----------------------------------------------------------------
             Standard Nuclear Orientation (Angstroms)
    I     Atom           X                Y                Z
 ----------------------------------------------------------------
    1      C      -9.2443551813     4.0736656272     0.2058925651
    2      C      -9.3320122581     2.9480423496     1.0666222581
    3      B      -8.2570614308     1.8159853391     1.0040251445
    4      C      -7.0631412838     1.9410255180     0.0034781515
    5      C      -6.9652565520     3.0577264917    -0.8668718103
    6      B      -8.0603655048     4.2412376949    -0.8891197910
    7      C      -5.8918943157     3.1384757548    -1.7718609656
    8      C      -4.9399973277     2.1323212665    -1.7918874485
    9      C      -5.0304400215     1.0396724359    -0.9209908222
   10      C      -6.0748311434     0.9374020809    -0.0218608859
   11      C     -10.2344498828     5.0711607887     0.2713682691
   12      C     -11.2837910354     4.9352346242     1.1660135683
   13      C     -11.3702405273     3.8199820942     2.0065223899
   14      C     -10.4101239090     2.8272073236     1.9639916703
   15      H     -10.1903346328     5.9436153274    -0.3723432888
   16      C      -8.3751745779     0.5498505491     1.9476190346
   17      C      -7.3001698459     5.6949956392    -0.6881536378
   18      C      -8.7637293111    -0.6955595400     1.4173369951
   19      C      -8.8689067327    -1.8060877044     2.2578748719
   20      C      -8.5914622829    -1.7097070905     3.6178205439
   21      C      -8.2039215156    -0.4783344572     4.1388212733
   22      C      -8.0937206243     0.6499850383     3.3244511607
   23      C      -7.6321645716     1.9492757287     3.9334729594
   24      C      -9.1079514186    -0.8498661216    -0.0430994964
   25      H      -9.1760167035    -2.7606215056     1.8458043063
   26      C      -8.7041583697    -2.9087947143     4.5183373653
   27      H      -7.9794636407    -0.3996285295     5.1968077332
   28      H      -6.7040802927     2.2899123424     3.4520391974
   29      H      -7.4287554645     1.8381714291     5.0069698787
   30      H      -8.3859064572     2.7384497068     3.8232394452
   31      H      -9.9385857717    -0.1825303695    -0.3159356864
   32      H      -9.4174391754    -1.8776706248    -0.2757606455
   33      H      -8.2502993657    -0.6127915200    -0.6851475628
   34      H      -9.0186064466    -3.8036992026     3.9647265931
   35      H      -9.4416192352    -2.7249220120     5.3122744850
   36      H      -7.7365172354    -3.1260578557     4.9922370636
   37      C      -6.7234925274     5.9903546859     0.5807873496
   38      C      -6.0950946781     7.2150995773     0.8130009958
   39      C      -6.0067711489     8.1871040482    -0.1695214833
   40      C      -6.5431247292     7.9105368295    -1.4132000760
   41      C      -7.1695424260     6.6934254904    -1.7015288416
   42      C      -7.6162557409     6.5885158793    -3.1449412987
   43      C      -6.7470107300     5.0265288279     1.7391736540
   44      H      -5.6675625847     7.4165599310     1.7886373520
   45      C      -5.3338473878     9.5077860178     0.0912141454
   46      H      -6.4581689835     8.6600031217    -2.1944912455
   47      H      -7.9913612514     5.6366444780    -3.5039532649
   48      H      -6.7536763612     6.7955085547    -3.7965702037
   49      H      -8.3775642175     7.3525726730    -3.3603861479
   50      H      -7.7675653992     4.8251729465     2.0788167115
   51      H      -6.2161860473     5.4411702364     2.6082396767
   52      H      -6.2446801450     4.0856919076     1.4871447414
   53      H      -4.9550138657     9.5748806270     1.1198821418
   54      H      -6.0391395971    10.3365988125    -0.0641145437
   55      H      -4.4841760676     9.6485597994    -0.5918715174
   56      C      -3.7406421932     1.9461306551    -2.6163143631
   57      C     -12.5840177243     3.9594096645     2.8184470045
   58      C     -13.1856662990     3.1924551955     3.7983455105
   59      C      -1.9619524237     2.1576530625    -4.2145693330
   60      C      -1.3974121543     0.9496022460    -3.7935342364
   61      C      -2.0117386203     0.2127787841    -2.7594749703
   62      C     -14.9837327661     4.8591497888     3.9598429146
   63      C     -14.3950611712     3.6583308856     4.3663545402
   64      H     -14.8790057413     3.0694825515     5.1340478784
   65      H      -0.4935774780     0.5852326756    -4.2652293121
   66      C      -3.1674150069     0.7501250770    -2.2096476635
   67      H      -6.1291722989     0.0831028025     0.6422108976
   68      C      -3.1437044392     2.6710732853    -3.6303005142
   69      H      -1.4826301040     2.7122808037    -5.0100725147
   70      H      -3.5664300606     3.6065505644    -3.9733452809
   71      H      -5.8046567520     3.9772505591    -2.4531656374
   72      C      -3.8940391988     0.1527579869    -1.1909181997
   73      C      -1.5682626988    -1.0188198805    -2.2328678650
   74      C      -2.2905955122    -1.6337574817    -1.2060940558
   75      C      -3.4650706131    -1.0538977003    -0.6712962057
   76      H      -1.9418749242    -2.5788345256    -0.8116441027
   77      H      -4.0115539114    -1.5479616724     0.1218424259
   78      H     -10.5018792643     1.9647389047     2.6130118236
   79      H     -12.7484100196     2.2577183370     4.1250047420
   80      C     -13.1790101526     5.1486675442     2.4271573384
   81      C     -12.4480766933     5.7874350440     1.4361804120
   82      C     -12.9067330421     6.9876387619     0.9265153872
   83      C     -14.1127943566     7.5175248149     1.4419131778
   84      C     -14.8373041397     6.8609608238     2.4413341287
   85      C     -14.3652845761     5.6366159058     2.9581031021
   86      H     -14.4862246770     8.4551951027     1.0527277931
   87      H     -15.7574195820     7.2950421021     2.8117802807
   88      H     -12.3626158434     7.5111320330     0.1510616259
   89      H     -15.9111300352     5.1845180287     4.4139914628
   90      H      -0.6744080766    -1.4918675642    -2.6194533023
   91      O      -8.7360511291     4.1123521060    -2.2497989428
   92      H      -9.1026520902     3.2038597861    -2.3274545655
   93      H      -9.5261662967     4.6938945949    -2.2961544085
 ----------------------------------------------------------------
 Nuclear Repulsion Energy =  6473.7216324296 hartrees
 There are      179 alpha and      179 beta electrons
 Discretize the solute cavity surface with Lebedev spheres
	Using 302 Lebedev grid points for each H atom
	Using 302 Lebedev grid points for other atoms
	Atomic van der Waals radii will be scaled by 1.20
 Remove points where switching function is < 1.0e-08
 Keep 9676 surface tesserae and discard 18410 interior tesserae
 Molecular Surface Area = 711.123 Angst**2
 Nucleus-field energy     =     0.0000001246 hartrees
 Requested basis set is def2-mSVP
 There are 451 shells and 875 basis functions
 A cutoff of  1.0D-11 yielded  38753 shell pairs
 There are    152755 function pairs (    168471 Cartesian)
 Smallest overlap matrix eigenvalue = 1.87E-04
 Guess MOs from SCF MO coefficient file

 -----------------------------------------------------------------------
  General SCF calculation program by
  Eric Jon Sundstrom, Paul Horn, Yuezhi Mao, Dmitri Zuev, Alec White,
  David Stuck, Shaama M.S., Shane Yost, Joonho Lee, David Small,
  Daniel Levine, Susi Lehtola, Hugh Burton, Evgeny Epifanovsky
 -----------------------------------------------------------------------
 Exchange:     0.4200 Hartree-Fock + 0.5800 PBEh-3c
 Correlation:  1.0000 PBEh-3c
 Using SG-1 standard quadrature grid
 Dispersion:   Grimme D3
 using 8 threads for integral computing
 -------------------------------------------------------
 OpenMP Integral computing Module                
 Release: version 2.0, May 2017, Q-Chem Inc. Pleasanton 
 -------------------------------------------------------
 -------------------------------------------------------
 OpenMP BLAS3 based DFT computing Module                
 Release: version 1.0, May 2013, Q-Chem Inc. Pittsburgh 
 -------------------------------------------------------
 A restricted SCF calculation will be
 performed using DIIS
 SCF converges when DIIS error is below 1.0e-08
 ---------------------------------------
  Cycle       Energy         DIIS error
 ---------------------------------------
 Using non-symmetric K matrix
    1   -2047.0469704585      5.07e-04  
    2   -2049.9652221379      2.87e-04  
    3   -2049.9734686504      2.11e-04  
    4   -2049.9778766749      5.71e-05  
    5   -2049.9781733750      2.86e-05  
    6   -2049.9782511576      1.04e-05  
    7   -2049.9782620685      2.59e-06  
    8   -2049.9782627513      8.97e-07  
    9   -2049.9782628366      2.28e-07  
   10   -2049.9782628426      1.07e-07  
   11   -2049.9782628439      3.09e-08  
   12   -2049.9782628441      1.40e-08  
   13   -2049.9782628441      5.25e-09  Convergence criterion met
 ---------------------------------------
 SCF time:   CPU 8154.61s  wall 1061.00s 

************** Final PCM Free Energy Summary **************
 G_electrostatic  =      -0.04193707 hartree =     -26.31590840 kcal/mol
 G_cavitation     =       0.00000000 hartree =       0.00000000 kcal/mol
 G_dispersion     =       0.00000000 hartree =       0.00000000 kcal/mol
 G_repulsion      =       0.00000000 hartree =       0.00000000 kcal/mol
 --------------------------------------------------
 Non-electrostatic Free Energy =       0.00000000 hartree =       0.00000000 kcal/mol
 Total                         =      -0.04193707 hartree =     -26.31590840 kcal/mol
 --------------------------------------------------
 SCF Energy (H0 + V/2)                       =   -2049.97826284 
 Solute Internal Energy (H0)                 =   -2049.93632577 
 Total Free Energy (H0 + V/2 + non-elec)     =   -2049.97826284 hartree
                                             = -1286380.77527878 kcal/mol
***********************************************************

 SCF   energy in the final basis set =    -2049.9782628441
 Total energy in the final basis set =    -2049.9782628441
 
 --------------------------------------------------------------
 
                    Orbital Energies (a.u.)
 --------------------------------------------------------------
 
 Alpha MOs
 -- Occupied --
-19.606 -10.463 -10.462 -10.461 -10.461 -10.461 -10.460 -10.459
-10.459 -10.459 -10.459 -10.459 -10.458 -10.458 -10.458 -10.458
-10.457 -10.457 -10.457 -10.456 -10.456 -10.451 -10.451 -10.451
-10.450 -10.449 -10.448 -10.447 -10.447 -10.446 -10.442 -10.442
-10.441 -10.440 -10.439 -10.432 -10.431 -10.431 -10.429 -10.428
-10.428 -10.426 -10.425 -10.425 -10.425 -10.425 -10.423 -10.423
-10.423 -10.421 -10.413  -6.942  -6.941  -1.238  -1.016  -1.015
 -0.957  -0.954  -0.952  -0.944  -0.928  -0.926  -0.903  -0.895
 -0.867  -0.866  -0.860  -0.858  -0.847  -0.845  -0.844  -0.842
 -0.815  -0.806  -0.803  -0.799  -0.776  -0.771  -0.755  -0.755
 -0.751  -0.745  -0.728  -0.723  -0.722  -0.715  -0.694  -0.685
 -0.681  -0.675  -0.658  -0.650  -0.644  -0.639  -0.637  -0.633
 -0.631  -0.620  -0.590  -0.588  -0.584  -0.579  -0.573  -0.569
 -0.564  -0.545  -0.541  -0.537  -0.535  -0.530  -0.524  -0.521
 -0.519  -0.508  -0.502  -0.495  -0.491  -0.488  -0.487  -0.485
 -0.484  -0.483  -0.479  -0.477  -0.477  -0.476  -0.472  -0.470
 -0.465  -0.463  -0.462  -0.461  -0.461  -0.457  -0.453  -0.450
 -0.448  -0.445  -0.442  -0.438  -0.435  -0.434  -0.432  -0.426
 -0.422  -0.420  -0.417  -0.408  -0.403  -0.399  -0.394  -0.393
 -0.391  -0.390  -0.388  -0.386  -0.381  -0.380  -0.378  -0.376
 -0.371  -0.366  -0.357  -0.347  -0.340  -0.326  -0.322  -0.309
 -0.307  -0.294  -0.293  -0.273  -0.272  -0.265  -0.263  -0.259
 -0.252  -0.250  -0.244
 -- Virtual --
 -0.071  -0.057  -0.032  -0.003  -0.001   0.013   0.018   0.024
  0.027   0.030   0.033   0.057   0.078   0.079   0.085   0.096
  0.123   0.134   0.144   0.149   0.155   0.155   0.160   0.163
  0.166   0.168   0.168   0.171   0.177   0.178   0.179   0.183
  0.187   0.189   0.195   0.197   0.200   0.203   0.205   0.206
  0.208   0.210   0.211   0.213   0.215   0.221   0.221   0.223
  0.226   0.227   0.229   0.230   0.235   0.237   0.242   0.243
  0.248   0.250   0.250   0.255   0.256   0.257   0.263   0.266
  0.268   0.270   0.271   0.273   0.278   0.281   0.284   0.287
  0.288   0.294   0.296   0.302   0.304   0.306   0.310   0.313
  0.315   0.326   0.327   0.331   0.333   0.337   0.338   0.347
  0.354   0.357   0.360   0.367   0.378   0.381   0.385   0.389
  0.394   0.400   0.404   0.411   0.414   0.419   0.422   0.428
  0.431   0.434   0.448   0.451   0.453   0.461   0.465   0.468
  0.481   0.483   0.486   0.492   0.494   0.495   0.498   0.501
  0.503   0.505   0.510   0.514   0.517   0.522   0.526   0.530
  0.532   0.534   0.538   0.541   0.543   0.544   0.546   0.550
  0.554   0.556   0.561   0.562   0.565   0.567   0.570   0.572
  0.574   0.578   0.579   0.582   0.585   0.587   0.589   0.590
  0.592   0.592   0.594   0.594   0.595   0.598   0.600   0.604
  0.605   0.607   0.608   0.611   0.616   0.617   0.618   0.620
  0.622   0.624   0.625   0.630   0.634   0.639   0.644   0.647
  0.651   0.656   0.658   0.659   0.662   0.663   0.665   0.667
  0.672   0.675   0.677   0.685   0.687   0.690   0.696   0.704
  0.704   0.708   0.711   0.714   0.716   0.720   0.723   0.725
  0.728   0.733   0.733   0.737   0.740   0.748   0.749   0.754
  0.757   0.762   0.763   0.767   0.768   0.772   0.776   0.781
  0.785   0.788   0.790   0.794   0.803   0.811   0.816   0.821
  0.824   0.828   0.833   0.835   0.844   0.853   0.859   0.865
  0.867   0.874   0.879   0.882   0.890   0.897   0.903   0.906
  0.910   0.918   0.923   0.925   0.934   0.939   0.940   0.946
  0.952   0.953   0.955   0.960   0.963   0.968   0.970   0.974
  0.979   0.981   0.992   0.998   0.999   1.005   1.008   1.010
  1.012   1.016   1.017   1.020   1.023   1.029   1.031   1.034
  1.037   1.039   1.042   1.045   1.048   1.053   1.056   1.060
  1.062   1.066   1.066   1.069   1.071   1.072   1.076   1.083
  1.088   1.089   1.093   1.094   1.103   1.105   1.107   1.112
  1.119   1.124   1.125   1.127   1.131   1.137   1.142   1.143
  1.148   1.151   1.155   1.158   1.159   1.165   1.169   1.172
  1.181   1.183   1.189   1.193   1.202   1.211   1.216   1.220
  1.227   1.236   1.245   1.247   1.257   1.259   1.260   1.264
  1.268   1.271   1.277   1.282   1.286   1.287   1.303   1.304
  1.306   1.307   1.320   1.322   1.325   1.328   1.334   1.338
  1.347   1.353   1.356   1.365   1.369   1.377   1.379   1.383
  1.385   1.388   1.390   1.395   1.400   1.405   1.411   1.414
  1.421   1.430   1.441   1.443   1.444   1.445   1.446   1.452
  1.457   1.459   1.463   1.469   1.482   1.489   1.497   1.507
  1.511   1.513   1.515   1.518   1.519   1.520   1.531   1.532
[...]
C  10 1.377079 9 120.057750 5 -0.478097 0
C  12 1.464509 10 131.449733 9 -172.068541 0
C  13 1.370548 12 135.164178 10 0.517613 0
H  14 1.083335 13 121.935301 12 -3.683359 0
C  13 1.407921 12 106.052285 10 175.983276 0
C  16 1.391183 13 124.068046 12 -176.273812 0
C  16 1.409138 13 111.420715 12 -0.061610 0
C  18 1.370752 16 118.377045 13 -177.323123 0
H  19 1.083006 18 121.902516 16 178.972144 0
C  19 1.416276 18 118.544682 16 -0.365055 0
H  21 1.082318 19 118.434722 18 -179.856918 0
C  21 1.376213 19 122.561666 18 1.053161 0
H  23 1.083273 21 119.943072 19 178.892659 0
C  14 1.416940 13 118.536507 12 175.392636 0
H  25 1.082502 14 118.472501 13 -179.717861 0
C  25 1.375537 14 122.438856 13 -0.350213 0
H  27 1.083268 25 119.959690 14 -179.258636 0
B  9 1.550425 5 120.590786 4 -8.170334 0
C  29 1.548640 9 120.341916 5 0.108918 0
C  30 1.404569 29 119.409778 9 179.503921 0
H  31 1.084861 30 119.695656 29 4.208432 0
C  31 1.376592 30 120.144077 29 -172.970283 0
C  30 1.411169 29 120.446643 9 4.099106 0
C  34 1.399658 30 119.305308 29 173.392355 0
H  35 1.086381 34 120.058971 30 -179.415908 0
C  35 1.383423 34 120.289088 30 -0.732114 0
C  33 1.464871 31 131.355716 30 173.207085 0
C  38 1.370306 33 135.289093 31 3.482897 0
H  39 1.083164 38 121.921333 33 3.409481 0
C  38 1.407647 33 106.050994 31 -172.628272 0
C  41 1.392023 38 124.112197 33 175.476836 0
C  41 1.409034 38 111.433514 33 -1.055172 0
C  43 1.371167 41 118.329045 38 176.786532 0
H  44 1.083011 43 121.918427 41 -179.051946 0
C  42 1.416063 41 116.165119 38 -176.647376 0
H  46 1.083373 42 120.033617 41 179.684471 0
C  46 1.376119 42 119.992574 41 0.408640 0
H  48 1.082349 46 119.020461 42 179.405962 0
C  42 1.416938 41 116.299062 38 1.833441 0
H  50 1.083312 42 120.043372 41 179.837734 0
C  50 1.375283 42 119.946011 41 -0.868563 0
H  52 1.082434 50 119.054744 42 -179.586207 0
C  29 1.573158 9 119.944467 5 177.397939 0
C  54 1.398703 29 120.498025 9 -90.031793 0
C  55 1.392593 54 119.852536 29 179.987927 0
H  56 1.085421 55 119.147491 54 -179.715384 0
C  56 1.388506 55 121.592648 54 0.078503 0
C  58 1.391851 56 118.085579 55 0.056249 0
H  59 1.085565 58 119.309237 56 -179.957470 0
C  59 1.389586 58 121.463766 56 -0.127711 0
C  58 1.501999 56 121.155477 55 -179.972378 0
H  62 1.089696 58 111.534024 56 3.235772 0
H  62 1.091266 58 111.435954 56 123.582419 0
H  62 1.091591 58 111.449706 56 -117.011702 0
C  61 1.503072 59 120.447685 58 179.982688 0
H  66 1.089711 61 111.844744 59 -0.601418 0
H  66 1.092592 61 111.442045 59 119.814962 0
H  66 1.092648 61 111.315812 59 -120.985129 0
C  55 1.504188 54 120.239096 29 0.127407 0
H  70 1.089836 55 111.708612 54 179.306614 0
H  70 1.092612 55 111.440291 54 -60.488141 0
H  70 1.092884 55 111.462168 54 59.139053 0
C  4 1.611259 1 110.054899 2 -74.567236 0
C  74 1.406556 4 128.057471 1 -10.171354 0
C  75 1.397586 74 120.209158 4 179.631107 0
H  76 1.085444 75 118.554674 74 -179.859603 0
C  76 1.383623 75 122.590023 74 0.983084 0
C  78 1.388507 76 117.204245 75 1.052318 0
H  79 1.085620 78 119.233690 76 177.960722 0
C  79 1.389218 78 121.843463 76 -1.496470 0
C  78 1.500853 76 121.705983 75 -179.160859 0
H  82 1.089715 78 111.554128 76 -12.482296 0
H  82 1.090715 78 111.496934 76 -133.211184 0
H  82 1.092106 78 111.214965 76 107.475751 0
C  81 1.507228 79 116.978145 78 179.155969 0
H  86 1.090057 81 110.602085 79 -14.354541 0
H  86 1.090516 81 112.436404 79 -134.415253 0
H  86 1.090825 81 111.916482 79 105.366760 0
C  75 1.511380 74 124.367453 4 -1.644131 0
H  90 1.088609 75 112.725408 74 -50.973699 0
H  90 1.089954 75 109.887994 74 -170.405763 0
H  90 1.091774 75 112.892781 74 71.261042 0
$end

 
 --------------------------------------------------------------
 
                    Orbital Energies (a.u.)
 --------------------------------------------------------------
 
 Alpha MOs
 -- Occupied --
-19.579 -10.463 -10.463 -10.462 -10.462 -10.461 -10.461 -10.461
-10.460 -10.460 -10.460 -10.459 -10.459 -10.459 -10.458 -10.457
-10.457 -10.457 -10.456 -10.456 -10.455 -10.454 -10.454 -10.449
-10.449 -10.449 -10.449 -10.448 -10.446 -10.446 -10.445 -10.445
-10.444 -10.443 -10.442 -10.432 -10.431 -10.431 -10.431 -10.427
-10.426 -10.426 -10.426 -10.425 -10.425 -10.424 -10.424 -10.423
-10.418 -10.418 -10.415  -6.946  -6.940  -1.203  -1.013  -1.013
 -0.959  -0.956  -0.955  -0.949  -0.931  -0.930  -0.905  -0.897
 -0.870  -0.868  -0.863  -0.863  -0.850  -0.849  -0.844  -0.843
 -0.817  -0.810  -0.808  -0.801  -0.780  -0.775  -0.758  -0.757
 -0.754  -0.748  -0.730  -0.723  -0.723  -0.717  -0.686  -0.679
 -0.677  -0.673  -0.658  -0.648  -0.643  -0.639  -0.638  -0.634
 -0.633  -0.609  -0.590  -0.588  -0.585  -0.579  -0.573  -0.570
 -0.562  -0.547  -0.541  -0.540  -0.538  -0.528  -0.524  -0.523
 -0.512  -0.503  -0.500  -0.494  -0.493  -0.490  -0.487  -0.486
 -0.483  -0.483  -0.479  -0.479  -0.477  -0.476  -0.472  -0.471
 -0.465  -0.463  -0.463  -0.462  -0.461  -0.458  -0.455  -0.453
 -0.449  -0.447  -0.444  -0.438  -0.436  -0.436  -0.433  -0.427
 -0.425  -0.423  -0.420  -0.411  -0.406  -0.403  -0.395  -0.394
 -0.394  -0.393  -0.389  -0.387  -0.383  -0.381  -0.379  -0.377
 -0.372  -0.369  -0.360  -0.348  -0.343  -0.332  -0.328  -0.313
 -0.311  -0.294  -0.293  -0.274  -0.274  -0.268  -0.265  -0.261
 -0.255  -0.254  -0.251
 -- Virtual --
 -0.073  -0.056  -0.031  -0.004  -0.002   0.012   0.017   0.023
  0.027   0.032   0.034   0.051   0.077   0.081   0.086   0.096
  0.124   0.131   0.143   0.153   0.154   0.155   0.160   0.164
  0.166   0.168   0.169   0.172   0.175   0.180   0.184   0.185
  0.189   0.192   0.194   0.196   0.198   0.199   0.203   0.205
  0.207   0.209   0.211   0.216   0.219   0.220   0.222   0.224
  0.225   0.228   0.230   0.233   0.235   0.240   0.244   0.246
  0.246   0.250   0.252   0.252   0.254   0.256   0.257   0.259
  0.265   0.267   0.271   0.272   0.273   0.274   0.284   0.288
  0.288   0.290   0.293   0.298   0.303   0.311   0.312   0.314
  0.318   0.319   0.325   0.328   0.329   0.334   0.339   0.349
  0.353   0.358   0.360   0.366   0.378   0.386   0.392   0.396
  0.402   0.404   0.407   0.410   0.415   0.418   0.425   0.427
  0.430   0.435   0.452   0.455   0.458   0.462   0.464   0.477
  0.480   0.483   0.484   0.492   0.493   0.496   0.499   0.501
  0.502   0.505   0.507   0.510   0.512   0.521   0.526   0.528
  0.530   0.531   0.537   0.539   0.539   0.542   0.544   0.547
  0.554   0.557   0.559   0.560   0.564   0.565   0.566   0.571
  0.573   0.579   0.581   0.582   0.585   0.586   0.588   0.589
  0.590   0.590   0.594   0.595   0.597   0.600   0.602   0.604
  0.606   0.609   0.610   0.614   0.616   0.619   0.621   0.622
  0.623   0.629   0.629   0.630   0.632   0.633   0.636   0.642
  0.650   0.655   0.656   0.657   0.658   0.662   0.665   0.667
  0.675   0.681   0.683   0.684   0.689   0.691   0.696   0.698
  0.702   0.707   0.710   0.710   0.713   0.720   0.723   0.725
  0.729   0.732   0.734   0.738   0.741   0.742   0.751   0.755
  0.758   0.759   0.760   0.762   0.768   0.769   0.774   0.776
  0.779   0.780   0.789   0.795   0.801   0.809   0.814   0.820
  0.821   0.826   0.831   0.840   0.842   0.850   0.852   0.858
  0.863   0.868   0.879   0.885   0.888   0.893   0.895   0.909
  0.913   0.920   0.921   0.924   0.933   0.942   0.943   0.952
  0.954   0.959   0.960   0.964   0.969   0.976   0.978   0.981
  0.986   0.993   0.994   0.996   0.997   1.002   1.005   1.009
  1.013   1.015   1.018   1.020   1.028   1.030   1.032   1.034
  1.039   1.043   1.044   1.049   1.050   1.056   1.060   1.065
  1.067   1.068   1.075   1.076   1.076   1.079   1.083   1.087
  1.087   1.091   1.095   1.098   1.105   1.108   1.111   1.115
  1.122   1.123   1.125   1.127   1.129   1.130   1.135   1.137
  1.141   1.148   1.150   1.152   1.155   1.158   1.169   1.169
  1.173   1.186   1.187   1.197   1.200   1.206   1.209   1.216
  1.222   1.233   1.237   1.239   1.243   1.247   1.252   1.257
  1.262   1.263   1.270   1.277   1.279   1.283   1.284   1.293
  1.304   1.308   1.310   1.316   1.321   1.323   1.325   1.333
  1.340   1.344   1.347   1.351   1.357   1.360   1.371   1.373
  1.382   1.386   1.395   1.398   1.403   1.404   1.412   1.420
  1.428   1.432   1.438   1.443   1.445   1.449   1.450   1.454
  1.462   1.465   1.474   1.475   1.486   1.491   1.510   1.512
  1.515   1.518   1.519   1.520   1.524   1.527   1.531   1.533
  1.534   1.539   1.545   1.547   1.553   1.556   1.560   1.561
  1.565   1.567   1.569   1.575   1.582   1.585   1.588   1.589
  1.599   1.609   1.617   1.619   1.626   1.631   1.638   1.662
  1.667   1.679   1.681   1.692   1.702   1.729   1.739   1.747
  1.753   1.757   1.782   1.786   1.804   1.807   1.808   1.812
  1.815   1.820   1.826   1.828   1.832   1.833   1.841   1.848
  1.851   1.862   1.870   1.895   1.902   1.904   1.905   1.914
  1.916   1.922   1.925   1.925   1.930   1.935   1.941   1.943
  1.947   1.953   1.956   1.956   1.957   1.965   1.970   1.974
  1.982   1.984   1.987   1.988   1.991   1.993   1.997   2.005
  2.018   2.031   2.032   2.044   2.047   2.063   2.065   2.073
  2.074   2.075   2.079   2.088   2.093   2.111   2.112   2.116
  2.135   2.141   2.147   2.150   2.164   2.167   2.169   2.185
  2.190   2.192   2.199   2.204   2.205   2.212   2.218   2.222
  2.224   2.230   2.233   2.234   2.236   2.240   2.248   2.254
  2.260   2.265   2.267   2.276   2.279   2.281   2.288   2.291
  2.292   2.299   2.309   2.319   2.323   2.325   2.336   2.338
  2.342   2.343   2.347   2.351   2.356   2.357   2.359   2.361
  2.367   2.370   2.375   2.378   2.385   2.392   2.393   2.398
  2.402   2.407   2.413   2.416   2.417   2.421   2.423   2.427
  2.433   2.441   2.444   2.446   2.453   2.455   2.467   2.474
  2.477   2.478   2.485   2.491   2.497   2.499   2.503   2.507
  2.519   2.525   2.556   2.560   2.586   2.599   2.614   2.629
  2.636   2.644   2.645   2.646   2.654   2.671   2.684   2.689
  2.713   2.719   2.728   2.730   2.733   2.739   2.742   2.744
  2.749   2.754   2.764   2.769   2.783   2.784   2.788   2.790
  2.793   2.794   2.798   2.806   2.810   2.814   2.824   2.841
  2.846   2.857   2.860   2.876   2.883   2.900   2.901   2.909
  2.912   2.914   2.928   2.932   2.935   2.940   2.951   2.956
  2.967   2.968   2.987   2.995   3.004   3.010   3.046   3.061
  3.080   3.082   3.090   3.103   3.213   3.219   3.241   3.254
  3.255   3.403   3.437   3.445   3.487   3.492   3.492   3.525
  3.539   3.665   3.678   9.587   9.704  13.155  13.180  13.384
 13.439  13.508  13.522  13.526  13.545  13.714  13.715  13.759
 13.772  13.786  13.803  13.803  13.817  13.868  13.882  13.899
 13.903  13.915  13.943  13.956  13.994  13.998  14.021  14.032
 14.047  14.119  14.161  14.162  14.188  14.189  14.199  14.210
 14.231  14.257  14.261  14.304  14.307  14.329  14.378  14.513
 14.515  14.559  14.576  14.577  14.582  14.583  14.588  25.618
 --------------------------------------------------------------
 
          Ground-State Mulliken Net Atomic Charges

     Atom                 Charge (a.u.)
  ----------------------------------------
      1 C                    -0.201586
      2 C                    -0.147444
      3 B                     0.630262
      4 C                    -0.155508
      5 C                    -0.194382
      6 B                     0.818340
      7 C                    -0.406019
      8 C                     0.081853
      9 C                     0.069089
     10 C                    -0.396389
     11 C                    -0.432884
     12 C                     0.089380
     13 C                     0.063720
     14 C                    -0.394241
     15 H                     0.233118
     16 C                    -0.214564
     17 C                    -0.178258
     18 C                     0.045790
     19 C                    -0.370849
     20 C                     0.110649
     21 C                    -0.359079
     22 C                     0.059126
     23 C                    -0.771883
     24 C                    -0.772204
     25 H                     0.221379
     26 C                    -0.721920
     27 H                     0.221211
     28 H                     0.247552
     29 H                     0.247876
     30 H                     0.246262
     31 H                     0.242301
     32 H                     0.250753
     33 H                     0.240367
     34 H                     0.236441
     35 H                     0.238600
     36 H                     0.238012
     37 C                     0.020179
     38 C                    -0.341609
     39 C                     0.108367
     40 C                    -0.346660
     41 C                     0.011691
     42 C                    -0.740542
     43 C                    -0.769316
     44 H                     0.217571
     45 C                    -0.721350
     46 H                     0.216264
     47 H                     0.241744
     48 H                     0.239939
     49 H                     0.216986
     50 H                     0.247617
     51 H                     0.240731
     52 H                     0.256587
     53 H                     0.236162
     54 H                     0.238178
     55 H                     0.233885
     56 C                     0.168099
     57 C                     0.177787
     58 C                    -0.398415
     59 C                    -0.230935
     60 C                    -0.349672
     61 C                     0.218632
     62 C                    -0.350843
     63 C                    -0.231157
     64 H                     0.252833
     65 H                     0.250244
     66 C                    -0.066549
     67 H                     0.241798
     68 C                    -0.396211
     69 H                     0.253265
     70 H                     0.247856
     71 H                     0.231665
     72 C                     0.176531
     73 C                    -0.350416
     74 C                    -0.231554
     75 C                    -0.396943
     76 H                     0.252650
     77 H                     0.246991
     78 H                     0.241635
     79 H                     0.247193
     80 C                    -0.066877
     81 C                     0.168879
     82 C                    -0.397914
     83 C                    -0.230973
     84 C                    -0.349515
     85 C                     0.219452
     86 H                     0.253473
     87 H                     0.250658
     88 H                     0.246237
     89 H                     0.249073
     90 H                     0.249000
     91 O                    -0.728954
     92 H                     0.510002
     93 H                     0.501681
  ----------------------------------------
  Sum of atomic charges =    -0.000000

 -----------------------------------------------------------------
                    Cartesian Multipole Moments
 -----------------------------------------------------------------
    Charge (ESU x 10^10)
                -0.0000
    Dipole Moment (Debye)
         X      -3.7581      Y      -1.3123      Z      -4.3279
       Tot       5.8802
    Quadrupole Moments (Debye-Ang)
        XX    -216.5536     XY     -12.2244     YY    -287.4847
        XZ      23.9969     YZ     -26.1170     ZZ    -284.3889
    Octopole Moments (Debye-Ang^2)
       XXX    5712.3758    XXY    -551.7393    XYY    2192.5958
       YYY   -2682.6465    XXZ    -285.0570    XYZ     223.7265
       YYZ    -279.5136    XZZ    2290.5402    YZZ    -913.0682
       ZZZ    -443.1611
    Hexadecapole Moments (Debye-Ang^3)
      XXXX -114306.1664   XXXY   17751.5176   XXYY  -25370.8936
      XYYY   23898.8254   YYYY  -33699.4142   XXXZ    8090.2970
      XXYZ   -1958.9741   XYYZ    4133.2143   YYYZ   -1646.9208
      XXZZ  -23321.0770   XYZZ    8565.5962   YYZZ   -7514.2602
      XZZZ    8706.2752   YZZZ   -1241.1622   ZZZZ   -9936.7331
 -----------------------------------------------------------------
Archival summary:
1\1\ctcp042\OPT\ProcedureUnspecified\BasisUnspecified\150240\mewes\WedDec1910:33:302018WedDec1910:33:302018\0\\#,OPT,ProcedureUnspecified,BasisUnspecified,\\0,1\O\H,1,0.969706\H,1,0.970023,2,106.111\B,1,1.69853,2,113.179,3,-119.406,0\C,4,1.6057,1,98.3011,2,164.732,0\C,5,1.39838,4,119.48,1,78.332,0\H,6,1.085,5,119.902,4,8.43459,0\C,6,1.38353,5,120.185,4,-168.955,0\C,5,1.41269,4,120.617,1,-93.5888,0\C,9,1.40483,5,119.961,4,169.553,0\H,10,1.08484,9,119.69,5,-178.074,0\C,10,1.37708,9,120.058,5,-0.478097,0\C,12,1.46451,10,131.45,9,-172.069,0\C,13,1.37055,12,135.164,10,0.517613,0\H,14,1.08334,13,121.935,12,-3.68336,0\C,13,1.40792,12,106.052,10,175.983,0\C,16,1.39118,13,124.068,12,-176.274,0\C,16,1.40914,13,111.421,12,-0.0616095,0\C,18,1.37075,16,118.377,13,-177.323,0\H,19,1.08301,18,121.903,16,178.972,0\C,19,1.41628,18,118.545,16,-0.365055,0\H,21,1.08232,19,118.435,18,-179.857,0\C,21,1.37621,19,122.562,18,1.05316,0\H,23,1.08327,21,119.943,19,178.893,0\C,14,1.41694,13,118.537,12,175.393,0\H,25,1.0825,14,118.473,13,-179.718,0\C,25,1.37554,14,122.439,13,-0.350213,0\H,27,1.08327,25,119.96,14,-179.259,0\B,9,1.55043,5,120.591,4,-8.17033,0\C,29,1.54864,9,120.342,5,0.108918,0\C,30,1.40457,29,119.41,9,179.504,0\H,31,1.08486,30,119.696,29,4.20843,0\C,31,1.37659,30,120.144,29,-172.97,0\C,30,1.41117,29,120.447,9,4.09911,0\C,34,1.39966,30,119.305,29,173.392,0\H,35,1.08638,34,120.059,30,-179.416,0\C,35,1.38342,34,120.289,30,-0.732114,0\C,33,1.46487,31,131.356,30,173.207,0\C,38,1.37031,33,135.289,31,3.4829,0\H,39,1.08316,38,121.921,33,3.40948,0\C,38,1.40765,33,106.051,31,-172.628,0\C,41,1.39202,38,124.112,33,175.477,0\C,41,1.40903,38,111.434,33,-1.05517,0\C,43,1.37117,41,118.329,38,176.787,0\H,44,1.08301,43,121.918,41,-179.052,0\C,42,1.41606,41,116.165,38,-176.647,0\H,46,1.08337,42,120.034,41,179.684,0\C,46,1.37612,42,119.993,41,0.40864,0\H,48,1.08235,46,119.02,42,179.406,0\C,42,1.41694,41,116.299,38,1.83344,0\H,50,1.08331,42,120.043,41,179.838,0\C,50,1.37528,42,119.946,41,-0.868563,0\H,52,1.08243,50,119.055,42,-179.586,0\C,29,1.57316,9,119.944,5,177.398,0\C,54,1.3987,29,120.498,9,-90.0318,0\C,55,1.39259,54,119.853,29,179.988,0\H,56,1.08542,55,119.147,54,-179.715,0\C,56,1.38851,55,121.593,54,0.0785033,0\C,58,1.39185,56,118.086,55,0.0562485,0\H,59,1.08557,58,119.309,56,-179.957,0\C,59,1.38959,58,121.464,56,-0.127711,0\C,58,1.502,56,121.155,55,-179.972,0\H,62,1.0897,58,111.534,56,3.23577,0\H,62,1.09127,58,111.436,56,123.582,0\H,62,1.09159,58,111.45,56,-117.012,0\C,61,1.50307,59,120.448,58,179.983,0\H,66,1.08971,61,111.845,59,-0.601418,0\H,66,1.09259,61,111.442,59,119.815,0\H,66,1.09265,61,111.316,59,-120.985,0\C,55,1.50419,54,120.239,29,0.127407,0\H,70,1.08984,55,111.709,54,179.307,0\H,70,1.09261,55,111.44,54,-60.4881,0\H,70,1.09288,55,111.462,54,59.1391,0\C,4,1.61126,1,110.055,2,-74.5672,0\C,74,1.40656,4,128.057,1,-10.1714,0\C,75,1.39759,74,120.209,4,179.631,0\H,76,1.08544,75,118.555,74,-179.86,0\C,76,1.38362,75,122.59,74,0.983084,0\C,78,1.38851,76,117.204,75,1.05232,0\H,79,1.08562,78,119.234,76,177.961,0\C,79,1.38922,78,121.843,76,-1.49647,0\C,78,1.50085,76,121.706,75,-179.161,0\H,82,1.08971,78,111.554,76,-12.4823,0\H,82,1.09072,78,111.497,76,-133.211,0\H,82,1.09211,78,111.215,76,107.476,0\C,81,1.50723,79,116.978,78,179.156,0\H,86,1.09006,81,110.602,79,-14.3545,0\H,86,1.09052,81,112.436,79,-134.415,0\H,86,1.09083,81,111.916,79,105.367,0\C,75,1.51138,74,124.367,4,-1.64413,0\H,90,1.08861,75,112.725,74,-50.9737,0\H,90,1.08995,75,109.888,74,-170.406,0\H,90,1.09177,75,112.893,74,71.261,0\\\@

 Total job time:  42019.59s(wall), 295809.82s(cpu) 
 Wed Dec 19 10:33:30 2018

        *************************************************************
        *                                                           *
        *  Thank you very much for using Q-Chem.  Have a nice day.  *
        *                                                           *
        *************************************************************


0 sent ACK to 0 
now end server 0 ... 
