92
 Final energy is   -2123.80100639099     
C         0.0286245468   -0.0806570069    0.0834410581
C         0.0153717286   -0.0698570414    1.4833293153
H         0.9545042861   -0.0703602488    2.0262962938
C        -1.1908602660   -0.0590183490    2.1653513511
C        -2.4024285234   -0.0683124012    1.4403171062
C        -2.4012696954   -0.0847596317    0.0591263564
H        -3.3364903804   -0.0955166729   -0.4906473773
C        -1.1920855579   -0.0867937508   -0.6350276017
C        -1.5271801147   -0.0396472701    3.5932822203
C        -0.8215002805   -0.0202040540    4.7662367889
H         0.2610884178   -0.0178808121    4.7831132786
C        -2.9342504460   -0.0394703179    3.6662987731
C        -3.6682782818   -0.0215858188    4.8458099116
C        -3.5133561229   -0.0571204655    2.3855371022
C        -4.8786392127   -0.0584386665    2.2720750440
H        -5.3731312739   -0.0721932704    1.3083854504
C        -5.0778550418   -0.0235731703    4.7065547003
H        -5.7090225535   -0.0108548637    5.5866414071
C        -5.6510331945   -0.0418308885    3.4563802461
H        -6.7300290986   -0.0433651839    3.3719041376
C        -1.5391356319   -0.0018580277    5.9869269850
H        -0.9785247250    0.0137785957    6.9122240083
C        -2.9130552322   -0.0023902862    6.0417646001
H        -3.4151006778    0.0123719138    7.0012305220
B         1.3773500267   -0.0927466905   -0.6936447592
C         1.3794629364   -0.0636188161   -2.2496118922
C         2.5892310697   -0.0410482713   -2.9534648783
H         3.5259450787   -0.0393750414   -2.4067749846
C         2.5843262519   -0.0223344444   -4.3380137563
C         1.3554076645   -0.0330222855   -5.0334876469
C         0.1561719928   -0.0575284370   -4.3500272027
H        -0.7830732836   -0.0673416887   -4.8928299903
C         0.1526916483   -0.0702691050   -2.9557238550
C         3.6611953667    0.0035611001   -5.3354849198
C         5.0301831965    0.0247988914   -5.3028936254
H         5.5806162394    0.0258089507   -4.3705568324
C         3.0293473288    0.0054852096   -6.5948111372
C         3.6943220023    0.0260220191   -7.8160899731
C         1.6295795964   -0.0165186446   -6.4678351505
C         0.8608523635   -0.0192361437   -7.6026815641
H        -0.2214099833   -0.0370193298   -7.5614715893
C         5.7378998547    0.0463874771   -6.5295952770
H         6.8193771262    0.0631771482   -6.4989555173
C         5.1070621111    0.0470933501   -7.7511704836
H         5.6926097164    0.0640421793   -8.6622379447
C         2.8807790583    0.0233063591   -8.9755179856
H         3.3370984390    0.0382795668   -9.9577896567
C         1.5109908269    0.0009584530   -8.8586938420
H         0.9055503680   -0.0015714609   -9.7558686176
B        -1.1986582863   -0.0972076484   -2.1897584175
C        -2.5520466975   -0.1424254936   -2.9885343472
C        -3.1957188368    1.0333132100   -3.3755594617
C        -4.3845494881    0.9880226290   -4.1017624664
H        -4.8545841296    1.9210625656   -4.3854386246
C        -4.9431479490   -0.2342612905   -4.4498446755
O        -6.0894530825   -0.3817949357   -5.1473184204
C        -4.3045155282   -1.4111451935   -4.0696895749
H        -4.7473650456   -2.3602906243   -4.3476507939
C        -3.1242118659   -1.3724523102   -3.3483401922
C        -6.7905924974    0.7682280328   -5.5366339703
H        -7.6804122963    0.4272757990   -6.0620462230
H        -7.1039822631    1.3744462182   -4.6803024021
H        -6.2094417599    1.4013845962   -6.2152859400
C        -2.4461066274   -2.6537971918   -2.9524850801
H        -3.0106571067   -3.5283331805   -3.2742334479
H        -1.4488120285   -2.7267847913   -3.3924538446
H        -2.3239662075   -2.7211609902   -1.8692554580
C        -2.5979015621    2.3644861187   -3.0151143808
H        -3.2194249180    3.1947686056   -3.3496095502
H        -1.6114799142    2.4909258784   -3.4669741975
H        -2.4701298496    2.4644218696   -1.9351508324
C         2.7370116299   -0.1549079503    0.0807251283
C         3.3147991660   -1.3864273874    0.3837658239
C         4.5259081532   -1.4496051388    1.0692969052
H         4.9472533760   -2.4223859171    1.2885534732
C         5.1691014815   -0.2810313956    1.4559152255
O         6.3428559840   -0.2429754518    2.1216706607
C         4.5962287953    0.9515747035    1.1521702238
H         5.1075500730    1.8565841346    1.4579972471
C         3.3932352498    1.0200401754    0.4710739534
C         6.9572472402   -1.4566629461    2.4606250441
H         7.8749098930   -1.2050560598    2.9883337115
H         7.2163900299   -2.0529695373    1.5793486487
H         6.3339879188   -2.0689458371    3.1210347075
C         2.7798453746    2.3515509406    0.1397103382
H         3.3872865629    3.1816423976    0.4984369615
H         2.6582924823    2.4739066898   -0.9391797204
H         1.7869472765    2.4535200603    0.5839973602
C         2.6236556665   -2.6542991751   -0.0379211880
H         3.1736059879   -3.5430133726    0.2706960774
H         2.5081330900   -2.7012195734   -1.1232912276
H         1.6217069414   -2.7237835047    0.3921302364
