mFile = /cm/shared/apps/q-chem/intel/QCHEM_5.0.1_Trunk/bin/mpi/machines
Process 0 of 1 is on ctcp044 - thread support 0
initial socket setup ...start
initial socket setup ...done 
now start server 0 ... 
ctcp044.cm.cluster 10.141.0
Q-Chem Developer Version! Running on 10.141.0.*
                  Welcome to Q-Chem
     A Quantum Leap Into The Future Of Chemistry


 Q-Chem 5.0, Q-Chem, Inc., Pleasanton, CA (2017)

 Yihan Shao,  Zhengting Gan,  E. Epifanovsky,  A. T. B. Gilbert,  M. Wormit,  
 J. Kussmann,  A. W. Lange,  A. Behn,  Jia Deng,  Xintian Feng,  D. Ghosh,  
 M. Goldey,  P. R. Horn,  L. D. Jacobson,  I. Kaliman,  T. Kus,  A. Landau,  
 Jie Liu,  E. I. Proynov,  R. M. Richard,  R. P. Steele,  E. J. Sundstrom,  
 H. L. Woodcock III,  P. M. Zimmerman,  D. Zuev,  B. Albrecht,  E. Alguire,  
 S. A. Baeppler,  Z. Benda,  Y. A. Bernard,  E. J. Berquist,  K. B. Bravaya,  
 D. Casanova,  Chun-Min Chang,  Yunqing Chen,  A. Chien,  K. D. Closser,  
 M. P. Coons,  S. Dasgupta,  M. Diedenhofen,  Hainam Do,  R. G. Edgar,  
 Po-Tung Fang,  S. Fatehi,  Qingguo Feng,  Qinghui Ge,  A. Ghysels,  
 J. Gomes,  J. Gonthier,  A. Gunina,  M. W. D. Hanson-Heine,  
 P. H. P. Harbach,  A. W. Hauser,  J. E. Herr,  E. G. Hohenstein,  
 Z. C. Holden,  Kerwin Hui,  T.-C. Jagau,  Hyunjun Ji,  B. Kaduk,  
 K. Khistyaev,  Jaehoon Kim,  P. Klunzinger,  K. Koh,  D. Kosenkov,  
 T. Kowalczyk,  C. M. Krauter,  A. Kunitsa,  Ka Un Lao,  A. Laurent,  
 K. V. Lawler,  Joonho Lee,  D. Lefrancois,  S. Lehtola,  D. S. Levine,  
 Yi-Pei Li,  You-Sheng Lin,  Fenglai Liu,  E. Livshits,  A. Luenser,  
 P. Manohar,  E. Mansoor,  S. F. Manzer,  Shan-Ping Mao,  Yuezhi Mao,  
 N. Mardirossian,  A. V. Marenich,  L. A. Martinez-Martinez,  S. A. Maurer,  
 N. J. Mayhall,  S. C. McKenzie,  J.-M. Mewes,  A. F. Morrison,  K. Nanda,  
 T. S. Nguyen-Beck,  R. Olivares-Amaya,  J. A. Parkhill,  T. M. Perrine,  
 F. Plasser,  S. Prager,  A. Prociuk,  D. R. Rehn,  F. Rob,  M. Schneider,  
 N. Sergueev,  S. M. Sharada,  S. Sharma,  D. W. Small,  T. Stauch,  
 T. Stein,  Yu-Chuan Su,  A. J. W. Thom,  T. Tsuchimochi,  L. Vogt,  
 O. Vydrov,  M. A. Watson,  J. Wenzel,  M. de Wergifosse,  T. A. Wesolowski,  
 A. White,  J. Witte,  A. Yamada,  Jun Yang,  K. Yao,  S. Yeganeh,  
 S. R. Yost,  Zhi-Qiang You,  A. Zech,  Igor Ying Zhang,  Xing Zhang,  
 Yan Zhao,  Ying Zhu,  B. R. Brooks,  G. K. L. Chan,  C. J. Cramer,  
 M. S. Gordon,  W. J. Hehre,  A. Klamt,  M. W. Schmidt,  C. D. Sherrill,  
 D. G. Truhlar,  A. Aspuru-Guzik,  R. Baer,  A. T. Bell,  N. A. Besley,  
 Jeng-Da Chai,  A. Dreuw,  B. D. Dunietz,  T. R. Furlani,  Chao-Ping Hsu,  
 Yousung Jung,  Jing Kong,  D. S. Lambrecht,  WanZhen Liang,  C. Ochsenfeld,  
 V. A. Rassolov,  L. V. Slipchenko,  J. E. Subotnik,  T. Van Voorhis,  
 J. M. Herbert,  A. I. Krylov,  P. M. W. Gill,  M. Head-Gordon

 Contributors to earlier versions of Q-Chem not listed above: 
 R. D. Adamson,  B. Austin,  J. Baker,  G. J. O. Beran,  K. Brandhorst,  
 S. T. Brown,  E. F. C. Byrd,  A. K. Chakraborty,  C.-L. Cheng,  
 Siu Hung Chien,  D. M. Chipman,  D. L. Crittenden,  H. Dachsel,  
 R. A. DiStasio Jr.,  R. J. Doerksen,  A. D. Dutoi,  L. Fusti-Molnar,  
 W. A. Goddard III,  A. Golubeva-Zadorozhnaya,  S. R. Gwaltney,  G. Hawkins,  
 A. Heyden,  S. Hirata,  G. Kedziora,  F. J. Keil,  C. Kelley,  Jihan Kim,  
 R. A. King,  R. Z. Khaliullin,  P. P. Korambath,  W. Kurlancheek,  
 A. M. Lee,  M. S. Lee,  S. V. Levchenko,  Ching Yeh Lin,  D. Liotard,  
 R. C. Lochan,  I. Lotan,  P. E. Maslen,  N. Nair,  D. P. O'Neill,  
 D. Neuhauser,  E. Neuscamman,  C. M. Oana,  R. Olson,  B. Peters,  
 R. Peverati,  P. A. Pieniazek,  Y. M. Rhee,  J. Ritchie,  M. A. Rohrdanz,  
 E. Rosta,  N. J. Russ,  H. F. Schaefer III,  N. E. Schultz,  N. Shenvi,  
 A. C. Simmonett,  A. Sodt,  D. Stuck,  K. S. Thanthiriwatte,  V. Vanovschi,  
 Tao Wang,  A. Warshel,  C. F. Williams,  Q. Wu,  X. Xu,  W. Zhang

 Please cite Q-Chem as follows:
 Y. Shao et al., Mol. Phys. 113, 184-215 (2015)
 DOI: 10.1080/00268976.2014.952696

 Q-Chem 5.0.1 for Intel X86 EM64T Linux

 Parts of Q-Chem use Armadillo 5.200.1 (Boston Tea Smuggler).
 http://arma.sourceforge.net/

 Q-Chem begins on Wed Oct 24 20:36:30 2018  

Host: 32512

     Scratch files written to /scratch/mewes/138294/qchem17051//
 Parallel job on  1  processors
The previous job contains 0 fragments, simply inherited here
Symmetry turned off for PCM/SM12/SMD calculation

Checking the input file for inconsistencies... 	...done.

--------------------------------------------------------------
User input:
--------------------------------------------------------------
$rem
threads 4
jobtype	opt
method PBEh-3c
basis def2-mSVP
mem_static	1024
mem_total	4000
sym_ignore	true
scf_convergence	9
solvent_method	pcm
$end

$molecule
read gsopt.mol
$end

$solvent
dielectric	2.03 
$end

$pcm
theory iefpcm
$end
--------------------------------------------------------------
 Adding empirical dispersion correction 
 ----------------------------------------------------------------
 Doing -D3(BJ) with
 s6 =   1.00000
 s8 =   0.00000
 a1 =   0.48600
 a2 =   4.50000
 -D3 energy including 3body term =     -0.0837298698 hartrees
 ----------------------------------------------------------------
 Adding gCP correction 
 ----------------------------------------------------------------
 gCP energy =      0.1316833039 hartrees
 ----------------------------------------------------------------
             Standard Nuclear Orientation (Angstroms)
    I     Atom           X                Y                Z
 ----------------------------------------------------------------
    1      C       0.0000000000     0.0000000000     0.0000000000
    2      C       0.0000000000     0.0000000000     1.3970920000
    3      H       0.9433709246     0.0000000000     1.9325653342
    4      C      -1.1981251426     0.0395229771     2.0849095805
    5      C      -2.4226306496     0.0531470899     1.3811803287
    6      C      -2.4312628164     0.0645579141    -0.0009706144
    7      H      -3.3687772008     0.1244804561    -0.5428543733
    8      C      -1.2245748378     0.0500427236    -0.7051824898
    9      C      -3.5078517806     0.1505703623     2.3595108367
   10      C      -4.8727938557     0.2449176319     2.2937367298
   11      H      -5.4026711956     0.2254453929     1.3497759379
   12      C      -2.8926425366     0.2072508379     3.6232956289
   13      C      -3.5785667507     0.3715626871     4.8221788756
   14      C      -1.4909094157     0.1497721242     3.5157267572
   15      C      -0.7425703494     0.2616920842     4.6582682961
   16      H       0.3399797589     0.2430727580     4.6381562063
   17      C      -5.6007056390     0.3896720080     3.4986024678
   18      H      -6.6788844983     0.4654444494     3.4449899672
   19      C      -4.9882276473     0.4540077496     4.7277008903
   20      H      -5.5849839563     0.5817348218     5.6226859546
   21      C      -1.4127103466     0.4220986359     5.8943598038
   22      H      -0.8200248533     0.5140177426     6.7952569150
   23      C      -2.7832081789     0.4751592698     5.9885780081
   24      H      -3.2527634138     0.6098405387     6.9554345466
   25      B       1.3454717354     0.0279796007    -0.7760263189
   26      B      -1.2274918054     0.2088446059    -2.2519643460
   27      C       0.1130404394     0.1495114022    -3.0390770850
   28      C       0.1209245427     0.2761855340    -4.4308891871
   29      H      -0.8200643762     0.3652314160    -4.9628404855
   30      C       1.3234859187     0.3425676327    -5.1128515835
   31      C       2.5422877475     0.2927807108    -4.4015789225
   32      C       2.5450843655     0.1465669057    -3.0268564460
   33      H       3.4796176518     0.1301191490    -2.4764287734
   34      C       1.3367354031     0.0746679798    -2.3314383427
   35      C       3.6334620489     0.5308459523    -5.3435581384
   36      C       4.9892317088     0.6887496463    -5.2324349855
   37      H       5.5012129659     0.5872948823    -4.2834566239
   38      C       3.0333575005     0.7030273219    -6.6039681965
   39      C       3.7305320891     1.0346526280    -7.7597987945
   40      C       1.6326785015     0.5880670822    -6.5233346126
   41      C       0.8970546273     0.7855249084    -7.6614324568
   42      H      -0.1842363320     0.7285924319    -7.6606754855
   43      C       5.7274640999     1.0136403459    -6.3945322638
   44      H       6.7984158162     1.1428754208    -6.3078159382
   45      C       5.1315879678     1.1840415872    -7.6219752578
   46      H       5.7357299226     1.4465147923    -8.4817665630
   47      C       1.5799119187     1.0944280227    -8.8621388035
   48      H       0.9972591873     1.2522840615    -9.7602445576
   49      C       2.9475566640     1.2233730876    -8.9239087837
   50      H       3.4231371428     1.4822564617    -9.8619026009
   51      C      -2.5728581492     0.5450579313    -2.9849797973
   52      C      -3.3678187502    -0.4549937685    -3.5413501445
   53      C      -4.5660813284    -0.1377545762    -4.1796208074
   54      H      -5.1591556223    -0.9389744822    -4.6015712612
   55      C      -4.9776058773     1.1853326017    -4.2680054546
   56      O      -6.1143395627     1.5945828437    -4.8705287923
   57      C      -4.1896785383     2.1877855871    -3.7092983760
   58      H      -4.5218974524     3.2166491458    -3.7836931418
   59      C      -3.0015595573     1.8793467096    -3.0705777302
   60      C      -6.9473416306     0.6314045534    -5.4556913298
   61      H      -7.7925144335     1.1682646293    -5.8817499050
   62      H      -6.4464701498     0.0802570427    -6.2583684961
   63      H      -7.3279896530    -0.0899388910    -4.7249536922
   64      C      -2.9281650631    -1.8894095258    -3.4450775772
   65      H      -3.6425355219    -2.5684456258    -3.9097727018
   66      H      -1.9633250159    -2.0446173339    -3.9330194738
   67      H      -2.8117774438    -2.1998800591    -2.4041990383
   68      C      -2.1747587157     2.9764975062    -2.4584105223
   69      H      -2.5867834533     3.9612759903    -2.6764622218
   70      H      -1.1473091241     2.9618083507    -2.8288578115
   71      H      -2.1242096564     2.8749933654    -1.3719942508
   72      C       2.7028708746     0.0665656048     0.0114957983
   73      C       3.2737928651     1.2855181387     0.3799101172
   74      C       4.4792274769     1.3195426873     1.0781903294
   75      H       4.8957808312     2.2825555105     1.3453542018
   76      C       5.1245138321     0.1376668551     1.4171044808
   77      O       6.2947935590     0.0746774829     2.0873437723
   78      C       4.5563007496    -1.0810674214     1.0572299022
   79      H       5.0672624832    -1.9977576420     1.3263071087
   80      C       3.3598172690    -1.1210426816     0.3617385108
   81      C       6.9274019868     1.2735821132     2.4445407072
   82      H       7.8489713262     0.9997174145     2.9541357416
   83      H       6.3213107822     1.8784756432     3.1272060294
   84      H       7.1819035408     1.8861575496     1.5731657068
   85      C       2.7515173206    -2.4406815578    -0.0213867654
   86      H       3.3831862916    -3.2796878929     0.2678480499
   87      H       2.5910213313    -2.5053192365    -1.0998940341
   88      H       1.7785447372    -2.5808001158     0.4551093677
   89      C       2.5852146944     2.5759785994     0.0286351277
   90      H       3.1627111445     3.4440272994     0.3460865496
   91      H       2.4269833359     2.6661888068    -1.0482411182
   92      H       1.6035994476     2.6460256826     0.5028366071
 ----------------------------------------------------------------
 Nuclear Repulsion Energy =  6520.9038650019 hartrees
 There are      182 alpha and      182 beta electrons
 Requested basis set is def2-mSVP
 There are 454 shells and 886 basis functions

 Total QAlloc Memory Limit   4000 MB
 Mega-Array Size      1001 MB
 MEM_STATIC part      1024 MB
 Discretize the solute cavity surface with Lebedev spheres
	Using 302 Lebedev grid points for each H atom
	Using 302 Lebedev grid points for other atoms
	Atomic van der Waals radii will be scaled by 1.20
 Remove points where switching function is < 1.0e-08
 Keep 9848 surface tesserae and discard 17936 interior tesserae
 Molecular Surface Area = 734.071 Angst**2
 A cutoff of  1.0D-12 yielded  40180 shell pairs
 There are    159962 function pairs (    176538 Cartesian)
 
 -------------------------------------------------------
 OpenMP Integral Computing Module                       
 Release: version 1.0, May 2013, Q-Chem Inc. Pittsburgh 
 -------------------------------------------------------
 Integral Job Info:
 Integral job number is                      11
 Integral operator is                         1
 short-range coefficients                     0
 long-range coefficients              100000000
 Omega coefficients                           0
 if combine SR and LR in K                    0
 Integral screening is                        0
 Integral computing path is                   2
 max size of driver memory is            800000
 size of driver memory is                593474
 size of scratch memory is              1809772
 max col of scratch BK array               1296
 max len of scratch array in speh3          155
 max len of scratch index in speh4           18
 max int batch size is                      520
 min int batch size is                       52
 fixed nKL is                                52
 max L of basis functions is                  2
 order of int derivative is                   0
 number of shells is                        454
 number of basis is                         940
 number of cartesian basis is               940
 number of contracted shell pairs         40180
 number of primitive shell pairs          84666
 maxK2 (contraction) of shell pair           25
 max number of K2 of shell pair               1
 max number of CS2 of shell pair           9612
 max number of PS2 of shell pair          14885
 mem total for path MDJ                  418696
 -------------------------------------------------------
 Smallest overlap matrix eigenvalue = 1.99E-04

 Scale SEOQF with 1.000000e-02/1.000000e-01/1.000000e-02

 Standard Electronic Orientation quadrupole field applied
 Nucleus-field energy     =    -0.0000000198 hartrees
 Guess from superposition of atomic densities
 Warning:  Energy on first SCF cycle will be non-variational
 A restricted hybrid HF-DFT SCF calculation will be
 performed using Pulay DIIS extrapolation
 Polarizable Continuum solvation model will be applied
 Exchange:     0.4200 Hartree-Fock + 0.5800 PBEh-3c
 Correlation:  1.0000 PBEh-3c
 Using SG-1 standard quadrature grid
 Dispersion:   Grimme D3
 SCF converges when DIIS error is below 1.0E-09
 using 4 threads for integral computing
 -------------------------------------------------------
 OpenMP Integral computing Module                
 Release: version 1.0, May 2013, Q-Chem Inc. Pittsburgh 
 -------------------------------------------------------
 ---------------------------------------
  Cycle       Energy         DIIS Error
 ---------------------------------------
    1   -2142.0804249395      2.83E-02
 Using non-symmetric K matrix
    2   -2123.3893781707      1.93E-03
    3   -2123.5822369019      1.46E-03
    4   -2123.7823071011      4.91E-04
    5   -2123.8053443578      1.96E-04
    6   -2123.8093062324      5.60E-05
    7   -2123.8096049019      1.55E-05
    8   -2123.8096295104      4.37E-06
    9   -2123.8096315896      1.00E-06
   10   -2123.8096317468      4.46E-07
   11   -2123.8096317760      1.57E-07
   12   -2123.8096317812      7.08E-08
   13   -2123.8096317830      1.72E-08
   14   -2123.8096317833      7.77E-09
   15   -2123.8096317839      2.43E-09
   16   -2123.8096317795      1.35E-09
   17   -2123.8096317829      4.34E-10 Convergence criterion met
 ---------------------------------------

************** Final PCM Free Energy Summary **************
 G_electrostatic  =      -0.01177637 hartree =      -7.38978530 kcal/mol
 G_cavitation     =       0.00000000 hartree =       0.00000000 kcal/mol
 G_dispersion     =       0.00000000 hartree =       0.00000000 kcal/mol
 G_repulsion      =       0.00000000 hartree =       0.00000000 kcal/mol
 --------------------------------------------------
 Non-electrostatic Free Energy =       0.00000000 hartree =       0.00000000 kcal/mol
 Total                         =      -0.01177637 hartree =      -7.38978530 kcal/mol
 --------------------------------------------------
 SCF Energy (H0 + V/2)                       =   -2123.80963178 
 Solute Internal Energy (H0)                 =   -2123.79785541 
 Total Free Energy (H0 + V/2 + non-elec)     =   -2123.80963178 hartree
                                             = -1332710.65854480 kcal/mol
***********************************************************

 SCF time:  CPU 4747.11 s  wall 2047.99 s
 SCF   energy in the final basis set = -2123.80963178
 Total energy in the final basis set = -2123.80963178
 
 --------------------------------------------------------------
 
                    Orbital Energies (a.u.)
 --------------------------------------------------------------
 
 Alpha MOs
 -- Occupied --
-19.524 -19.524 -10.501 -10.500 -10.485 -10.485 -10.463 -10.463
-10.462 -10.462 -10.462 -10.462 -10.462 -10.462 -10.461 -10.461
-10.460 -10.460 -10.460 -10.460 -10.459 -10.459 -10.459 -10.459
-10.457 -10.457 -10.457 -10.457 -10.452 -10.452 -10.452 -10.451
-10.451 -10.451 -10.451 -10.451 -10.445 -10.445 -10.433 -10.432
-10.432 -10.431 -10.431 -10.431 -10.428 -10.428 -10.427 -10.425
-10.424 -10.423 -10.413 -10.413  -6.946  -6.946  -1.181  -1.181
 -1.015  -1.014  -0.961  -0.958  -0.953  -0.952  -0.932  -0.931
 -0.907  -0.899  -0.871  -0.870  -0.859  -0.853  -0.852  -0.848
 -0.845  -0.844  -0.820  -0.812  -0.810  -0.803  -0.788  -0.788
 -0.765  -0.765  -0.755  -0.754  -0.733  -0.726  -0.724  -0.718
 -0.687  -0.681  -0.677  -0.663  -0.660  -0.649  -0.646  -0.645
 -0.642  -0.642  -0.592  -0.591  -0.589  -0.586  -0.583  -0.583
 -0.582  -0.573  -0.572  -0.558  -0.558  -0.542  -0.541  -0.535
 -0.533  -0.532  -0.526  -0.521  -0.511  -0.505  -0.500  -0.495
 -0.493  -0.489  -0.488  -0.487  -0.484  -0.483  -0.483  -0.480
 -0.477  -0.475  -0.472  -0.471  -0.469  -0.465  -0.464  -0.463
 -0.462  -0.457  -0.456  -0.452  -0.443  -0.440  -0.440  -0.438
 -0.433  -0.424  -0.424  -0.422  -0.419  -0.417  -0.417  -0.410
 -0.399  -0.399  -0.396  -0.393  -0.393  -0.392  -0.390  -0.389
 -0.377  -0.375  -0.373  -0.366  -0.362  -0.357  -0.354  -0.350
 -0.339  -0.337  -0.318  -0.312  -0.294  -0.293  -0.279  -0.275
 -0.275  -0.261  -0.255  -0.254  -0.249  -0.247
 -- Virtual --
 -0.089  -0.057  -0.035  -0.027  -0.003   0.007   0.018   0.030
  0.031   0.036   0.036   0.048   0.071   0.084   0.087   0.093
  0.125   0.130   0.144   0.149   0.149   0.153   0.159   0.161
  0.162   0.164   0.165   0.169   0.172   0.175   0.184   0.186
  0.189   0.191   0.192   0.194   0.195   0.197   0.199   0.201
  0.207   0.208   0.209   0.211   0.218   0.218   0.221   0.222
  0.223   0.225   0.227   0.228   0.230   0.231   0.233   0.233
  0.235   0.241   0.245   0.249   0.250   0.252   0.254   0.255
  0.261   0.262   0.267   0.270   0.271   0.279   0.280   0.286
  0.289   0.289   0.292   0.300   0.307   0.311   0.312   0.314
  0.316   0.320   0.325   0.326   0.331   0.333   0.335   0.339
  0.340   0.346   0.352   0.353   0.365   0.377   0.382   0.391
  0.394   0.405   0.406   0.408   0.414   0.420   0.425   0.431
  0.439   0.443   0.447   0.456   0.457   0.462   0.462   0.470
  0.474   0.487   0.489   0.491   0.495   0.498   0.502   0.504
  0.506   0.509   0.515   0.521   0.527   0.529   0.530   0.530
  0.531   0.533   0.539   0.539   0.540   0.542   0.544   0.546
  0.548   0.552   0.555   0.559   0.561   0.562   0.564   0.565
  0.569   0.571   0.572   0.576   0.576   0.581   0.581   0.584
  0.587   0.589   0.591   0.592   0.598   0.599   0.600   0.602
  0.602   0.604   0.606   0.608   0.613   0.616   0.618   0.622
  0.623   0.625   0.626   0.627   0.632   0.632   0.635   0.636
  0.641   0.646   0.650   0.651   0.656   0.657   0.660   0.663
  0.668   0.673   0.677   0.680   0.684   0.686   0.689   0.692
  0.697   0.700   0.702   0.703   0.705   0.708   0.712   0.715
  0.722   0.727   0.728   0.731   0.735   0.736   0.738   0.747
  0.753   0.755   0.757   0.759   0.762   0.765   0.776   0.777
  0.778   0.781   0.785   0.788   0.794   0.797   0.799   0.803
  0.806   0.821   0.830   0.833   0.837   0.837   0.845   0.847
  0.857   0.859   0.870   0.880   0.883   0.884   0.891   0.910
  0.916   0.917   0.921   0.925   0.926   0.945   0.947   0.952
  0.953   0.954   0.958   0.965   0.967   0.975   0.979   0.980
  0.982   0.985   0.990   0.991   0.993   0.994   0.997   0.999
  1.000   1.002   1.004   1.007   1.009   1.017   1.023   1.023
  1.028   1.029   1.033   1.034   1.037   1.041   1.043   1.045
  1.057   1.058   1.061   1.067   1.074   1.074   1.077   1.079
  1.080   1.083   1.084   1.085   1.088   1.090   1.096   1.100
  1.101   1.109   1.114   1.124   1.127   1.129   1.130   1.138
  1.140   1.147   1.153   1.154   1.156   1.157   1.160   1.161
  1.173   1.176   1.178   1.182   1.188   1.195   1.202   1.204
  1.207   1.214   1.221   1.238   1.243   1.246   1.255   1.256
  1.262   1.265   1.272   1.275   1.279   1.281   1.284   1.295
  1.299   1.301   1.303   1.307   1.309   1.310   1.313   1.315
  1.323   1.329   1.342   1.343   1.347   1.353   1.363   1.366
  1.374   1.384   1.390   1.391   1.392   1.398   1.404   1.405
  1.413   1.424   1.425   1.432   1.436   1.441   1.442   1.445
  1.448   1.450   1.452   1.470   1.473   1.477   1.494   1.509
  1.511   1.513   1.514   1.517   1.519   1.519   1.520   1.521
  1.524   1.526   1.530   1.533   1.535   1.535   1.544   1.546
  1.549   1.557   1.559   1.563   1.564   1.571   1.574   1.583
  1.586   1.591   1.595   1.595   1.599   1.605   1.614   1.618
  1.634   1.642   1.645   1.648   1.660   1.671   1.681   1.690
  1.699   1.738   1.745   1.752   1.759   1.760   1.769   1.788
  1.798   1.809   1.809   1.811   1.814   1.819   1.822   1.825
  1.834   1.846   1.853   1.857   1.866   1.879   1.896   1.904
  1.907   1.921   1.921   1.923   1.927   1.935   1.937   1.942
  1.947   1.949   1.951   1.954   1.954   1.957   1.958   1.978
  1.986   1.986   1.987   1.990   1.992   1.995   1.999   2.002
  2.021   2.026   2.027   2.037   2.038   2.048   2.053   2.066
  2.068   2.071   2.075   2.076   2.087   2.087   2.101   2.112
  2.114   2.114   2.127   2.133   2.141   2.143   2.146   2.156
  2.158   2.160   2.161   2.161   2.167   2.182   2.190   2.195
  2.202   2.206   2.207   2.219   2.222   2.223   2.232   2.234
  2.235   2.244   2.246   2.253   2.263   2.266   2.271   2.273
  2.276   2.278   2.281   2.284   2.286   2.291   2.292   2.300
  2.315   2.323   2.324   2.325   2.329   2.330   2.333   2.341
  2.344   2.347   2.350   2.352   2.358   2.363   2.363   2.365
  2.382   2.389   2.394   2.398   2.405   2.408   2.412   2.417
  2.418   2.420   2.426   2.426   2.431   2.436   2.441   2.444
  2.460   2.464   2.468   2.470   2.477   2.489   2.493   2.497
  2.499   2.501   2.520   2.522   2.525   2.540   2.557   2.564
  2.568   2.584   2.617   2.628   2.636   2.644   2.644   2.645
  2.649   2.656   2.658   2.665   2.688   2.691   2.712   2.726
  2.730   2.732   2.733   2.737   2.747   2.750   2.773   2.776
  2.777   2.780   2.785   2.788   2.789   2.791   2.795   2.795
  2.800   2.807   2.813   2.815   2.817   2.823   2.844   2.852
  2.855   2.856   2.872   2.875   2.896   2.898   2.902   2.906
  2.923   2.927   2.941   2.942   2.957   2.982   2.994   3.009
  3.010   3.027   3.046   3.060   3.081   3.082   3.083   3.086
  3.102   3.108   3.116   3.238   3.255   3.257   3.317   3.319
  3.403   3.441   3.454   3.494   3.495   3.496   3.551   3.560
  3.670   3.683   9.587   9.724  13.143  13.177  13.403  13.491
 13.495  13.512  13.526  13.545  13.719  13.726  13.732  13.781
 13.782  13.791  13.794  13.805  13.849  13.861  13.887  13.894
 13.914  13.929  13.945  13.998  14.007  14.009  14.032  14.045
 14.122  14.162  14.164  14.190  14.199  14.203  14.221  14.261
 14.263  14.267  14.307  14.310  14.335  14.344  14.514  14.518
 14.570  14.571  14.575  14.577  14.587  14.587  25.789  25.790
 --------------------------------------------------------------
 
          Ground-State Mulliken Net Atomic Charges

     Atom                 Charge (a.u.)
  ----------------------------------------
      1 C                    -0.154778
      2 C                    -0.390641
      3 H                     0.241433
      4 C                     0.087978
      5 C                     0.092177
      6 C                    -0.389606
      7 H                     0.240958
      8 C                    -0.154964
      9 C                     0.187313
     10 C                    -0.387465
     11 H                     0.234605
     12 C                    -0.062790
     13 C                     0.238335
     14 C                     0.187563
     15 C                    -0.386957
     16 H                     0.234712
     17 C                    -0.216507
     18 H                     0.239655
     19 C                    -0.341188
     20 H                     0.234490
     21 C                    -0.216755
     22 H                     0.239797
     23 C                    -0.340490
     24 H                     0.234490
     25 B                     0.697732
     26 B                     0.692527
     27 C                    -0.152329
     28 C                    -0.391688
     29 H                     0.238863
     30 C                     0.093510
     31 C                     0.087718
     32 C                    -0.387848
     33 H                     0.241637
     34 C                    -0.156657
     35 C                     0.183880
     36 C                    -0.383996
     37 H                     0.235077
     38 C                    -0.061082
     39 C                     0.238782
     40 C                     0.184874
     41 C                    -0.386946
     42 H                     0.234451
     43 C                    -0.217275
     44 H                     0.239790
     45 C                    -0.340250
     46 H                     0.234383
     47 C                    -0.216218
     48 H                     0.239671
     49 C                    -0.341752
     50 H                     0.234633
     51 C                    -0.219190
     52 C                     0.071148
     53 C                    -0.440351
     54 H                     0.234547
     55 C                     0.398799
     56 O                    -0.460396
     57 C                    -0.398075
     58 H                     0.229593
     59 C                     0.050571
     60 C                    -0.416071
     61 H                     0.245639
     62 H                     0.209713
     63 H                     0.209564
     64 C                    -0.763781
     65 H                     0.239424
     66 H                     0.246919
     67 H                     0.246118
     68 C                    -0.767365
     69 H                     0.244232
     70 H                     0.248031
     71 H                     0.248896
     72 C                    -0.223795
     73 C                     0.053838
     74 C                    -0.447042
     75 H                     0.234900
     76 C                     0.398634
     77 O                    -0.460653
     78 C                    -0.393670
     79 H                     0.229428
     80 C                     0.068027
     81 C                    -0.416368
     82 H                     0.245753
     83 H                     0.209628
     84 H                     0.210079
     85 C                    -0.767154
     86 H                     0.243526
     87 H                     0.247036
     88 H                     0.246793
     89 C                    -0.765987
     90 H                     0.239846
     91 H                     0.248622
     92 H                     0.247744
  ----------------------------------------
  Sum of atomic charges =    -0.000000

 -----------------------------------------------------------------
                    Cartesian Multipole Moments
 -----------------------------------------------------------------
    Charge (ESU x 10^10)
                -0.0000
    Dipole Moment (Debye)
         X      -0.2571      Y       1.2570      Z      -0.1872
       Tot       1.2966
    Quadrupole Moments (Debye-Ang)
        XX    -259.4550     XY      19.5363     YY    -311.4327
        XZ       0.6458     YZ       5.7887     ZZ    -258.0069
    Octopole Moments (Debye-Ang^2)
       XXX     -86.2769    XXY     -77.1117    XYY      19.9207
       YYY    -432.5501    XXZ     360.8187    XYZ     -58.3031
       YYZ     470.1912    XZZ     -41.5943    YZZ     -61.4938
       ZZZ    1144.3774
    Hexadecapole Moments (Debye-Ang^3)
      XXXX  -21138.8027   XXXY     831.1912   XXYY   -4545.4983
      XYYY     -47.2049   YYYY   -2591.2968   XXXZ    2563.7352
      XXYZ     674.1325   XYYZ    1045.4849   YYYZ    1455.7549
      XXZZ   -7831.6172   XYZZ     498.2859   YYZZ   -6421.1223
      XZZZ    1665.9809   YZZZ     849.5820   ZZZZ  -28548.3427
 -----------------------------------------------------------------
 Calculating analytic gradient of the SCF energy
 -4.977170962132493E-004 -4.977231183106233E-004
 -4.977144737173620E-004 -4.977258312840920E-004
 -4.977213664102860E-004 -4.977188408761503E-004
 -4.977284546226202E-004 -4.977117499047566E-004
 -4.977176060960611E-004 -4.977227009243120E-004
 -4.977189660938987E-004 -4.977212522817357E-004
 -4.977317687782981E-004 -4.977084451088244E-004
 -4.977234409249479E-004 -4.977168165396797E-004
 -4.977192824229175E-004 -4.977209328658170E-004
 -4.977322064749687E-004 -4.977080086030098E-004
 -4.977136480655909E-004 -4.977266579026429E-004
 -4.977038123586436E-004 -4.977363988075056E-004
 -4.977283045533578E-004 -4.977119045685198E-004
 -4.977108955802586E-004 -4.977294110032988E-004
 -4.977007591620841E-004 -4.977394558267558E-004
 -4.977172166406938E-004 -4.977230085539365E-004
 -4.977137426186644E-004 -4.977265654252303E-004
 -4.977123456693469E-004 -4.977278512009868E-004
 -4.977147521249396E-004 -4.977254777439922E-004
 -4.977207197723939E-004 -4.977195382068703E-004
 -4.977095159921041E-004 -4.977306844530581E-004
 -4.977196668105406E-004 -4.977205407435145E-004
 -4.977136663579581E-004 -4.977266390755297E-004
 -4.977219161290236E-004 -4.977182965878806E-004
 -4.977148901314835E-004 -4.977253121721730E-004
 -4.977155343453166E-004 -4.977247693631602E-004
 -4.977154607879143E-004 -4.977247558000668E-004
 -4.977158877984449E-004 -4.977243244426307E-004
 -4.977185953076344E-004 -4.977217006147778E-004
 -4.976814790940876E-004 -4.977587346414590E-004
 -4.977201389795595E-004 -4.977200547628834E-004
 -4.977195353343886E-004 -4.977207037838475E-004
 -4.977124565236947E-004 -4.977277593645436E-004
 -4.977317867334685E-004 -4.977084385851218E-004
 -4.977174029459691E-004 -4.977229010218135E-004
 -4.976989092894790E-004 -4.977413168135779E-004
 -4.977038212724183E-004 -4.977363775717689E-004
 -4.977277984140561E-004 -4.977124830899380E-004
 -4.977489670617097E-004 -4.976912526999918E-004
 -4.977279001111496E-004 -4.977122944803281E-004
 -4.977180997135021E-004 -4.977222025458934E-004
 -4.977221197346284E-004 -4.977181034749088E-004
 -4.977551808738180E-004 -4.976850430913659E-004
 -4.977198525451937E-004 -4.977204423847225E-004
 -4.977027034972364E-004 -4.977374984563377E-004
 -4.977267602837346E-004 -4.977134562893751E-004
 -4.977204551423915E-004 -4.977197842590091E-004
 -4.977164173904833E-004 -4.977237743373642E-004
 -4.977073875894198E-004 -4.977328077673043E-004
 -4.977262700945387E-004 -4.977140129013022E-004
 -4.977412261656616E-004 -4.976989892540940E-004
 -4.977252471921444E-004 -4.977149545554250E-004
 -4.977232733474782E-004 -4.977169604482611E-004
 -4.977072144588042E-004 -4.977329892417314E-004
 -4.977327002548858E-004 -4.977075018146320E-004
 -4.977210865640973E-004 -4.977191969644298E-004
 -4.976981702737773E-004 -4.977420407322015E-004
 -4.977145940628209E-004 -4.977256244336193E-004
 -4.977261081622775E-004 -4.977141457650598E-004
 -4.977343986321270E-004 -4.977058004934590E-004
 -4.977083274882145E-004 -4.977318506866780E-004
 -4.977266812179893E-004 -4.977136019950650E-004
 -4.977421328888432E-004 -4.976981021183446E-004
 -4.977285173917803E-004 -4.977116653983624E-004
 -4.977228120399437E-004 -4.977174214998040E-004
 -4.977091009836848E-004 -4.977311229121030E-004
 -4.977322104968106E-004 -4.977080077359124E-004
 -4.977207048656206E-004 -4.977195785909514E-004
 -4.976977498152742E-004 -4.977424456965619E-004
 -4.977104041604158E-004 -4.977298240951089E-004
 -4.977259657351009E-004 -4.977142882002605E-004
 -4.977321479008952E-004 -4.977080405917982E-004
 -4.977269511585035E-004 -4.977132669136545E-004
 -4.977203178231648E-004 -4.977199654034642E-004
 -4.977232102018777E-004 -4.977170129820230E-004
 -4.977134653220197E-004 -4.977267526338782E-004
 -4.977233538924278E-004 -4.977169286525191E-004
 -4.977172275091354E-004 -4.977229951572042E-004
 -4.977220597602405E-004 -4.977181544949566E-004
 -4.977148581673642E-004 -4.977254461855103E-004
 -4.977192662229345E-004 -4.977209402295976E-004
 -4.977118344057674E-004 -4.977283697442146E-004
 -4.977160971924072E-004 -4.977242094505213E-004
 -4.977218062429528E-004 -4.977184145760318E-004
 -4.977077848120988E-004 -4.977324299173717E-004
 -4.977249140688499E-004 -4.977153439233537E-004
 -4.977211560324697E-004 -4.977190610746932E-004
 -4.977084626763870E-004 -4.977317523348951E-004
 -4.977096884756841E-004 -4.977306147611164E-004
 -4.977356914851554E-004 -4.977045220419954E-004
 -4.977124441084421E-004 -4.977277650297614E-004
 -4.977094093854743E-004 -4.977308923307779E-004
 -4.977379754928842E-004 -4.977022446841734E-004
 -4.977234822367911E-004 -4.977167434666793E-004
 -4.977147972586901E-004 -4.977255074016774E-004
 -4.977276983512558E-004 -4.977125003499208E-004
 -4.977254870788038E-004 -4.977147419073017E-004
 -4.977206530727377E-004 -4.977196035756228E-004
 -4.977313983537438E-004 -4.977088022612153E-004
 -4.977196644243218E-004 -4.977205425068015E-004
 -4.977141844501928E-004 -4.977261195688583E-004
 -4.977177625160264E-004 -4.977224503807235E-004
 -4.977269807395512E-004 -4.977132226455193E-004
 -4.977153701332161E-004 -4.977249279060809E-004
 -4.977246816670246E-004 -4.977155361528833E-004
 -4.977227351752155E-004 -4.977174770787712E-004
 -4.977148887850143E-004 -4.977253998018317E-004
 -4.977585076391740E-004 -4.976817126706233E-004
 -4.977205825315845E-004 -4.977196099809728E-004
 -4.977186694501963E-004 -4.977215686801726E-004
 -4.977273752744555E-004 -4.977128436496974E-004
 -4.977083947439530E-004 -4.977318305825621E-004
 -4.977139904546531E-004 -4.977263067391896E-004
 -4.977396724372533E-004 -4.977005606866870E-004
 -4.977376261934717E-004 -4.977025747019560E-004
 -4.977323491238018E-004 -4.977079261944135E-004
 -4.976933751610001E-004 -4.977468476341615E-004
 -4.977139109781494E-004 -4.977262853327479E-004
 -4.977162141489792E-004 -4.977240848511825E-004
 -4.977169346143421E-004 -4.977232927600881E-004
 -4.976853039452820E-004 -4.977549198223517E-004
 -4.977165633853111E-004 -4.977237265516485E-004
 -4.977354703064093E-004 -4.977047371346279E-004
 -4.977140648063198E-004 -4.977261525977543E-004
 -4.977194633339088E-004 -4.977207746431015E-004
 -4.977228823131643E-004 -4.977173101378804E-004
 -4.977338944748902E-004 -4.977063043552518E-004
 -4.977300824304074E-004 -4.977101954391162E-004
 -4.977010145712534E-004 -4.977392029460884E-004
 -4.977139396259104E-004 -4.977262648135946E-004
 -4.977220458370953E-004 -4.977181860448411E-004
 -4.977331786646495E-004 -4.977070228974366E-004
 -4.977058564237258E-004 -4.977343474172383E-004
 -4.977186096615251E-004 -4.977216651116934E-004
 -4.977408059092271E-004 -4.976994119820831E-004
 -4.977254119167952E-004 -4.977148060998338E-004
 -4.977287627588914E-004 -4.977114839196395E-004
 -4.977072911172432E-004 -4.977329151044135E-004
 -4.977325698806989E-004 -4.977076105908303E-004
 -4.977297366271780E-004 -4.977105412436685E-004
 -4.976994068877174E-004 -4.977408302799130E-004
 -4.977116861678470E-004 -4.977284971662554E-004
 -4.977222758475917E-004 -4.977179564511298E-004
 -4.977312638046218E-004 -4.977089625594704E-004
 -4.977070502364606E-004 -4.977331678781367E-004
 -4.977187354874122E-004 -4.977215388785343E-004
 -4.977412970221110E-004 -4.976989053027650E-004
 -4.977295172853672E-004 -4.977107103276413E-004
 -4.977283784302605E-004 -4.977118680936155E-004
 -4.977096744631286E-004 -4.977305208699707E-004
 -4.977120154981119E-004 -4.977282052114097E-004
 -4.977383960585303E-004 -4.977018225017320E-004
 -4.977170331407228E-004 -4.977231699009592E-004
 -4.977442449880104E-004 -4.976959569991716E-004
 -4.976870685328221E-004 -4.977531455267307E-004
 -4.977318552439503E-004 -4.977083530349600E-004
 -4.977167990319205E-004 -4.977234329657590E-004
 -4.977346951661082E-004 -4.977054924309458E-004
 -4.977206707455187E-004 -4.977195503152341E-004
 -4.977388935466797E-004 -4.977013450943315E-004
 -4.977071694401683E-004 -4.977330105607589E-004
 -4.977307526171976E-004 -4.977094764563612E-004
 -4.977570980216988E-004 -4.976831159585603E-004
 -4.977148833505039E-004 -4.977253288559703E-004
 -4.977399978991529E-004 -4.977002203450322E-004
 -4.977186231166799E-004 -4.977216373992122E-004
 -4.977406864950817E-004 -4.976995070388880E-004
 -4.977217769442503E-004 -4.977184796342063E-004
 -4.977108821530424E-004 -4.977293529240148E-004
 -4.977333671313518E-004 -4.977068065528921E-004
 -4.977149412849417E-004 -4.977252717813488E-004
 -4.977417134249377E-004 -4.976985036198617E-004
 -4.977085684482840E-004 -4.977316235290504E-004
 -4.977308325017124E-004 -4.977093714921411E-004
 -4.977552314267303E-004 -4.976849772905200E-004
 -4.977335675814903E-004 -4.977066273591580E-004
 -4.977393351322580E-004 -4.977008730042399E-004
 -4.977298773973578E-004 -4.977103465658831E-004
 -4.976969949920726E-004 -4.977431675368441E-004
 -4.977249244574229E-004 -4.977153318113730E-004
 -4.977195379294466E-004 -4.977207034068817E-004
 -4.977325743555055E-004 -4.977076279020589E-004
 -4.977212652537569E-004 -4.977189751026387E-004
 -4.977229252118927E-004 -4.977172725103222E-004
 -4.977169660419455E-004 -4.977232286188507E-004
 -4.977182324234172E-004 -4.977219684442981E-004
 -4.977208946314550E-004 -4.977192898852126E-004
 -4.977169609556439E-004 -4.977232289485778E-004
 -4.977224839427202E-004 -4.977177323382050E-004
 -4.977284149103097E-004 -4.977117980231494E-004
 -4.977452157938853E-004 -4.976949792606222E-004
 -4.977297646707661E-004 -4.977104570778219E-004
 -4.977258241190873E-004 -4.977144039169034E-004
 -4.977279605310593E-004 -4.977122455296185E-004
 -4.977253257597168E-004 -4.977148957297684E-004
 -4.977313187625987E-004 -4.977088942768916E-004
 -4.977179461054435E-004 -4.977222602467039E-004
 -4.977216563255334E-004 -4.977185529606170E-004
 -4.977267698374260E-004 -4.977134404129267E-004
 -4.977171305487289E-004 -4.977230700257082E-004
 -4.977297819734566E-004 -4.977104327737361E-004
 -4.977207346975635E-004 -4.977194865254490E-004
 -4.977093287561562E-004 -4.977308612363828E-004
 -4.977181027110494E-004 -4.977221168811644E-004
 -4.977373760824521E-004 -4.977028489858567E-004
 -4.977009239893622E-004 -4.977392684021517E-004
 -4.977277993497430E-004 -4.977124138889858E-004
 -4.977399991188351E-004 -4.977002123783228E-004
 -4.977175386182823E-004 -4.977226729394621E-004
 -4.977200969513893E-004 -4.977201161062805E-004
 -4.977301662167435E-004 -4.977100475624561E-004
 -4.977155159232459E-004 -4.977246949706305E-004
 -4.977357214916830E-004 -4.977044897665809E-004
 -4.977306265615867E-004 -4.977095923152145E-004
 -4.977324963276494E-004 -4.977077231610734E-004
 -4.977264543821838E-004 -4.977137475968853E-004
 -4.976813563752063E-004 -4.977588472341796E-004
 -4.977451277761006E-004 -4.976950771056639E-004
 -4.976990358090063E-004 -4.977411665547679E-004
 -4.977236973904269E-004 -4.977165363594207E-004
 -4.977252640086464E-004 -4.977149196055697E-004
 -4.977229250997793E-004 -4.977172925014783E-004
 -4.976939338382845E-004 -4.977462903871002E-004
 -4.977235627683003E-004 -4.977166247279234E-004
 -4.977053657548189E-004 -4.977348490539358E-004
 -4.976838196880273E-004 -4.977563925115853E-004
 -4.977060379448288E-004 -4.977341772739589E-004
 -4.976994293475239E-004 -4.977407884236314E-004
 -4.977265379971935E-004 -4.977137118478416E-004
 -4.977069738486227E-004 -4.977332339905491E-004
 -4.977236383566150E-004 -4.977166117603118E-004
 -4.977326929214637E-004 -4.977075428358958E-004
 -4.977295179856234E-004 -4.977106538765125E-004
 -4.977277765356011E-004 -4.977124453016303E-004
 -4.977027531116481E-004 -4.977374787719672E-004
 -4.977217689868669E-004 -4.977184122574026E-004
 -4.977100939432486E-004 -4.977301276904836E-004
 -4.976963737203995E-004 -4.977438321010919E-004
 -4.976965726320631E-004 -4.977436374564635E-004
 -4.977054855926427E-004 -4.977347230923426E-004
 -4.977001400549452E-004 -4.977400663911621E-004
 -4.977370635923699E-004 -4.977031271274643E-004
 -4.977099084533997E-004 -4.977303410074241E-004
 -4.977248194344637E-004 -4.977154106638192E-004
 -4.977086468854703E-004 -4.977315693688416E-004
 -4.977218762479579E-004 -4.977183624468091E-004
 -4.977171297857301E-004 -4.977230690929040E-004
 -4.977233509252732E-004 -4.977168389265475E-004
 -4.977205630551425E-004 -4.977196399409896E-004
 -4.977201601475387E-004 -4.977200253976894E-004
 -4.977242796837968E-004 -4.977159105322156E-004
 -4.977166937824901E-004 -4.977235241555578E-004
 -4.977139375444951E-004 -4.977262838647026E-004
 -4.977438976131278E-004 -4.976962928328665E-004
 -4.977173291953353E-004 -4.977228914732703E-004
 -4.977114097432363E-004 -4.977288214556374E-004
 -4.977310429474676E-004 -4.977091582904525E-004
 -4.977147756312794E-004 -4.977254469374055E-004
 -4.977117198379642E-004 -4.977284942592023E-004
 -4.977190966911704E-004 -4.977211092673178E-004
 -4.977082992072869E-004 -4.977319077583397E-004
 -4.977059218755600E-004 -4.977342874084271E-004
 -4.977193417379438E-004 -4.977208622026065E-004
 -4.977192402034432E-004 -4.977209721101071E-004
 -4.977183920204426E-004 -4.977218259080491E-004
 -4.977043111172437E-004 -4.977358788300722E-004
 -4.977184677099135E-004 -4.977217517557062E-004
 -4.977051790978307E-004 -4.977350506882537E-004
 -4.977072663244538E-004 -4.977329253484204E-004
 -4.977106886176569E-004 -4.977295244476092E-004
 -4.977104918945897E-004 -4.977297207640423E-004
 -4.977199969564633E-004 -4.977202125562182E-004
 -4.977053182004657E-004 -4.977348960362868E-004
 -4.977030223435489E-004 -4.977371937166206E-004
 -4.977192526913235E-004 -4.977209563633132E-004
 -4.977195531117899E-004 -4.977206571233910E-004
 Gradient of SCF Energy
            1           2           3           4           5           6
    1  -0.0014338  -0.0011028  -0.0002114  -0.0017934   0.0010882   0.0006395
    2  -0.0003683  -0.0000818   0.0003752  -0.0009591  -0.0009763  -0.0000957
    3  -0.0000928  -0.0003319  -0.0002610  -0.0042533  -0.0036298   0.0003986
            7           8           9          10          11          12
    1   0.0004058   0.0002403  -0.0017843   0.0023039  -0.0005354  -0.0014210
    2   0.0001644  -0.0001566   0.0001249   0.0000202   0.0002359  -0.0012776
    3   0.0005244   0.0004659   0.0007682   0.0022876  -0.0005993  -0.0027675
           13          14          15          16          17          18
    1  -0.0001703  -0.0000372  -0.0022635   0.0013062   0.0028629  -0.0014695
    2  -0.0001523   0.0005227   0.0005103   0.0002533  -0.0000040   0.0002556
    3   0.0006466   0.0013910   0.0002835   0.0006034   0.0008831   0.0001697
           19          20          21          22          23          24
    1   0.0016851  -0.0008522  -0.0011026   0.0009644   0.0019845  -0.0004466
    2  -0.0003062   0.0003723   0.0002863   0.0002686  -0.0000803   0.0004014
    3  -0.0022748   0.0015406  -0.0013287   0.0015935  -0.0018389   0.0017829
           25          26          27          28          29          30
    1  -0.0004416   0.0010734   0.0002515   0.0006022   0.0003590  -0.0011355
    2   0.0001245  -0.0005701  -0.0001393   0.0002576   0.0002099  -0.0011843
    3  -0.0002064   0.0003545  -0.0011797   0.0002013   0.0005654   0.0000194
           31          32          33          34          35          36
    1  -0.0021388  -0.0007255  -0.0002924   0.0000903  -0.0004342  -0.0018258
    2  -0.0015008  -0.0002131   0.0003725  -0.0006260   0.0003649   0.0006146
    3  -0.0017864  -0.0003537   0.0001749  -0.0012982  -0.0009438  -0.0015668
           37          38          39          40          41          42
    1   0.0008869  -0.0015698   0.0006360   0.0002464   0.0030243  -0.0009315
    2   0.0001699  -0.0012382   0.0002136  -0.0002943   0.0001555   0.0002100
    3   0.0011920  -0.0026352   0.0002605  -0.0013126   0.0013035   0.0001595
           43          44          45          46          47          48
    1  -0.0020634   0.0017761  -0.0010141   0.0012240   0.0021206  -0.0007062
    2   0.0001209   0.0003048  -0.0003612   0.0005629  -0.0003534   0.0003772
    3   0.0002635   0.0002487   0.0033295  -0.0010286   0.0024854  -0.0011640
           49          50          51          52          53          54
    1  -0.0010122   0.0007987  -0.0006936  -0.0005141   0.0012506  -0.0004716
    2  -0.0003266   0.0005490  -0.0000028   0.0008409   0.0017418  -0.0005437
    3   0.0028831  -0.0012402   0.0002226   0.0004162   0.0012083  -0.0004598
           55          56          57          58          59          60
    1   0.0001072   0.0000236   0.0000995   0.0003581  -0.0018848   0.0035604
    2   0.0008094  -0.0013155  -0.0016200  -0.0006641  -0.0005905   0.0034476
    3   0.0004967  -0.0003805  -0.0000516   0.0001156  -0.0010429   0.0023038
           61          62          63          64          65          66
    1  -0.0013283   0.0001944  -0.0007660   0.0011026  -0.0004170  -0.0001426
    2   0.0003093  -0.0009960  -0.0012321   0.0013046  -0.0004279  -0.0001421
    3  -0.0007331  -0.0010343   0.0005545   0.0007341  -0.0003156   0.0000701
           67          68          69          70          71          72
    1   0.0000253   0.0006677   0.0001004  -0.0002312   0.0000967   0.0002293
    2  -0.0000155  -0.0003933   0.0003105   0.0004851   0.0006287  -0.0005056
    3  -0.0000768   0.0005380   0.0001070   0.0005000  -0.0002842   0.0009791
           73          74          75          76          77          78
    1   0.0009721  -0.0009862   0.0004487  -0.0002734  -0.0001826  -0.0000643
    2  -0.0009832  -0.0027663   0.0009907  -0.0012036   0.0017529   0.0010697
    3   0.0007071  -0.0004978   0.0002227  -0.0002571   0.0000790   0.0000872
           79          80          81          82          83          84
    1  -0.0003683   0.0015843  -0.0026658   0.0013813  -0.0003209   0.0006502
    2   0.0008249   0.0016793  -0.0043948   0.0002288   0.0014227   0.0014399
    3  -0.0002564   0.0011699  -0.0016352   0.0007463   0.0008715  -0.0007452
           85          86          87          88          89          90
    1  -0.0004930   0.0001242   0.0001409   0.0005341  -0.0005822   0.0004471
    2   0.0007009  -0.0000501  -0.0000709  -0.0001409  -0.0009230   0.0007122
    3  -0.0002061   0.0000269   0.0005686  -0.0000572  -0.0001954   0.0002156
           91          92
    1   0.0002035   0.0004283
    2   0.0005541   0.0005943
    3   0.0004873   0.0001143
 Max gradient component =       4.395E-03
 RMS gradient           =       1.131E-03
 Computing fast IEFPCM-SWIG gradient.
 Updating gradient with PCM contributions...
 -- total gradient after adding PCM contribution --
---------------------------------------------------
  Atom         X              Y              Z     
---------------------------------------------------
   1      -0.000965      -0.000388      -0.000451
   2      -0.000748      -0.000060       0.000173
   3       0.000378       0.000360      -0.000363
   4      -0.001713      -0.000940      -0.002817
   5      -0.000204      -0.000920      -0.002953
   6       0.000015      -0.000169       0.000307
   7       0.000222       0.000268      -0.000008
   8       0.000302      -0.000175      -0.000130
   9      -0.001057      -0.000010      -0.000005
  10       0.000655       0.000032       0.000753
  11       0.000261       0.000246       0.000356
  12      -0.001558      -0.001285      -0.002545
  13      -0.000033      -0.000174       0.000425
  14       0.000272       0.000362       0.000373
  15      -0.000131       0.000548       0.000932
  16       0.000086       0.000237       0.000398
  17       0.000791       0.000143       0.000766
  18       0.000163       0.000137       0.000237
  19       0.000400      -0.000021      -0.000294
  20       0.000147       0.000167       0.000183
  21       0.000060       0.000461       0.000393
  22       0.000078       0.000118       0.000219
  23       0.000911       0.000225       0.000307
  24       0.000218       0.000183       0.000222
  25       0.000172       0.000009       0.000122
  26       0.000518      -0.000340       0.000037
  27      -0.000229      -0.000193      -0.000822
  28       0.000193       0.000167      -0.000347
  29      -0.000158       0.000316       0.000708
  30      -0.001199      -0.001049      -0.001439
  31      -0.000856      -0.001398      -0.002417
  32      -0.000105      -0.000190      -0.000289
  33      -0.000109       0.000327       0.000730
  34       0.000000      -0.000677      -0.000690
  35      -0.001128       0.000110      -0.000233
  36      -0.000205       0.000553      -0.000018
  37       0.000104       0.000225       0.000214
  38      -0.001449      -0.001254      -0.002865
  39       0.000519       0.000174       0.000467
  40      -0.000064      -0.000517      -0.000341
  41       0.000853       0.000168       0.000615
  42       0.000337       0.000236       0.000388
  43       0.000005       0.000376       0.000452
  44       0.000129       0.000095       0.000127
  45       0.000304       0.000231       0.001416
  46       0.000197       0.000138       0.000295
  47       0.000983      -0.000064       0.000781
  48       0.000177       0.000130       0.000214
  49       0.000059       0.000270       0.000824
  50       0.000113       0.000124       0.000285
  51      -0.000245      -0.000357       0.000387
  52      -0.000095      -0.000170       0.000574
  53       0.000240       0.000125       0.000456
  54       0.000061       0.000226      -0.000075
  55       0.000231      -0.000021       0.000455
  56      -0.001423      -0.001137      -0.001173
  57       0.000120      -0.000440       0.000090
  58      -0.000063      -0.000140      -0.000070
  59      -0.000337       0.000082      -0.000012
  60       0.001741       0.001695       0.001065
  61       0.000028       0.000185       0.000032
  62       0.000069       0.000014      -0.000038
  63      -0.000074      -0.000056       0.000121
  64       0.000422       0.000446       0.000302
  65       0.000081       0.000060       0.000019
  66       0.000039       0.000085       0.000059
  67       0.000072       0.000209       0.000079
  68       0.000239       0.000207       0.000297
  69       0.000112       0.000104       0.000082
  70       0.000128       0.000234       0.000231
  71       0.000035       0.000320       0.000165
  72      -0.000229      -0.000509       0.000688
  73       0.000201      -0.000082       0.000316
  74      -0.000248      -0.000879      -0.000040
  75       0.000070       0.000110      -0.000012
  76      -0.000538      -0.000417      -0.000385
  77       0.001248       0.002006       0.000880
  78       0.000065      -0.000097       0.000144
  79       0.000132       0.000469       0.000021
  80       0.000339       0.000616       0.000442
  81      -0.001221      -0.002121      -0.000819
  82       0.000044      -0.000060       0.000002
  83       0.000003       0.000260       0.000099
  84       0.000178       0.000278      -0.000078
  85       0.000008       0.000225       0.000079
  86       0.000047       0.000174      -0.000011
  87       0.000121       0.000152       0.000162
  88       0.000198       0.000064       0.000154
  89      -0.000018       0.000072       0.000181
  90       0.000083       0.000137       0.000001
  91       0.000197       0.000296       0.000213
  92       0.000228       0.000323       0.000224
---------------------------------------------------
 Number of fixed atoms: 0
 Gradient time:  CPU 930.17 s  wall 382.03 s
 Geometry Optimization Parameters
   NAtoms,    NIC,     NZ,  NCons,   NDum,   NFix, NCnnct, MaxDiis
       92     720      92       0       0       0       0       0


** GEOMETRY OPTIMIZATION IN DELOCALIZED INTERNAL COORDINATES **
   Searching for a Minimum

   Optimization Cycle:   1

                       Coordinates (Angstroms)
     ATOM                X               Y               Z
      1  C         0.0000000000    0.0000000000    0.0000000000
      2  C         0.0000000000    0.0000000000    1.3970920000
      3  H         0.9433709246    0.0000000000    1.9325653342
      4  C        -1.1981251426    0.0395229771    2.0849095805
      5  C        -2.4226306496    0.0531470899    1.3811803287
      6  C        -2.4312628164    0.0645579141   -0.0009706144
      7  H        -3.3687772008    0.1244804561   -0.5428543733
      8  C        -1.2245748378    0.0500427236   -0.7051824898
      9  C        -3.5078517806    0.1505703623    2.3595108367
     10  C        -4.8727938557    0.2449176319    2.2937367298
     11  H        -5.4026711956    0.2254453929    1.3497759379
     12  C        -2.8926425366    0.2072508379    3.6232956289
     13  C        -3.5785667507    0.3715626871    4.8221788756
     14  C        -1.4909094157    0.1497721242    3.5157267572
     15  C        -0.7425703494    0.2616920842    4.6582682961
     16  H         0.3399797589    0.2430727580    4.6381562063
     17  C        -5.6007056390    0.3896720080    3.4986024678
     18  H        -6.6788844983    0.4654444494    3.4449899672
     19  C        -4.9882276473    0.4540077496    4.7277008903
     20  H        -5.5849839563    0.5817348218    5.6226859546
     21  C        -1.4127103466    0.4220986359    5.8943598038
     22  H        -0.8200248533    0.5140177426    6.7952569150
     23  C        -2.7832081789    0.4751592698    5.9885780081
     24  H        -3.2527634138    0.6098405387    6.9554345466
     25  B         1.3454717354    0.0279796007   -0.7760263189
     26  B        -1.2274918054    0.2088446059   -2.2519643460
     27  C         0.1130404394    0.1495114022   -3.0390770850
     28  C         0.1209245427    0.2761855340   -4.4308891871
     29  H        -0.8200643762    0.3652314160   -4.9628404855
     30  C         1.3234859187    0.3425676327   -5.1128515835
     31  C         2.5422877475    0.2927807108   -4.4015789225
     32  C         2.5450843655    0.1465669057   -3.0268564460
     33  H         3.4796176518    0.1301191490   -2.4764287734
     34  C         1.3367354031    0.0746679798   -2.3314383427
     35  C         3.6334620489    0.5308459523   -5.3435581384
     36  C         4.9892317088    0.6887496463   -5.2324349855
     37  H         5.5012129659    0.5872948823   -4.2834566239
     38  C         3.0333575005    0.7030273219   -6.6039681965
     39  C         3.7305320891    1.0346526280   -7.7597987945
     40  C         1.6326785015    0.5880670822   -6.5233346126
     41  C         0.8970546273    0.7855249084   -7.6614324568
     42  H        -0.1842363320    0.7285924319   -7.6606754855
     43  C         5.7274640999    1.0136403459   -6.3945322638
     44  H         6.7984158162    1.1428754208   -6.3078159382
     45  C         5.1315879678    1.1840415872   -7.6219752578
     46  H         5.7357299226    1.4465147923   -8.4817665630
     47  C         1.5799119187    1.0944280227   -8.8621388035
     48  H         0.9972591873    1.2522840615   -9.7602445576
     49  C         2.9475566640    1.2233730876   -8.9239087837
     50  H         3.4231371428    1.4822564617   -9.8619026009
     51  C        -2.5728581492    0.5450579313   -2.9849797973
     52  C        -3.3678187502   -0.4549937685   -3.5413501445
     53  C        -4.5660813284   -0.1377545762   -4.1796208074
     54  H        -5.1591556223   -0.9389744822   -4.6015712612
     55  C        -4.9776058773    1.1853326017   -4.2680054546
     56  O        -6.1143395627    1.5945828437   -4.8705287923
     57  C        -4.1896785383    2.1877855871   -3.7092983760
     58  H        -4.5218974524    3.2166491458   -3.7836931418
     59  C        -3.0015595573    1.8793467096   -3.0705777302
     60  C        -6.9473416306    0.6314045534   -5.4556913298
     61  H        -7.7925144335    1.1682646293   -5.8817499050
     62  H        -6.4464701498    0.0802570427   -6.2583684961
     63  H        -7.3279896530   -0.0899388910   -4.7249536922
     64  C        -2.9281650631   -1.8894095258   -3.4450775772
     65  H        -3.6425355219   -2.5684456258   -3.9097727018
     66  H        -1.9633250159   -2.0446173339   -3.9330194738
     67  H        -2.8117774438   -2.1998800591   -2.4041990383
     68  C        -2.1747587157    2.9764975062   -2.4584105223
     69  H        -2.5867834533    3.9612759903   -2.6764622218
     70  H        -1.1473091241    2.9618083507   -2.8288578115
     71  H        -2.1242096564    2.8749933654   -1.3719942508
     72  C         2.7028708746    0.0665656048    0.0114957983
     73  C         3.2737928651    1.2855181387    0.3799101172
     74  C         4.4792274769    1.3195426873    1.0781903294
     75  H         4.8957808312    2.2825555105    1.3453542018
     76  C         5.1245138321    0.1376668551    1.4171044808
     77  O         6.2947935590    0.0746774829    2.0873437723
     78  C         4.5563007496   -1.0810674214    1.0572299022
     79  H         5.0672624832   -1.9977576420    1.3263071087
     80  C         3.3598172690   -1.1210426816    0.3617385108
     81  C         6.9274019868    1.2735821132    2.4445407072
     82  H         7.8489713262    0.9997174145    2.9541357416
     83  H         6.3213107822    1.8784756432    3.1272060294
     84  H         7.1819035408    1.8861575496    1.5731657068
     85  C         2.7515173206   -2.4406815578   -0.0213867654
     86  H         3.3831862916   -3.2796878929    0.2678480499
     87  H         2.5910213313   -2.5053192365   -1.0998940341
     88  H         1.7785447372   -2.5808001158    0.4551093677
     89  C         2.5852146944    2.5759785994    0.0286351277
     90  H         3.1627111445    3.4440272994    0.3460865496
     91  H         2.4269833359    2.6661888068   -1.0482411182
     92  H         1.6035994476    2.6460256826    0.5028366071
   Point Group: c1    Number of degrees of freedom:   270


   Energy is  -2123.809631783


 Attempting to Generate Delocalized Internal Coordinates

270 Hessian modes will be used to form the next step
  Hessian Eigenvalues:
     0.008614    0.008646    0.008733    0.008815    0.009525    0.009687
     0.011017    0.011195    0.011578    0.015402    0.015456    0.015662
     0.017184    0.017190    0.017218    0.017672    0.017709    0.018085
     0.018135    0.018350    0.018434    0.018614    0.018648    0.018698
     0.019251    0.019439    0.019811    0.020511    0.020608    0.020859
     0.020992    0.021132    0.021182    0.021456    0.021509    0.021638
     0.021705    0.021791    0.021835    0.022248    0.022250    0.022329
     0.022339    0.022538    0.022542    0.022689    0.022744    0.022796
     0.022820    0.023193    0.023194    0.023235    0.023247    0.023316
     0.023327    0.023517    0.023517    0.023596    0.023613    0.023667
     0.023671    0.023691    0.023783    0.023801    0.023813    0.023818
     0.023834    0.023852    0.023880    0.023890    0.023913    0.024032
     0.024084    0.024397    0.024423    0.024875    0.024909    0.071235
     0.071352    0.071469    0.071503    0.072063    0.072222    0.072384
     0.072655    0.099072    0.099151    0.105573    0.105639    0.159822
     0.159827    0.159854    0.159910    0.159962    0.159974    0.159976
     0.159978    0.159982    0.159983    0.159984    0.159986    0.159987
     0.159990    0.159992    0.159996    0.159998    0.159999    0.160000
     0.160000    0.160000    0.160000    0.160000    0.160000    0.160000
     0.160000    0.160000    0.160000    0.160000    0.160000    0.160000
     0.160000    0.160000    0.160000    0.160000    0.160000    0.160000
     0.160000    0.220590    0.220598    0.222105    0.222128    0.231239
     0.231553    0.233417    0.233612    0.234738    0.234749    0.234904
     0.234908    0.236871    0.237085    0.238311    0.239034    0.246107
     0.246843    0.247209    0.247539    0.248021    0.248477    0.248901
     0.248982    0.248993    0.249239    0.249359    0.249599    0.249782
     0.249968    0.249987    0.249993    0.249997    0.249998    0.249998
     0.249999    0.249999    0.250000    0.250000    0.250000    0.250000
     0.260356    0.261320    0.267927    0.270327    0.271858    0.272898
     0.319336    0.319588    0.320266    0.320904    0.338203    0.338795
     0.340253    0.341587    0.342262    0.342283    0.342318    0.342462
     0.345353    0.345357    0.345365    0.345461    0.345484    0.345492
     0.345496    0.345630    0.348293    0.348521    0.348657    0.348926
     0.350278    0.350322    0.354266    0.354313    0.354440    0.354549
     0.355477    0.355839    0.356044    0.356045    0.356215    0.356265
     0.356294    0.356466    0.356594    0.356674    0.356716    0.356980
     0.357197    0.357297    0.357338    0.357387    0.367223    0.368970
     0.379084    0.392224    0.400662    0.404544    0.409047    0.409341
     0.415490    0.415529    0.418466    0.423089    0.424845    0.425809
     0.427439    0.427880    0.428364    0.428999    0.433095    0.433389
     0.434313    0.435631    0.453081    0.453170    0.453836    0.454091
     0.456940    0.457364    0.459505    0.460758    0.466890    0.468431
     0.471244    0.471519    0.475709    0.477118    0.479010    0.480031
     0.481071    0.482724    0.484796    0.484954    0.486995    0.487317
     0.500418    0.501371    0.502005    0.502666    0.550022    0.550069

 Minimum Search - Taking Simple RFO Step
 Searching for Lamda that Minimizes Along All modes
 Value Taken    Lamda =  -0.00561481
 Calculated Step too Large.  Step scaled by  0.715976
 Step Taken.  Stepsize is  0.300000

                             Maximum     Tolerance    Cnvgd?
         Gradient           0.013446      0.000300      NO
         Displacement       0.169237      0.001200      NO
         Energy change     *********      0.000001      NO


 New Cartesian Coordinates Obtained by Inverse Iteration

 Displacement from previous Coordinates is:  3.336978
 Adding empirical dispersion correction 
 ----------------------------------------------------------------
 Doing -D3(BJ) with
 s6 =   1.00000
 s8 =   0.00000
 a1 =   0.48600
 a2 =   4.50000
 -D3 energy including 3body term =     -0.0835861944 hartrees
 ----------------------------------------------------------------
 Adding gCP correction 
 ----------------------------------------------------------------
 gCP energy =      0.1315153897 hartrees
 ----------------------------------------------------------------
             Standard Nuclear Orientation (Angstroms)
    I     Atom           X                Y                Z
 ----------------------------------------------------------------
    1      C       0.0197894738     0.2066177639     0.0393795747
    2      C       0.0158798906     0.1509217225     1.4385473716
    3      H       0.9565104269     0.1211039516     1.9776679405
    4      C      -1.1860346612     0.1416260237     2.1255360011
    5      C      -2.4060844981     0.1753332684     1.4145020916
    6      C      -2.4121122371     0.2436801910     0.0345823126
    7      H      -3.3502761409     0.2970617831    -0.5072386177
    8      C      -1.2058322723     0.2648128625    -0.6670359433
    9      C      -3.5029283995     0.1956934955     2.3795293063
   10      C      -4.8689407683     0.2625641155     2.2940279447
   11      H      -5.3827850519     0.2901989785     1.3409077087
   12      C      -2.9045572984     0.1768112528     3.6515099383
   13      C      -3.6144141060     0.2347567930     4.8452702382
   14      C      -1.5000357561     0.1458152344     3.5571300715
   15      C      -0.7711742957     0.1722251257     4.7158066420
   16      H       0.3115677446     0.1613119544     4.7108505440
   17      C      -5.6193243305     0.3062283394     3.4923165631
   18      H      -6.6983628700     0.3573891135     3.4249669769
   19      C      -5.0254337600     0.2950619863     4.7328788550
   20      H      -5.6391990924     0.3387065610     5.6242889499
   21      C      -1.4646153627     0.2228323153     5.9492670773
   22      H      -0.8870279071     0.2436651237     6.8640062367
   23      C      -2.8377802979     0.2533608286     6.0273868846
   24      H      -3.3239138949     0.2982626394     6.9942403768
   25      B       1.3654716363     0.2380736187    -0.7431233905
   26      B      -1.2131385398     0.4236027899    -2.2148628869
   27      C       0.1273149856     0.3752176468    -2.9973357372
   28      C       0.1235428562     0.4655599683    -4.3892567796
   29      H      -0.8204662721     0.5322286797    -4.9195191782
   30      C       1.3182731228     0.4865881803    -5.0827573779
   31      C       2.5474958693     0.4378514427    -4.3888046337
   32      C       2.5612370083     0.3411400716    -3.0078723461
   33      H       3.5020998522     0.3013014328    -2.4701262861
   34      C       1.3556543169     0.3033280670    -2.2983623363
   35      C       3.6259964120     0.5697242064    -5.3721898398
   36      C       4.9919393339     0.6536459349    -5.3154183392
   37      H       5.5309755717     0.5806884957    -4.3791319939
   38      C       2.9997590747     0.6862572614    -6.6281438408
   39      C       3.6728977821     0.8875272475    -7.8284217144
   40      C       1.5988748663     0.6380672931    -6.5097757684
   41      C       0.8373407647     0.7764790973    -7.6412320380
   42      H      -0.2451360701     0.7549044681    -7.6100111281
   43      C       5.7068500370     0.8480628755    -6.5223065427
   44      H       6.7859968818     0.9136859649    -6.4778258189
   45      C       5.0829703679     0.9634106335    -7.7430667825
   46      H       5.6721457811     1.1188655302    -8.6386275196
   47      C       1.4951870393     0.9613573758    -8.8803706515
   48      H       0.8937935936     1.0680546504    -9.7739542727
   49      C       2.8651287523     1.0205230355    -8.9851860655
   50      H       3.3246150438     1.1748854462    -9.9539274716
   51      C      -2.5669446091     0.6662113142    -2.9757450972
   52      C      -3.2944944526    -0.3918198695    -3.5208558541
   53      C      -4.4943765916    -0.1605210629    -4.1924679488
   54      H      -5.0330238565    -1.0062563304    -4.6007462926
   55      C      -4.9769098542     1.1338246721    -4.3291527009
   56      O      -6.1230094779     1.4585167663    -4.9646950996
   57      C      -4.2556487212     2.1946887870    -3.7871392385
   58      H      -4.6400016685     3.2016475064    -3.9013421253
   59      C      -3.0652932935     1.9712104325    -3.1164375497
   60      C      -6.8893708994     0.4307189086    -5.5362605769
   61      H      -7.7557038919     0.9042902807    -5.9935891238
   62      H      -6.3422475357    -0.1137970322    -6.3127655304
   63      H      -7.2419130910    -0.2899045609    -4.7911286593
   64      C      -2.7828693274    -1.7990221385    -3.3797230316
   65      H      -3.4514428986    -2.5249023623    -3.8419910861
   66      H      -1.8013860626    -1.9157087496    -3.8446725262
   67      H      -2.6731380772    -2.0795607067    -2.3297031652
   68      C      -2.3080464098     3.1303624371    -2.5326071970
   69      H      -2.7682288370     4.0835709289    -2.7907731625
   70      H      -1.2761306448     3.1561935910    -2.8896870849
   71      H      -2.2685332118     3.0673822141    -1.4429692425
   72      C       2.7254907129     0.1887840692     0.0336471371
   73      C       3.3529790248     1.3656336401     0.4408996188
   74      C       4.5569818878     1.3185167501     1.1419090694
   75      H       5.0180206244     2.2502904373     1.4439452089
   76      C       5.1428017790     0.0943410503     1.4404278690
   77      O       6.3039719918    -0.0517577256     2.1132289739
   78      C       4.5189851694    -1.0830024052     1.0347377232
   79      H       4.9834489837    -2.0331044042     1.2717109148
   80      C       3.3235765378    -1.0415336329     0.3379524140
   81      C       6.9895390245     1.1006157152     2.5276974896
   82      H       7.8943745255     0.7625007856     3.0285199579
   83      H       6.4065555285     1.7005058409     3.2341289893
   84      H       7.2763345124     1.7387686242     1.6855874350
   85      C       2.6514147927    -2.3156875433    -0.0932150666
   86      H       3.2389274036    -3.1955192175     0.1667397880
   87      H       2.4910229952    -2.3343839058    -1.1737172287
   88      H       1.6705368099    -2.4241423702     0.3755838226
   89      C       2.7220306959     2.6943275906     0.1279173446
   90      H       3.3333908169     3.5274610724     0.4736752276
   91      H       2.5719000660     2.8221067131    -0.9465383422
   92      H       1.7411591776     2.7892797112     0.5995353411
 ----------------------------------------------------------------
 Nuclear Repulsion Energy =  6510.2593912675 hartrees
 There are      182 alpha and      182 beta electrons
 Discretize the solute cavity surface with Lebedev spheres
	Using 302 Lebedev grid points for each H atom
	Using 302 Lebedev grid points for other atoms
	Atomic van der Waals radii will be scaled by 1.20
 Remove points where switching function is < 1.0e-08
 Keep 9851 surface tesserae and discard 17933 interior tesserae
 Molecular Surface Area = 734.321 Angst**2
 Applying Cartesian multipole field
    Component          Value
    ---------          -----
     (2,0,0)        1.00000E-12
     (0,2,0)        2.00000E-11
     (0,0,2)       -3.00000E-12
 Nucleus-field energy     =    -0.0000000216 hartrees
 Requested basis set is def2-mSVP
 There are 454 shells and 886 basis functions
 A cutoff of  1.0D-12 yielded  40033 shell pairs
 There are    159441 function pairs (    175974 Cartesian)
 Smallest overlap matrix eigenvalue = 1.98E-04
 Guess MOs from SCF MO coefficient file
 Reading MOs from coefficient file
 Reading MOs from coefficient file
 A restricted hybrid HF-DFT SCF calculation will be
 performed using Pulay DIIS extrapolation
 Polarizable Continuum solvation model will be applied
 Exchange:     0.4200 Hartree-Fock + 0.5800 PBEh-3c
 Correlation:  1.0000 PBEh-3c
 Using SG-1 standard quadrature grid
 Dispersion:   Grimme D3
 SCF converges when DIIS error is below 1.0E-09
 Geometry optimization detected.  Setting ReadMinima to 0
 Setting SaveMinima to 0
 using 4 threads for integral computing
 -------------------------------------------------------
 OpenMP Integral computing Module                
 Release: version 1.0, May 2013, Q-Chem Inc. Pittsburgh 
 -------------------------------------------------------
 ---------------------------------------
  Cycle       Energy         DIIS Error
 ---------------------------------------
    1   -2123.6722763972      1.35E-03
 Using non-symmetric K matrix
    2   -2123.8077785597      1.39E-04
    3   -2123.8100496782      1.21E-04
    4   -2123.8114270076      3.64E-05
    5   -2123.8115602868      1.47E-05
    6   -2123.8115805496      6.60E-06
    7   -2123.8115852220      1.80E-06
    8   -2123.8115855645      5.93E-07
    9   -2123.8115856031      2.04E-07
   10   -2123.8115856075      5.40E-08
   11   -2123.8115856074      1.98E-08
   12   -2123.8115856080      7.46E-09
   13   -2123.8115856078      3.21E-09
   14   -2123.8115856070      1.11E-09
   15   -2123.8115856066      4.37E-10 Convergence criterion met
 ---------------------------------------

************** Final PCM Free Energy Summary **************
 G_electrostatic  =      -0.01180630 hartree =      -7.40856300 kcal/mol
 G_cavitation     =       0.00000000 hartree =       0.00000000 kcal/mol
 G_dispersion     =       0.00000000 hartree =       0.00000000 kcal/mol
 G_repulsion      =       0.00000000 hartree =       0.00000000 kcal/mol
 --------------------------------------------------
 Non-electrostatic Free Energy =       0.00000000 hartree =       0.00000000 kcal/mol
 Total                         =      -0.01180630 hartree =      -7.40856300 kcal/mol
 --------------------------------------------------
 SCF Energy (H0 + V/2)                       =   -2123.81158561 
 Solute Internal Energy (H0)                 =   -2123.79977931 
 Total Free Energy (H0 + V/2 + non-elec)     =   -2123.81158561 hartree
                                             = -1332711.88458764 kcal/mol
***********************************************************

 SCF time:  CPU 4069.00 s  wall 1789.93 s
 SCF   energy in the final basis set = -2123.81158561
 Total energy in the final basis set = -2123.81158561
 
 --------------------------------------------------------------
 
                    Orbital Energies (a.u.)
 --------------------------------------------------------------
 
 Alpha MOs
 -- Occupied --
-19.524 -19.524 -10.501 -10.501 -10.485 -10.485 -10.463 -10.463
-10.462 -10.462 -10.462 -10.462 -10.462 -10.462 -10.461 -10.461
-10.460 -10.460 -10.460 -10.460 -10.460 -10.459 -10.459 -10.458
-10.457 -10.457 -10.457 -10.457 -10.452 -10.452 -10.452 -10.452
-10.451 -10.451 -10.451 -10.450 -10.445 -10.445 -10.433 -10.432
-10.432 -10.432 -10.431 -10.431 -10.428 -10.428 -10.426 -10.426
-10.424 -10.424 -10.414 -10.412  -6.946  -6.946  -1.181  -1.181
 -1.015  -1.014  -0.961  -0.958  -0.953  -0.952  -0.931  -0.931
 -0.907  -0.899  -0.870  -0.870  -0.859  -0.852  -0.852  -0.848
 -0.845  -0.845  -0.820  -0.812  -0.810  -0.803  -0.788  -0.788
 -0.765  -0.764  -0.755  -0.754  -0.733  -0.726  -0.724  -0.718
 -0.687  -0.681  -0.677  -0.663  -0.660  -0.649  -0.646  -0.645
 -0.642  -0.642  -0.593  -0.591  -0.590  -0.586  -0.583  -0.582
 -0.581  -0.573  -0.572  -0.558  -0.558  -0.542  -0.541  -0.535
 -0.532  -0.532  -0.526  -0.521  -0.511  -0.506  -0.500  -0.495
 -0.493  -0.489  -0.488  -0.487  -0.484  -0.483  -0.483  -0.480
 -0.477  -0.475  -0.472  -0.471  -0.469  -0.465  -0.464  -0.463
 -0.462  -0.456  -0.456  -0.452  -0.443  -0.440  -0.440  -0.438
 -0.433  -0.424  -0.424  -0.422  -0.419  -0.417  -0.417  -0.410
 -0.399  -0.399  -0.396  -0.393  -0.393  -0.392  -0.390  -0.388
 -0.377  -0.375  -0.373  -0.365  -0.362  -0.357  -0.354  -0.350
 -0.339  -0.337  -0.317  -0.312  -0.294  -0.293  -0.279  -0.275
 -0.275  -0.261  -0.255  -0.254  -0.249  -0.247
 -- Virtual --
 -0.090  -0.057  -0.035  -0.028  -0.003   0.007   0.018   0.030
  0.031   0.036   0.037   0.047   0.071   0.084   0.088   0.093
  0.125   0.130   0.144   0.149   0.149   0.153   0.159   0.161
  0.162   0.164   0.166   0.169   0.172   0.175   0.185   0.185
  0.189   0.191   0.192   0.194   0.194   0.197   0.200   0.201
  0.207   0.209   0.209   0.211   0.218   0.218   0.220   0.222
  0.223   0.225   0.227   0.228   0.230   0.231   0.233   0.234
  0.235   0.242   0.243   0.249   0.250   0.253   0.254   0.256
  0.261   0.262   0.265   0.270   0.271   0.279   0.279   0.285
  0.288   0.289   0.292   0.300   0.307   0.310   0.312   0.315
  0.316   0.318   0.325   0.326   0.331   0.333   0.335   0.339
  0.341   0.345   0.352   0.353   0.365   0.378   0.381   0.391
  0.392   0.405   0.406   0.408   0.413   0.419   0.425   0.431
  0.440   0.443   0.447   0.455   0.456   0.462   0.462   0.469
  0.475   0.487   0.489   0.491   0.495   0.498   0.502   0.504
  0.506   0.509   0.515   0.520   0.528   0.528   0.530   0.530
  0.531   0.532   0.537   0.539   0.540   0.542   0.544   0.546
  0.548   0.551   0.555   0.559   0.561   0.562   0.564   0.565
  0.569   0.571   0.571   0.575   0.576   0.580   0.581   0.583
  0.586   0.589   0.592   0.592   0.598   0.598   0.599   0.602
  0.602   0.604   0.606   0.608   0.612   0.617   0.618   0.622
  0.623   0.623   0.626   0.627   0.632   0.632   0.634   0.635
  0.641   0.646   0.650   0.651   0.656   0.657   0.660   0.662
  0.667   0.673   0.676   0.679   0.683   0.687   0.689   0.692
  0.697   0.701   0.701   0.703   0.705   0.707   0.712   0.715
  0.725   0.727   0.729   0.731   0.733   0.735   0.735   0.750
  0.754   0.756   0.757   0.759   0.761   0.769   0.775   0.776
  0.778   0.781   0.784   0.787   0.793   0.796   0.801   0.802
  0.813   0.824   0.829   0.833   0.834   0.839   0.842   0.851
  0.855   0.863   0.868   0.879   0.880   0.885   0.889   0.910
  0.914   0.916   0.919   0.922   0.925   0.944   0.949   0.951
  0.952   0.954   0.958   0.964   0.967   0.974   0.976   0.980
  0.982   0.985   0.990   0.991   0.993   0.993   0.999   0.999
  1.000   1.001   1.003   1.007   1.008   1.018   1.022   1.023
  1.029   1.032   1.032   1.036   1.037   1.041   1.043   1.044
  1.057   1.059   1.061   1.068   1.073   1.074   1.076   1.079
  1.081   1.083   1.084   1.087   1.088   1.092   1.095   1.097
  1.104   1.107   1.112   1.126   1.127   1.128   1.132   1.139
  1.140   1.146   1.151   1.154   1.156   1.157   1.160   1.162
  1.174   1.175   1.178   1.181   1.191   1.195   1.204   1.205
  1.208   1.214   1.221   1.243   1.248   1.249   1.255   1.257
  1.264   1.266   1.273   1.279   1.282   1.283   1.287   1.297
  1.301   1.301   1.306   1.308   1.309   1.310   1.314   1.317
  1.325   1.332   1.348   1.349   1.352   1.356   1.358   1.372
  1.378   1.382   1.387   1.387   1.391   1.403   1.405   1.409
  1.414   1.420   1.423   1.433   1.434   1.441   1.443   1.445
  1.446   1.448   1.457   1.471   1.472   1.480   1.484   1.510
  1.511   1.514   1.515   1.516   1.519   1.520   1.521   1.521
  1.523   1.527   1.531   1.533   1.535   1.537   1.545   1.547
  1.550   1.555   1.563   1.565   1.567   1.573   1.575   1.578
  1.587   1.591   1.595   1.595   1.598   1.604   1.615   1.617
  1.639   1.645   1.650   1.653   1.659   1.674   1.687   1.693
  1.701   1.721   1.744   1.752   1.758   1.760   1.769   1.787
  1.799   1.809   1.810   1.811   1.812   1.816   1.820   1.821
  1.834   1.847   1.852   1.856   1.866   1.880   1.897   1.906
  1.907   1.920   1.921   1.922   1.928   1.932   1.935   1.938
  1.947   1.949   1.951   1.954   1.955   1.957   1.957   1.978
  1.986   1.986   1.986   1.990   1.993   1.995   2.000   2.002
  2.022   2.025   2.027   2.037   2.038   2.048   2.052   2.065
  2.067   2.071   2.075   2.076   2.088   2.088   2.101   2.113
  2.114   2.114   2.127   2.134   2.140   2.142   2.146   2.155
  2.156   2.159   2.160   2.161   2.167   2.181   2.190   2.194
  2.200   2.205   2.206   2.219   2.221   2.223   2.232   2.234
  2.235   2.246   2.247   2.255   2.263   2.268   2.270   2.272
  2.277   2.279   2.281   2.284   2.286   2.291   2.292   2.302
  2.316   2.321   2.323   2.324   2.330   2.330   2.333   2.341
  2.347   2.350   2.352   2.353   2.360   2.362   2.363   2.365
  2.386   2.389   2.394   2.397   2.405   2.408   2.412   2.415
  2.418   2.418   2.424   2.426   2.428   2.436   2.440   2.444
[...]
H  10 1.083244 9 121.973892 4 1.004280 0
C  9 1.406195 4 105.983748 2 -178.483944 0
C  12 1.391238 9 123.779852 4 178.907334 0
C  12 1.408808 9 111.481376 4 -0.179386 0
C  14 1.370045 12 118.085342 9 179.253376 0
H  15 1.082790 14 121.929792 12 -179.658237 0
C  13 1.414961 12 115.960249 9 -179.239531 0
H  17 1.083226 13 120.104194 12 179.941074 0
C  17 1.375479 13 119.935835 12 0.141086 0
H  19 1.082125 17 118.941456 13 179.844178 0
C  10 1.414991 9 118.474602 4 -178.807901 0
H  21 1.082382 10 118.583145 9 179.953429 0
C  21 1.375525 10 122.294984 9 0.141339 0
H  23 1.083263 21 119.828779 10 179.732841 0
B  1 1.553558 2 119.623279 3 0.919980 0
C  25 1.554556 1 119.301637 2 -179.206000 0
C  26 1.394512 25 119.621932 1 178.711619 0
H  27 1.084873 26 119.797927 25 -0.389282 0
C  27 1.381675 26 119.869398 25 179.222398 0
C  29 1.412071 27 120.832690 26 -0.375547 0
C  30 1.385983 29 119.651683 27 0.413169 0
H  31 1.084641 30 120.383657 29 -179.756155 0
C  31 1.400264 30 120.020022 29 -0.061496 0
C  29 1.458377 27 130.478410 26 -179.425049 0
C  34 1.370302 29 134.802619 27 -0.739832 0
H  35 1.083242 34 121.938125 29 -0.421400 0
C  34 1.405026 29 106.140632 27 178.886420 0
C  37 1.389824 34 123.797584 29 -179.410961 0
C  37 1.408687 34 111.279451 29 0.140034 0
C  39 1.369183 37 118.026071 34 -179.540665 0
H  40 1.082728 39 121.906190 37 179.783658 0
C  35 1.414260 34 118.390359 29 179.515739 0
H  42 1.082362 35 118.590308 34 179.990930 0
C  42 1.375833 35 122.262062 34 -0.117387 0
H  44 1.083143 42 119.769808 35 -179.841729 0
C  38 1.414766 37 115.825528 34 179.549483 0
H  46 1.083043 38 120.109495 37 -179.964632 0
C  46 1.375697 38 119.948723 37 -0.069666 0
H  48 1.082032 46 118.915586 38 -179.889209 0
B  8 1.556666 6 120.332425 5 178.825916 0
C  50 1.565403 8 119.646219 6 -0.936369 0
C  51 1.393827 50 120.659968 8 90.611295 0
C  52 1.393934 51 120.500852 50 -179.309098 0
H  53 1.082598 52 118.655583 51 -179.930636 0
C  53 1.389437 52 120.072757 51 0.055596 0
O  55 1.349988 53 124.307219 52 -179.926018 0
C  55 1.393198 53 119.582451 52 0.037056 0
H  57 1.083891 55 119.039820 53 -179.980290 0
C  57 1.384970 55 120.588933 53 -0.061651 0
C  56 1.405020 55 118.432370 53 0.808249 0
H  60 1.087936 56 106.627899 55 179.668032 0
H  60 1.094467 56 112.268508 55 -61.596613 0
H  60 1.094595 56 112.227910 55 60.960255 0
C  52 1.503855 51 119.532583 50 0.304015 0
H  64 1.089601 52 112.034381 51 178.778428 0
H  64 1.092512 52 111.438976 51 58.307080 0
H  64 1.092580 52 111.264367 51 -60.860331 0
C  59 1.503856 57 120.264760 55 179.714863 0
H  68 1.089495 59 111.931833 57 2.102134 0
H  68 1.092577 59 111.408914 57 122.529615 0
H  68 1.092627 59 111.294935 57 -118.265474 0
C  25 1.572369 1 119.742562 2 2.112003 0
C  72 1.396126 25 120.131426 1 87.986639 0
C  73 1.393689 72 120.698881 25 -178.581939 0
H  74 1.082701 73 118.566136 72 179.879718 0
C  74 1.388513 73 120.220571 72 -0.021098 0
O  76 1.349849 74 124.411375 73 -179.900299 0
C  76 1.392568 74 119.391988 73 0.082103 0
H  78 1.083828 76 119.005451 74 179.941591 0
C  78 1.385207 76 120.631577 74 -0.042305 0
C  77 1.405970 76 118.510800 74 -0.026309 0
H  81 1.087943 77 106.610166 76 179.566620 0
H  81 1.094416 77 112.252503 76 60.838370 0
H  81 1.094563 77 112.269282 76 -61.740342 0
C  80 1.502525 78 119.953251 76 179.626672 0
H  85 1.089426 80 111.918078 78 1.074321 0
H  85 1.092146 80 111.311170 78 121.512616 0
H  85 1.092453 80 111.247242 78 -119.234155 0
C  73 1.503848 72 119.975057 25 0.939369 0
H  89 1.089838 73 111.905462 72 177.516066 0
H  89 1.092163 73 111.476026 72 57.144102 0
H  89 1.092499 73 111.319919 72 -62.255363 0
$end

 
 --------------------------------------------------------------
 
                    Orbital Energies (a.u.)
 --------------------------------------------------------------
 
 Alpha MOs
 -- Occupied --
-19.524 -19.524 -10.501 -10.500 -10.485 -10.485 -10.463 -10.463
-10.463 -10.463 -10.463 -10.462 -10.462 -10.462 -10.460 -10.460
-10.460 -10.460 -10.460 -10.460 -10.460 -10.460 -10.458 -10.458
-10.457 -10.457 -10.457 -10.457 -10.453 -10.452 -10.452 -10.451
-10.451 -10.451 -10.450 -10.450 -10.445 -10.445 -10.432 -10.432
-10.432 -10.432 -10.431 -10.430 -10.428 -10.428 -10.425 -10.425
-10.424 -10.424 -10.414 -10.412  -6.946  -6.946  -1.180  -1.180
 -1.015  -1.014  -0.961  -0.958  -0.952  -0.951  -0.931  -0.931
 -0.907  -0.899  -0.870  -0.870  -0.859  -0.852  -0.852  -0.847
 -0.845  -0.844  -0.820  -0.812  -0.810  -0.803  -0.788  -0.788
 -0.765  -0.764  -0.755  -0.754  -0.733  -0.726  -0.724  -0.718
 -0.687  -0.681  -0.677  -0.663  -0.660  -0.648  -0.645  -0.645
 -0.642  -0.642  -0.593  -0.591  -0.590  -0.586  -0.583  -0.582
 -0.581  -0.573  -0.572  -0.558  -0.557  -0.542  -0.541  -0.534
 -0.532  -0.532  -0.526  -0.521  -0.511  -0.505  -0.500  -0.495
 -0.493  -0.488  -0.488  -0.487  -0.483  -0.483  -0.483  -0.479
 -0.477  -0.475  -0.472  -0.471  -0.469  -0.465  -0.464  -0.463
 -0.462  -0.456  -0.456  -0.452  -0.443  -0.440  -0.439  -0.438
 -0.433  -0.424  -0.424  -0.422  -0.420  -0.418  -0.417  -0.410
 -0.400  -0.399  -0.396  -0.393  -0.393  -0.392  -0.390  -0.388
 -0.377  -0.375  -0.372  -0.365  -0.361  -0.357  -0.354  -0.350
 -0.339  -0.337  -0.318  -0.312  -0.294  -0.293  -0.279  -0.275
 -0.275  -0.261  -0.256  -0.254  -0.249  -0.246
 -- Virtual --
 -0.090  -0.057  -0.034  -0.028  -0.003   0.007   0.018   0.030
  0.031   0.036   0.037   0.047   0.071   0.084   0.088   0.093
  0.125   0.130   0.144   0.149   0.149   0.153   0.160   0.161
  0.162   0.164   0.167   0.169   0.172   0.175   0.184   0.186
  0.189   0.190   0.191   0.193   0.194   0.197   0.200   0.201
  0.207   0.208   0.209   0.210   0.217   0.218   0.220   0.222
  0.224   0.225   0.227   0.229   0.230   0.231   0.232   0.233
  0.235   0.242   0.243   0.249   0.250   0.253   0.255   0.256
  0.260   0.263   0.266   0.269   0.271   0.279   0.279   0.285
  0.288   0.288   0.292   0.299   0.308   0.310   0.312   0.316
  0.316   0.319   0.326   0.327   0.332   0.332   0.335   0.339
  0.340   0.344   0.352   0.352   0.365   0.378   0.381   0.391
  0.392   0.405   0.406   0.408   0.413   0.419   0.426   0.432
  0.442   0.443   0.446   0.455   0.456   0.462   0.463   0.470
  0.475   0.487   0.489   0.491   0.495   0.497   0.502   0.504
  0.506   0.509   0.515   0.520   0.528   0.529   0.530   0.530
  0.530   0.531   0.537   0.539   0.540   0.542   0.544   0.546
  0.548   0.551   0.556   0.559   0.560   0.561   0.565   0.565
  0.569   0.571   0.571   0.573   0.576   0.579   0.581   0.583
  0.586   0.590   0.592   0.592   0.597   0.598   0.599   0.601
  0.602   0.604   0.606   0.609   0.611   0.617   0.619   0.622
  0.622   0.623   0.626   0.630   0.631   0.632   0.633   0.633
  0.641   0.647   0.649   0.652   0.657   0.658   0.659   0.663
  0.666   0.673   0.676   0.680   0.684   0.687   0.690   0.692
  0.698   0.700   0.701   0.703   0.705   0.707   0.710   0.715
  0.725   0.728   0.729   0.731   0.732   0.734   0.735   0.751
  0.755   0.756   0.757   0.757   0.764   0.768   0.775   0.777
  0.778   0.780   0.784   0.788   0.794   0.796   0.800   0.802
  0.814   0.825   0.830   0.831   0.834   0.839   0.845   0.853
  0.860   0.863   0.867   0.876   0.881   0.884   0.888   0.910
  0.912   0.916   0.918   0.920   0.925   0.943   0.949   0.951
  0.952   0.954   0.957   0.963   0.967   0.974   0.976   0.980
  0.982   0.985   0.990   0.991   0.993   0.994   0.999   1.000
  1.001   1.002   1.003   1.007   1.008   1.019   1.022   1.022
  1.030   1.032   1.035   1.036   1.037   1.041   1.044   1.044
  1.056   1.060   1.061   1.069   1.073   1.074   1.075   1.080
  1.081   1.083   1.085   1.087   1.088   1.094   1.096   1.097
  1.104   1.106   1.110   1.126   1.128   1.129   1.131   1.140
  1.140   1.146   1.148   1.154   1.155   1.156   1.162   1.163
  1.173   1.176   1.178   1.181   1.193   1.197   1.205   1.206
  1.209   1.215   1.223   1.244   1.251   1.253   1.255   1.261
  1.264   1.269   1.278   1.281   1.283   1.284   1.293   1.300
  1.300   1.302   1.302   1.307   1.308   1.310   1.313   1.319
  1.320   1.343   1.349   1.352   1.354   1.361   1.366   1.370
  1.375   1.379   1.381   1.388   1.394   1.399   1.410   1.411
  1.412   1.414   1.422   1.430   1.435   1.442   1.442   1.443
  1.443   1.449   1.460   1.470   1.473   1.479   1.486   1.513
  1.513   1.516   1.516   1.517   1.520   1.520   1.521   1.521
  1.522   1.526   1.533   1.533   1.534   1.538   1.543   1.548
  1.551   1.556   1.563   1.567   1.567   1.573   1.575   1.578
  1.588   1.590   1.594   1.595   1.596   1.603   1.614   1.618
  1.642   1.645   1.653   1.654   1.661   1.675   1.690   1.696
  1.703   1.717   1.744   1.751   1.758   1.759   1.770   1.787
  1.800   1.809   1.809   1.810   1.812   1.816   1.818   1.818
  1.834   1.846   1.852   1.856   1.867   1.883   1.898   1.907
  1.908   1.920   1.921   1.921   1.927   1.933   1.933   1.938
  1.949   1.950   1.952   1.953   1.955   1.955   1.958   1.975
  1.986   1.986   1.987   1.992   1.994   1.994   2.002   2.002
  2.023   2.026   2.026   2.037   2.040   2.048   2.051   2.065
  2.068   2.071   2.075   2.076   2.088   2.089   2.099   2.113
  2.113   2.114   2.127   2.135   2.139   2.142   2.146   2.155
  2.156   2.158   2.161   2.161   2.167   2.180   2.190   2.194
  2.199   2.205   2.206   2.219   2.222   2.223   2.232   2.234
  2.235   2.248   2.248   2.257   2.263   2.268   2.269   2.274
  2.277   2.281   2.281   2.284   2.288   2.292   2.294   2.302
  2.316   2.320   2.323   2.324   2.329   2.330   2.332   2.342
  2.349   2.352   2.355   2.356   2.361   2.361   2.363   2.364
  2.389   2.390   2.394   2.397   2.406   2.408   2.412   2.415
  2.418   2.419   2.420   2.427   2.429   2.433   2.439   2.442
  2.458   2.462   2.468   2.470   2.481   2.485   2.493   2.494
  2.495   2.497   2.519   2.522   2.524   2.541   2.555   2.563
  2.567   2.582   2.616   2.630   2.634   2.644   2.645   2.645
  2.646   2.655   2.657   2.669   2.685   2.689   2.712   2.727
  2.730   2.733   2.733   2.738   2.744   2.751   2.774   2.775
  2.776   2.779   2.787   2.788   2.789   2.791   2.793   2.794
  2.801   2.808   2.813   2.816   2.817   2.824   2.844   2.855
  2.858   2.858   2.875   2.876   2.895   2.899   2.904   2.907
  2.924   2.927   2.941   2.944   2.958   2.982   2.995   3.009
  3.012   3.028   3.050   3.059   3.082   3.083   3.084   3.086
  3.103   3.109   3.118   3.240   3.256   3.259   3.315   3.317
  3.405   3.444   3.454   3.493   3.495   3.498   3.549   3.559
  3.669   3.683   9.588   9.730  13.143  13.177  13.405  13.498
 13.499  13.514  13.528  13.547  13.718  13.725  13.731  13.779
 13.780  13.792  13.796  13.807  13.853  13.861  13.890  13.897
 13.913  13.926  13.947  14.000  14.010  14.011  14.035  14.046
 14.124  14.162  14.164  14.194  14.197  14.200  14.221  14.263
 14.264  14.268  14.309  14.312  14.337  14.343  14.515  14.518
 14.569  14.571  14.576  14.577  14.586  14.588  25.789  25.790
 --------------------------------------------------------------
 
          Ground-State Mulliken Net Atomic Charges

     Atom                 Charge (a.u.)
  ----------------------------------------
      1 C                    -0.155533
      2 C                    -0.397389
      3 H                     0.240144
      4 C                     0.106629
      5 C                     0.079130
      6 C                    -0.387388
      7 H                     0.239992
      8 C                    -0.154640
      9 C                     0.187306
     10 C                    -0.382759
     11 H                     0.234946
     12 C                    -0.062616
     13 C                     0.241642
     14 C                     0.188951
     15 C                    -0.392779
     16 H                     0.234775
     17 C                    -0.218597
     18 H                     0.240050
     19 C                    -0.339863
     20 H                     0.234425
     21 C                    -0.215532
     22 H                     0.239473
     23 C                    -0.344617
     24 H                     0.234780
     25 B                     0.700261
     26 B                     0.698785
     27 C                    -0.153509
     28 C                    -0.386726
     29 H                     0.241523
     30 C                     0.080056
     31 C                     0.103222
     32 C                    -0.396182
     33 H                     0.241116
     34 C                    -0.155623
     35 C                     0.190507
     36 C                    -0.391587
     37 H                     0.235029
     38 C                    -0.064424
     39 C                     0.238587
     40 C                     0.188697
     41 C                    -0.383571
     42 H                     0.235019
     43 C                    -0.215889
     44 H                     0.239457
     45 C                    -0.343250
     46 H                     0.234733
     47 C                    -0.218459
     48 H                     0.239960
     49 C                    -0.338823
     50 H                     0.234389
     51 C                    -0.222738
     52 C                     0.056633
     53 C                    -0.445983
     54 H                     0.234934
     55 C                     0.398060
     56 O                    -0.462235
     57 C                    -0.392849
     58 H                     0.229143
     59 C                     0.061040
     60 C                    -0.416277
     61 H                     0.246144
     62 H                     0.210863
     63 H                     0.211123
     64 C                    -0.767429
     65 H                     0.239927
     66 H                     0.248464
     67 H                     0.248648
     68 C                    -0.764669
     69 H                     0.243193
     70 H                     0.246176
     71 H                     0.246039
     72 C                    -0.218000
     73 C                     0.061747
     74 C                    -0.445485
     75 H                     0.234833
     76 C                     0.397884
     77 O                    -0.461810
     78 C                    -0.397170
     79 H                     0.229023
     80 C                     0.056934
     81 C                    -0.416250
     82 H                     0.245976
     83 H                     0.210732
     84 H                     0.210416
     85 C                    -0.768313
     86 H                     0.244021
     87 H                     0.247390
     88 H                     0.247333
     89 C                    -0.766883
     90 H                     0.239410
     91 H                     0.247872
     92 H                     0.248307
  ----------------------------------------
  Sum of atomic charges =    -0.000000

 -----------------------------------------------------------------
                    Cartesian Multipole Moments
 -----------------------------------------------------------------
    Charge (ESU x 10^10)
                -0.0000
    Dipole Moment (Debye)
         X      -0.0202      Y      -0.2347      Z      -0.0436
       Tot       0.2396
    Quadrupole Moments (Debye-Ang)
        XX    -260.6431     XY      16.3832     YY    -312.6592
        XZ      -0.7045     YZ       7.8707     ZZ    -255.8562
    Octopole Moments (Debye-Ang^2)
       XXX     -27.8336    XXY    -136.1368    XYY      -8.7580
       YYY    -485.2769    XXZ     394.1442    XYZ     -22.0523
       YYZ     464.7163    XZZ     -12.8922    YZZ    -168.8955
       ZZZ    1129.3249
    Hexadecapole Moments (Debye-Ang^3)
      XXXX  -21188.4603   XXXY     799.2698   XXYY   -4596.9338
      XYYY     -48.6699   YYYY   -2621.8770   XXXZ    2387.5157
      XXYZ     943.8317   XYYZ    1150.0116   YYYZ    1588.4337
      XXZZ   -7899.0321   XYZZ     380.3736   YYZZ   -6619.2949
      XZZZ    1427.3054   YZZZ    1262.9537   ZZZZ  -28735.2470
 -----------------------------------------------------------------
Archival summary:
1\1\ctcp044\OPT\ProcedureUnspecified\BasisUnspecified\250238\mewes\ThuOct2503:46:032018ThuOct2503:46:032018\0\\#,OPT,ProcedureUnspecified,BasisUnspecified,\\0,1\C\C,1,1.39469\H,2,1.08452,1,119.897\C,2,1.38082,1,119.889,3,-179.351,0\C,4,1.41199,2,120.735,1,-0.16528,0\C,5,1.38466,4,119.708,2,-0.0947077,0\H,6,1.08445,5,120.319,4,179.63,0\C,6,1.39992,5,120.037,4,0.226968,0\C,4,1.46078,2,130.596,1,178.294,0\C,9,1.37116,4,135.075,2,0.444981,0\H,10,1.08324,9,121.974,4,1.00428,0\C,9,1.4062,4,105.984,2,-178.484,0\C,12,1.39124,9,123.78,4,178.907,0\C,12,1.40881,9,111.481,4,-0.179386,0\C,14,1.37005,12,118.085,9,179.253,0\H,15,1.08279,14,121.93,12,-179.658,0\C,13,1.41496,12,115.96,9,-179.24,0\H,17,1.08323,13,120.104,12,179.941,0\C,17,1.37548,13,119.936,12,0.141086,0\H,19,1.08212,17,118.941,13,179.844,0\C,10,1.41499,9,118.475,4,-178.808,0\H,21,1.08238,10,118.583,9,179.953,0\C,21,1.37552,10,122.295,9,0.141339,0\H,23,1.08326,21,119.829,10,179.733,0\B,1,1.55356,2,119.623,3,0.91998,0\C,25,1.55456,1,119.302,2,-179.206,0\C,26,1.39451,25,119.622,1,178.712,0\H,27,1.08487,26,119.798,25,-0.389282,0\C,27,1.38168,26,119.869,25,179.222,0\C,29,1.41207,27,120.833,26,-0.375547,0\C,30,1.38598,29,119.652,27,0.413169,0\H,31,1.08464,30,120.384,29,-179.756,0\C,31,1.40026,30,120.02,29,-0.0614955,0\C,29,1.45838,27,130.478,26,-179.425,0\C,34,1.3703,29,134.803,27,-0.739832,0\H,35,1.08324,34,121.938,29,-0.4214,0\C,34,1.40503,29,106.141,27,178.886,0\C,37,1.38982,34,123.798,29,-179.411,0\C,37,1.40869,34,111.279,29,0.140034,0\C,39,1.36918,37,118.026,34,-179.541,0\H,40,1.08273,39,121.906,37,179.784,0\C,35,1.41426,34,118.39,29,179.516,0\H,42,1.08236,35,118.59,34,179.991,0\C,42,1.37583,35,122.262,34,-0.117387,0\H,44,1.08314,42,119.77,35,-179.842,0\C,38,1.41477,37,115.826,34,179.549,0\H,46,1.08304,38,120.109,37,-179.965,0\C,46,1.3757,38,119.949,37,-0.0696656,0\H,48,1.08203,46,118.916,38,-179.889,0\B,8,1.55667,6,120.332,5,178.826,0\C,50,1.5654,8,119.646,6,-0.936369,0\C,51,1.39383,50,120.66,8,90.6113,0\C,52,1.39393,51,120.501,50,-179.309,0\H,53,1.0826,52,118.656,51,-179.931,0\C,53,1.38944,52,120.073,51,0.0555965,0\O,55,1.34999,53,124.307,52,-179.926,0\C,55,1.3932,53,119.582,52,0.0370559,0\H,57,1.08389,55,119.04,53,-179.98,0\C,57,1.38497,55,120.589,53,-0.0616514,0\C,56,1.40502,55,118.432,53,0.808249,0\H,60,1.08794,56,106.628,55,179.668,0\H,60,1.09447,56,112.269,55,-61.5966,0\H,60,1.09459,56,112.228,55,60.9603,0\C,52,1.50385,51,119.533,50,0.304015,0\H,64,1.0896,52,112.034,51,178.778,0\H,64,1.09251,52,111.439,51,58.3071,0\H,64,1.09258,52,111.264,51,-60.8603,0\C,59,1.50386,57,120.265,55,179.715,0\H,68,1.08949,59,111.932,57,2.10213,0\H,68,1.09258,59,111.409,57,122.53,0\H,68,1.09263,59,111.295,57,-118.265,0\C,25,1.57237,1,119.743,2,2.112,0\C,72,1.39613,25,120.131,1,87.9866,0\C,73,1.39369,72,120.699,25,-178.582,0\H,74,1.0827,73,118.566,72,179.88,0\C,74,1.38851,73,120.221,72,-0.0210975,0\O,76,1.34985,74,124.411,73,-179.9,0\C,76,1.39257,74,119.392,73,0.0821029,0\H,78,1.08383,76,119.005,74,179.942,0\C,78,1.38521,76,120.632,74,-0.0423049,0\C,77,1.40597,76,118.511,74,-0.0263089,0\H,81,1.08794,77,106.61,76,179.567,0\H,81,1.09442,77,112.253,76,60.8384,0\H,81,1.09456,77,112.269,76,-61.7403,0\C,80,1.50253,78,119.953,76,179.627,0\H,85,1.08943,80,111.918,78,1.07432,0\H,85,1.09215,80,111.311,78,121.513,0\H,85,1.09245,80,111.247,78,-119.234,0\C,73,1.50385,72,119.975,25,0.939369,0\H,89,1.08984,73,111.905,72,177.516,0\H,89,1.09216,73,111.476,72,57.1441,0\H,89,1.0925,73,111.32,72,-62.2554,0\\\@

 Total job time:  25773.45s(wall), 59234.80s(cpu) 
 Thu Oct 25 03:46:03 2018

        *************************************************************
        *                                                           *
        *  Thank you very much for using Q-Chem.  Have a nice day.  *
        *                                                           *
        *************************************************************


0 sent ACK to 0 
now end server 0 ... 
