mFile = /cm/shared/apps/q-chem/intel/QCHEM_5.1.0_Trunk/bin/mpi/machines
Process 0 of 1 is on ctcp042 - thread support 0
initial socket setup ...start
initial socket setup ...done 
now start server 0 ... 
Q-Chem Developer Version!
                  Welcome to Q-Chem
     A Quantum Leap Into The Future Of Chemistry


 Q-Chem 5.1, Q-Chem, Inc., Pleasanton, CA (2018)

 Yihan Shao,  Zhengting Gan,  E. Epifanovsky,  A. T. B. Gilbert,  M. Wormit,  
 J. Kussmann,  A. W. Lange,  A. Behn,  Jia Deng,  Xintian Feng,  D. Ghosh,  
 M. Goldey,  P. R. Horn,  L. D. Jacobson,  I. Kaliman,  T. Kus,  A. Landau,  
 Jie Liu,  E. I. Proynov,  R. M. Richard,  R. P. Steele,  E. J. Sundstrom,  
 H. L. Woodcock III,  P. M. Zimmerman,  D. Zuev,  B. Albrecht,  E. Alguire,  
 S. A. Baeppler,  D. Barton,  Z. Benda,  Y. A. Bernard,  E. J. Berquist,  
 K. B. Bravaya,  H. Burton,  D. Casanova,  Chun-Min Chang,  Yunqing Chen,  
 A. Chien,  K. D. Closser,  M. P. Coons,  S. Coriani,  S. Dasgupta,  
 A. L. Dempwolff,  M. Diedenhofen,  Hainam Do,  R. G. Edgar,  Po-Tung Fang,  
 S. Faraji,  S. Fatehi,  Qingguo Feng,  K. D. Fenk,  J. Fosso-Tande,  
 Qinghui Ge,  A. Ghysels,  G. Gidofalvi,  J. Gomes,  J. Gonthier,  A. Gunina,  
 D. Hait,  M. W. D. Hanson-Heine,  P. H. P. Harbach,  A. W. Hauser,  
 J. E. Herr,  E. G. Hohenstein,  Z. C. Holden,  Kerwin Hui,  B. C. Huynh,  
 T.-C. Jagau,  Hyunjun Ji,  B. Kaduk,  K. Khistyaev,  Jaehoon Kim,  
 P. Klunzinger,  K. Koh,  D. Kosenkov,  L. Koulias,  T. Kowalczyk,  
 C. M. Krauter,  A. Kunitsa,  Ka Un Lao,  A. Laurent,  K. V. Lawler,  
 Joonho Lee,  D. Lefrancois,  S. Lehtola,  D. S. Levine,  Yi-Pei Li,  
 You-Sheng Lin,  Fenglai Liu,  E. Livshits,  A. Luenser,  P. Manohar,  
 E. Mansoor,  S. F. Manzer,  Shan-Ping Mao,  Yuezhi Mao,  N. Mardirossian,  
 A. V. Marenich,  T. Markovich,  L. A. Martinez-Martinez,  S. A. Maurer,  
 N. J. Mayhall,  S. C. McKenzie,  J.-M. Mewes,  A. F. Morrison,  
 J. W. Mullinax,  K. Nanda,  T. S. Nguyen-Beck,  R. Olivares-Amaya,  
 J. A. Parkhill,  T. M. Perrine,  F. Plasser,  P. Pokhilko,  S. Prager,  
 A. Prociuk,  E. Ramos,  D. R. Rehn,  F. Rob,  M. Schneider,  N. Sergueev,  
 S. M. Sharada,  S. Sharma,  D. W. Small,  T. Stauch,  T. Stein,  
 Yu-Chuan Su,  A. J. W. Thom,  A. Tkatchenko,  T. Tsuchimochi,  N. M. Tubman,  
 L. Vogt,  M. L. Vidal,  O. Vydrov,  M. A. Watson,  J. Wenzel,  
 M. de Wergifosse,  T. A. Wesolowski,  A. White,  J. Witte,  A. Yamada,  
 Jun Yang,  K. Yao,  S. Yeganeh,  S. R. Yost,  Zhi-Qiang You,  A. Zech,  
 Igor Ying Zhang,  Xing Zhang,  Yan Zhao,  Ying Zhu,  B. R. Brooks,  
 G. K. L. Chan,  C. J. Cramer,  M. S. Gordon,  W. J. Hehre,  A. Klamt,  
 M. W. Schmidt,  C. D. Sherrill,  D. G. Truhlar,  A. Aspuru-Guzik,  R. Baer,  
 A. T. Bell,  N. A. Besley,  Jeng-Da Chai,  A. E. DePrince, III,  
 R. A. DiStasio Jr.,  A. Dreuw,  B. D. Dunietz,  T. R. Furlani,  
 Chao-Ping Hsu,  Yousung Jung,  Jing Kong,  D. S. Lambrecht,  WanZhen Liang,  
 C. Ochsenfeld,  V. A. Rassolov,  L. V. Slipchenko,  J. E. Subotnik,  
 T. Van Voorhis,  J. M. Herbert,  A. I. Krylov,  P. M. W. Gill,  M. Head-Gordon

 Contributors to earlier versions of Q-Chem not listed above: 
 R. D. Adamson,  B. Austin,  J. Baker,  G. J. O. Beran,  K. Brandhorst,  
 S. T. Brown,  E. F. C. Byrd,  A. K. Chakraborty,  C.-L. Cheng,  
 Siu Hung Chien,  D. M. Chipman,  D. L. Crittenden,  H. Dachsel,  
 R. J. Doerksen,  A. D. Dutoi,  L. Fusti-Molnar,  W. A. Goddard III,  
 A. Golubeva-Zadorozhnaya,  S. R. Gwaltney,  G. Hawkins,  A. Heyden,  
 S. Hirata,  G. Kedziora,  F. J. Keil,  C. Kelley,  Jihan Kim,  R. A. King,  
 R. Z. Khaliullin,  P. P. Korambath,  W. Kurlancheek,  A. M. Lee,  M. S. Lee,  
 S. V. Levchenko,  Ching Yeh Lin,  D. Liotard,  R. C. Lochan,  I. Lotan,  
 P. E. Maslen,  N. Nair,  D. P. O'Neill,  D. Neuhauser,  E. Neuscamman,  
 C. M. Oana,  R. Olson,  B. Peters,  R. Peverati,  P. A. Pieniazek,  
 Y. M. Rhee,  J. Ritchie,  M. A. Rohrdanz,  E. Rosta,  N. J. Russ,  
 H. F. Schaefer III,  N. E. Schultz,  N. Shenvi,  A. C. Simmonett,  A. Sodt,  
 D. Stuck,  K. S. Thanthiriwatte,  V. Vanovschi,  Tao Wang,  A. Warshel,  
 C. F. Williams,  Q. Wu,  X. Xu,  W. Zhang

 Please cite Q-Chem as follows:
 Y. Shao et al., Mol. Phys. 113, 184-215 (2015)
 DOI: 10.1080/00268976.2014.952696

 Q-Chem 5.1.1 for Intel X86 EM64T Linux

 Parts of Q-Chem use Armadillo 8.300.2 (Tropical Shenanigans).
 http://arma.sourceforge.net/

 Q-Chem begins on Tue Dec 18 10:52:41 2018  

Host: ctcp042
0

     Scratch files written to /scratch/mewes1/142047/qchem10009//
 Parallel job on  1  processors
The previous job contains 0 fragments, simply inherited here
Input Ideriv = 1
Curr. Ideriv = -1
Max.  Ideriv = 1

Checking the input file for inconsistencies... 	...done.

--------------------------------------------------------------
User input:
--------------------------------------------------------------
$rem
threads 8
jobtype	opt
method PBEh-3c
basis def2-mSVP
mem_static	1024
mem_total	14000
sym_ignore	true
cis_n_roots             2
cis_singlets            true
cis_triplets		false
rpa                     false
cis_state_deriv         1
$end


$molecule
read incoords.mol
$end

--------------------------------------------------------------
 Adding empirical dispersion correction 
 ----------------------------------------------------------------
 Doing -D3(BJ) with
 s6 =   1.00000
 s8 =   0.00000
 a1 =   0.48600
 a2 =   4.50000
 -D3 energy including 3body term =     -0.1266082980 hartrees
 ----------------------------------------------------------------
 Adding gCP correction 
 ----------------------------------------------------------------
 gCP energy =      0.1735918721 hartrees
 ----------------------------------------------------------------
             Standard Nuclear Orientation (Angstroms)
    I     Atom           X                Y                Z
 ----------------------------------------------------------------
    1      C     -12.2702480000    -1.9044160000   -10.7830290000
    2      C     -11.3750060000    -1.4826590000    -9.7879180000
    3      N     -10.4162040000    -2.4584880000    -9.6061870000
    4      C     -10.6885540000    -3.5055960000   -10.4566450000
    5      C     -11.8315250000    -3.2034930000   -11.2111140000
    6      C     -12.3163050000    -4.1270050000   -12.1347070000
    7      C     -11.6709370000    -5.3385250000   -12.3098510000
    8      C     -10.5229560000    -5.6079330000   -11.5473560000
    9      C     -10.0180560000    -4.7134020000   -10.6242400000
   10      C     -13.3615840000    -1.1110110000   -11.1205440000
   11      C     -13.5666850000     0.0923110000   -10.4705210000
   12      C     -12.6584590000     0.4856900000    -9.4743050000
   13      C     -11.5651310000    -0.2806570000    -9.1181490000
   14      C      -9.4035070000    -2.4385620000    -8.6250550000
   15      C      -8.4155830000    -1.4700070000    -8.6785920000
   16      C      -7.4491650000    -1.3996550000    -7.6842350000
   17      C      -7.4577080000    -2.3196290000    -6.6264520000
   18      C      -8.4356300000    -3.3219780000    -6.6073470000
   19      C      -9.4080560000    -3.3707770000    -7.5997310000
   20      B      -6.4168710000    -2.1331270000    -5.4527130000
   21      C      -5.0255910000    -2.7704110000    -5.4968240000
   22      C      -4.7001650000    -3.6863350000    -6.5083880000
   23      C      -3.4666730000    -4.2904550000    -6.5369540000
   24      C      -2.4863330000    -3.9783120000    -5.5498200000
   25      C      -2.7783550000    -3.0629320000    -4.5669020000
   26      C      -4.0478070000    -2.4471560000    -4.5051220000
   27      C      -1.3057910000    -4.7993490000    -5.8228200000
   28      C      -1.6154280000    -5.5730000000    -6.9607900000
   29      C      -2.9154000000    -5.2983540000    -7.4296340000
   30      C      -0.7665190000    -6.5159120000    -7.5344570000
   31      C       0.4927760000    -6.6767990000    -6.9099150000
   32      C       0.8085330000    -5.9283370000    -5.7993990000
   33      C      -0.0790820000    -4.9834030000    -5.2363810000
   34      C      -3.3820040000    -5.9892270000    -8.5213340000
   35      C      -2.5366510000    -6.9447900000    -9.1268890000
   36      C      -1.2693540000    -7.2113460000    -8.6616350000
   37      B      -4.4120620000    -1.4465220000    -3.4086120000
   38      C      -5.8239620000    -0.8806050000    -3.2796130000
   39      C      -6.1969300000    -0.0243030000    -2.2195780000
   40      C      -7.4819560000     0.4551810000    -2.1215400000
   41      C      -8.4428300000     0.0935640000    -3.1105010000
   42      C      -8.0955640000    -0.7203410000    -4.1601270000
   43      C      -6.7932670000    -1.2294650000    -4.2704140000
   44      C      -9.7122910000     0.7162410000    -2.7706320000
   45      C      -9.4918650000     1.4401930000    -1.5833520000
   46      C      -8.1561220000     1.3162930000    -1.1467720000
   47      C     -10.4781750000     2.1720060000    -0.9275910000
   48      C     -11.7645920000     2.1670040000    -1.5202840000
   49      C     -11.9860170000     1.4616850000    -2.6807770000
   50      C     -10.9687340000     0.7245820000    -3.3258350000
   51      C      -7.7976440000     1.9671220000     0.0065980000
   52      C      -8.7757250000     2.7214310000     0.6945980000
   53      C     -10.0755500000     2.8307320000     0.2573500000
   54      C      -6.3952770000    -0.3310210000    -7.7503920000
   55      C      -8.4548780000    -4.3301680000    -5.4930290000
   56      C      -3.2704260000    -0.9327530000    -2.4454540000
   57      C      -2.9598340000    -1.5995130000    -1.2389070000
   58      C      -1.9202480000    -1.1524050000    -0.4489850000
   59      C      -1.1615370000    -0.0508870000    -0.8589140000
   60      C      -1.4711920000     0.6287380000    -2.0424680000
   61      C      -2.5224120000     0.2046560000    -2.8249650000
   62      N      -0.0800930000     0.3777670000    -0.1003910000
   63      C      -0.0677350000     0.5836640000     1.2688220000
   64      C       1.1849690000     1.0927580000     1.6425590000
   65      C       1.9724550000     1.1899490000     0.4274110000
   66      C       1.1516160000     0.7343180000    -0.6146800000
   67      C       1.4121520000     1.4393670000     2.9573960000
   68      C       0.3923620000     1.2825710000     3.8995840000
   69      C      -0.8546150000     0.7970880000     3.4878240000
   70      C      -1.1126660000     0.4549280000     2.1752880000
   71      C       3.2590760000     1.6004810000     0.1465600000
   72      C       3.7320200000     1.5496670000    -1.1681510000
   73      C       2.9020260000     1.0461880000    -2.1773170000
   74      C       1.6146950000     0.6197710000    -1.9224450000
   75      C      -3.7489050000    -2.8133640000    -0.8563850000
   76      C      -2.8861840000     0.9448980000    -4.0752200000
   77      H      -2.0953170000     0.1243630000     1.8701840000
   78      H      -1.6489550000     0.7041000000     4.2169600000
   79      H       1.0051780000     0.2010900000    -2.7104710000
   80      H       3.2838340000     0.9779300000    -3.1878050000
   81      C       5.1161410000     2.0062920000    -1.5080770000
   82      H       3.9080240000     1.9584110000     0.9356710000
   83      C       0.6072810000     1.6526770000     5.3338710000
   84      H       2.3675530000     1.8480300000     3.2610160000
   85      H      -0.9233320000     1.5239230000    -2.3090470000
   86      H      -1.6376870000    -1.7004730000     0.4409410000
   87      H      -3.4231970000    -3.2338160000     0.0946570000
   88      H      -4.8104200000    -2.5728540000    -0.7815640000
   89      H      -3.6619720000    -3.5869440000    -1.6202530000
   90      H      -2.2282780000     1.7955200000    -4.2508040000
   91      H      -3.9129350000     1.3085260000    -4.0255300000
   92      H      -2.8331940000     0.2836880000    -4.9411190000
   93      H      -5.4626850000     0.2515630000    -1.4690150000
   94      H      -8.8342830000    -0.9781820000    -4.9122550000
   95      H     -11.1951250000     0.1819510000    -4.2356800000
   96      H      -6.7902650000     1.9157710000     0.4003340000
   97      H     -12.9764950000     1.4673270000    -3.1182340000
   98      H     -12.5762560000     2.7162060000    -1.0589580000
   99      H      -8.4868640000     3.2325450000     1.6041890000
  100      H     -10.7893500000     3.4196380000     0.8204160000
  101      H      -5.4423270000    -3.9226830000    -7.2650870000
  102      H      -2.0259860000    -2.8270990000    -3.8206390000
  103      H       0.2186510000    -4.4322260000    -4.3531860000
  104      H      -4.3753010000    -5.8234350000    -8.9201610000
  105      H       1.2046500000    -7.3936930000    -7.3005760000
  106      H       1.7742460000    -6.0712590000    -5.3313180000
  107      H      -2.9055010000    -7.4899050000    -9.9866250000
  108      H      -0.6587450000    -7.9579780000    -9.1544830000
  109      H      -8.4096910000    -0.7652670000    -9.5021780000
  110      H     -10.1868030000    -4.1248630000    -7.5667580000
  111      H     -10.8891600000     0.0425520000    -8.3378010000
  112      H     -12.8237600000     1.4244250000    -8.9582980000
  113      H      -9.1327270000    -4.9520900000   -10.0499160000
  114      H     -10.0144110000    -6.5556460000   -11.6840850000
  115      C     -12.1795820000    -6.3593500000   -13.2884480000
  116      H     -13.2060760000    -3.9019230000   -12.7125720000
  117      C     -14.7419240000     0.9653460000   -10.8077170000
  118      H     -14.0583390000    -1.4431370000   -11.8825520000
  119      H      -9.2715580000    -5.0427140000    -5.6087490000
  120      H      -8.5698210000    -3.8452660000    -4.5216780000
  121      H      -7.5208450000    -4.8937800000    -5.4541600000
  122      H      -6.5245370000     0.3056200000    -8.6258550000
  123      H      -6.4220590000     0.3074900000    -6.8654720000
  124      H      -5.3956570000    -0.7663950000    -7.7977460000
  125      H     -15.3544300000     0.5206250000   -11.5917230000
  126      H     -15.3869790000     1.1250580000    -9.9415680000
  127      H     -14.4258260000     1.9490320000   -11.1595060000
  128      H     -13.0719020000    -6.0065420000   -13.8050020000
  129      H     -11.4334220000    -6.5948450000   -14.0495620000
  130      H     -12.4396970000    -7.2967040000   -12.7928490000
  131      H       1.6142340000     2.0254550000     5.5110910000
  132      H      -0.0938670000     2.4271360000     5.6478690000
  133      H       0.4510760000     0.7936380000     5.9876210000
  134      H       5.6508480000     2.3728280000    -0.6340450000
  135      H       5.7020780000     1.1944220000    -1.9411000000
  136      H       5.0913420000     2.8113050000    -2.2439300000
 ----------------------------------------------------------------
 Nuclear Repulsion Energy = 11540.9784816195 hartrees
 There are      268 alpha and      268 beta electrons
 Requested basis set is def2-mSVP
 There are 672 shells and 1312 basis functions

 Total QAlloc Memory Limit  14000 MB
 Mega-Array Size      1001 MB
 MEM_STATIC part      1024 MB
 A cutoff of  1.0D-11 yielded  56085 shell pairs
 There are    223873 function pairs (    246976 Cartesian)
 
 -------------------------------------------------------
 OpenMP Integral Computing Module                       
 Release: version 1.0, May 2013, Q-Chem Inc. Pittsburgh 
 -------------------------------------------------------
 Integral Job Info:
 Integral job number is                      11
 Integral operator is                         1
 short-range coefficients                     0
 long-range coefficients              100000000
 Omega coefficients                           0
 if combine SR and LR in K                    0
 Integral screening is                        0
 Integral computing path is                   2
 max size of driver memory is            800000
 size of driver memory is                593474
 size of scratch memory is              1809772
 max col of scratch BK array               1296
 max len of scratch array in speh3          155
 max len of scratch index in speh4           18
 max int batch size is                      520
 min int batch size is                       52
 fixed nKL is                                52
 max L of basis functions is                  2
 order of int derivative is                   0
 number of shells is                        672
 number of basis is                        1392
 number of cartesian basis is              1392
 number of contracted shell pairs         56085
 number of primitive shell pairs         117336
 maxK2 (contraction) of shell pair           25
 max number of K2 of shell pair               1
 max number of CS2 of shell pair          13443
 max number of PS2 of shell pair          20830
 mem total for path MDJ                 1085052
 -------------------------------------------------------
 Smallest overlap matrix eigenvalue = 1.98E-04

 Scale SEOQF with 1.000000e-02/1.000000e-02/1.000000e-02

 Standard Electronic Orientation quadrupole field applied
 Nucleus-field energy     =    -0.0000000935 hartrees
 Guess from superposition of atomic densities
 Warning:  Energy on first SCF cycle will be non-variational
 SAD guess density has 536.000001 electrons

 -----------------------------------------------------------------------
  General SCF calculation program by
  Eric Jon Sundstrom, Paul Horn, Yuezhi Mao, Dmitri Zuev, Alec White,
  David Stuck, Shaama M.S., Shane Yost, Joonho Lee, David Small,
  Daniel Levine, Susi Lehtola, Hugh Burton, Evgeny Epifanovsky
 -----------------------------------------------------------------------
 Exchange:     0.4200 Hartree-Fock + 0.5800 PBEh-3c
 Correlation:  1.0000 PBEh-3c
 Using SG-1 standard quadrature grid
 Dispersion:   Grimme D3
 using 8 threads for integral computing
 -------------------------------------------------------
 OpenMP Integral computing Module                
 Release: version 2.0, May 2017, Q-Chem Inc. Pleasanton 
 -------------------------------------------------------
 -------------------------------------------------------
 OpenMP BLAS3 based DFT computing Module                
 Release: version 1.0, May 2013, Q-Chem Inc. Pittsburgh 
 -------------------------------------------------------
 A restricted SCF calculation will be
 performed using DIIS
 SCF converges when DIIS error is below 1.0e-08
 ---------------------------------------
  Cycle       Energy         DIIS error
 ---------------------------------------
    1   -3109.7688036795      2.38e-02  
    2   -3081.8063832971      1.60e-03  
    3   -3081.9677716249      1.46e-03  
    4   -3082.3729161820      5.84e-04  
    5   -3082.4490007069      1.58e-04  
    6   -3082.4542412077      6.29e-05  
    7   -3082.4550867890      1.46e-05  
    8   -3082.4551315928      5.73e-06  
    9   -3082.4551393490      1.30e-06  
   10   -3082.4551398053      5.37e-07  
   11   -3082.4551398900      2.11e-07  
   12   -3082.4551399045      7.75e-08  
   13   -3082.4551399066      2.84e-08  
   14   -3082.4551399068      9.68e-09  Convergence criterion met
 ---------------------------------------
 SCF time:   CPU 9306.93s  wall 1166.00s 
 SCF   energy in the final basis set =    -3082.4551399068
 Total energy in the final basis set =    -3082.4551399068
 
 Direct TDDFT/TDA calculation will be performed
 Exchange:     0.4200 Hartree-Fock + 0.5800 PBEh-3c
 Correlation:  1.0000 PBEh-3c
 Using SG-1 standard quadrature grid
 Dispersion:   Grimme D3
 Singlet excitation energies requested
 CIS energy converged when residual is below 10e- 6
 ---------------------------------------------------
 Iter    Rts Conv    Rts Left    Ttl Dev     Max Dev
 ---------------------------------------------------
   1         0           2      0.000031    0.000018
   2         0           2      0.000018    0.000010
   3         0           2      0.000013    0.000007
   4         0           2      0.000003    0.000002
   5         1           1      0.000002    0.000001
   6         2           0      0.000002    0.000001    Roots Converged
 ---------------------------------------------------
 
 ---------------------------------------------------
         TDDFT/TDA Excitation Energies              
 ---------------------------------------------------

 Excited state   1: excitation energy (eV) =    2.4332
 Total energy for state  1:                 -3082.36572125 au
    Multiplicity: Singlet
    Trans. Mom.: -0.0873 X   0.0557 Y   0.0415 Z
    Strength   :     0.0007420931
    D(261) --> V(  1) amplitude =  0.2238
    D(268) --> V(  1) amplitude =  0.9653

 Excited state   2: excitation energy (eV) =    2.7217
 Total energy for state  2:                 -3082.35511781 au
    Multiplicity: Singlet
    Trans. Mom.: -0.0420 X   0.0620 Y   0.0608 Z
    Strength   :     0.0006199340
    D(267) --> V(  1) amplitude =  0.9765
 
 ---------------------------------------------------
 Calculating Relaxed Density
 ---------------------------------------------------
 Iter    Rts Conv    Rts Left    Ttl Dev     Max Dev
 ---------------------------------------------------
   1         0           2      0.000301    0.000156
   2         0           2      0.000100    0.000052
   3         0           2      0.000043    0.000023
   4         0           2      0.000013    0.000006
   5         0           2      0.000005    0.000003
   6         2           0      0.000000    0.000000    Roots Converged
 ---------------------------------------------------
  SETman timing summary (seconds)
  CPU time             11142.02s
  System time              0.00s
  Wall time             1597.00s
 
 --------------------------------------------------------------
 
                    Orbital Energies (a.u.)
 --------------------------------------------------------------
 
 Alpha MOs
 -- Occupied --
-14.685 -14.683 -10.490 -10.490 -10.479 -10.479 -10.478 -10.477
-10.469 -10.469 -10.469 -10.469 -10.469 -10.469 -10.469 -10.468
-10.468 -10.467 -10.467 -10.466 -10.466 -10.466 -10.466 -10.466
-10.465 -10.464 -10.464 -10.463 -10.463 -10.463 -10.462 -10.461
-10.461 -10.461 -10.459 -10.458 -10.457 -10.457 -10.452 -10.451
-10.447 -10.446 -10.446 -10.445 -10.444 -10.444 -10.444 -10.443
-10.443 -10.443 -10.442 -10.442 -10.442 -10.441 -10.441 -10.441
-10.441 -10.440 -10.440 -10.440 -10.440 -10.439 -10.439 -10.439
-10.439 -10.439 -10.439 -10.439 -10.435 -10.433 -10.433 -10.432
-10.431 -10.428 -10.427 -10.427 -10.427 -10.427  -6.952  -6.948
 -1.107  -1.104  -1.020  -1.019  -0.975  -0.973  -0.965  -0.963
 -0.951  -0.949  -0.946  -0.945  -0.937  -0.937  -0.913  -0.904
 -0.892  -0.891  -0.881  -0.881  -0.863  -0.862  -0.861  -0.860
 -0.852  -0.851  -0.850  -0.850  -0.834  -0.833  -0.826  -0.817
 -0.816  -0.813  -0.808  -0.808  -0.780  -0.778  -0.777  -0.775
 -0.765  -0.763  -0.761  -0.759  -0.740  -0.733  -0.732  -0.725
 -0.713  -0.713  -0.697  -0.694  -0.690  -0.684  -0.676  -0.671
 -0.662  -0.660  -0.656  -0.655  -0.653  -0.651  -0.642  -0.640
 -0.638  -0.637  -0.602  -0.600  -0.597  -0.594  -0.591  -0.590
 -0.588  -0.585  -0.583  -0.581  -0.581  -0.559  -0.556  -0.554
 -0.550  -0.549  -0.540  -0.538  -0.533  -0.532  -0.531  -0.525
 -0.518  -0.513  -0.512  -0.508  -0.507  -0.503  -0.500  -0.498
 -0.497  -0.496  -0.495  -0.494  -0.494  -0.492  -0.490  -0.488
 -0.488  -0.487  -0.485  -0.484  -0.481  -0.479  -0.478  -0.476
 -0.476  -0.473  -0.473  -0.472  -0.471  -0.471  -0.471  -0.470
 -0.469  -0.468  -0.466  -0.466  -0.465  -0.461  -0.450  -0.446
 -0.446  -0.445  -0.440  -0.437  -0.436  -0.432  -0.430  -0.430
 -0.428  -0.428  -0.427  -0.417  -0.414  -0.414  -0.411  -0.409
 -0.405  -0.405  -0.402  -0.399  -0.398  -0.398  -0.398  -0.397
 -0.396  -0.396  -0.395  -0.394  -0.388  -0.387  -0.385  -0.382
 -0.380  -0.374  -0.366  -0.366  -0.362  -0.355  -0.354  -0.343
 -0.325  -0.322  -0.320  -0.319  -0.299  -0.298  -0.288  -0.287
 -0.285  -0.285  -0.283  -0.282  -0.279  -0.266  -0.260  -0.259
 -0.248  -0.244  -0.228  -0.222
 -- Virtual --
 -0.101  -0.064  -0.041  -0.035  -0.008  -0.007  -0.006   0.002
  0.005   0.006   0.012   0.020   0.024   0.032   0.035   0.039
  0.060   0.062   0.065   0.066   0.068   0.079   0.083   0.087
  0.118   0.123   0.139   0.140   0.142   0.150   0.152   0.153
  0.154   0.155   0.157   0.160   0.160   0.161   0.161   0.164
  0.167   0.174   0.176   0.178   0.179   0.180   0.180   0.183
  0.184   0.186   0.187   0.188   0.190   0.191   0.192   0.193
  0.195   0.198   0.199   0.200   0.201   0.202   0.208   0.208
  0.210   0.211   0.212   0.213   0.220   0.221   0.222   0.223
  0.225   0.227   0.227   0.230   0.231   0.234   0.235   0.236
  0.237   0.239   0.239   0.243   0.245   0.248   0.249   0.249
  0.251   0.251   0.251   0.252   0.253   0.255   0.256   0.257
  0.258   0.259   0.263   0.264   0.265   0.271   0.273   0.275
  0.276   0.276   0.277   0.279   0.282   0.286   0.290   0.292
  0.295   0.298   0.302   0.303   0.304   0.309   0.313   0.314
  0.317   0.318   0.318   0.319   0.323   0.325   0.327   0.329
  0.333   0.335   0.344   0.346   0.355   0.359   0.364   0.369
  0.371   0.373   0.376   0.377   0.380   0.384   0.387   0.391
  0.394   0.395   0.400   0.408   0.411   0.412   0.413   0.418
  0.419   0.422   0.430   0.432   0.436   0.444   0.450   0.451
  0.455   0.457   0.463   0.465   0.465   0.469   0.470   0.472
  0.476   0.482   0.484   0.485   0.489   0.493   0.494   0.495
  0.498   0.499   0.499   0.505   0.508   0.510   0.511   0.512
  0.515   0.516   0.519   0.520   0.521   0.522   0.524   0.525
  0.526   0.527   0.528   0.529   0.533   0.533   0.535   0.540
  0.541   0.544   0.545   0.546   0.547   0.550   0.554   0.555
  0.555   0.557   0.559   0.560   0.561   0.565   0.570   0.570
  0.574   0.577   0.578   0.580   0.581   0.583   0.584   0.585
  0.585   0.587   0.587   0.589   0.589   0.590   0.591   0.592
  0.593   0.594   0.594   0.596   0.599   0.601   0.603   0.603
  0.608   0.609   0.612   0.613   0.614   0.615   0.616   0.616
  0.619   0.621   0.623   0.624   0.625   0.627   0.628   0.630
  0.631   0.634   0.634   0.635   0.639   0.640   0.640   0.641
  0.644   0.647   0.648   0.650   0.650   0.651   0.652   0.655
  0.657   0.659   0.663   0.664   0.669   0.671   0.675   0.677
  0.680   0.682   0.682   0.685   0.688   0.691   0.694   0.694
  0.696   0.697   0.700   0.703   0.704   0.708   0.711   0.715
  0.717   0.723   0.724   0.726   0.726   0.727   0.728   0.729
  0.731   0.734   0.737   0.739   0.742   0.744   0.747   0.751
  0.754   0.755   0.756   0.757   0.758   0.758   0.760   0.765
  0.769   0.770   0.773   0.774   0.777   0.780   0.781   0.783
  0.783   0.787   0.791   0.794   0.796   0.801   0.802   0.806
  0.808   0.810   0.815   0.817   0.819   0.827   0.829   0.831
  0.835   0.837   0.841   0.845   0.852   0.857   0.864   0.865
  0.872   0.876   0.877   0.881   0.885   0.901   0.904   0.906
  0.908   0.909   0.912   0.914   0.921   0.923   0.930   0.936
  0.942   0.944   0.944   0.948   0.949   0.951   0.953   0.959
  0.959   0.963   0.965   0.968   0.969   0.972   0.978   0.980
  0.981   0.981   0.982   0.984   0.987   0.993   0.993   0.995
  0.996   0.999   1.002   1.009   1.009   1.012   1.014   1.016
  1.018   1.018   1.020   1.022   1.027   1.028   1.029   1.032
  1.033   1.036   1.037   1.039   1.042   1.043   1.049   1.050
  1.052   1.054   1.056   1.057   1.058   1.059   1.060   1.061
  1.064   1.067   1.068   1.068   1.070   1.070   1.070   1.071
  1.075   1.080   1.082   1.084   1.085   1.087   1.090   1.093
  1.095   1.097   1.101   1.105   1.108   1.108   1.113   1.116
  1.118   1.118   1.124   1.126   1.130   1.132   1.135   1.138
  1.140   1.142   1.144   1.148   1.149   1.150   1.151   1.155
  1.157   1.161   1.163   1.165   1.167   1.169   1.178   1.182
  1.185   1.186   1.190   1.197   1.198   1.202   1.206   1.211
  1.211   1.220   1.228   1.232   1.233   1.239   1.242   1.246
  1.251   1.252   1.256   1.259   1.264   1.265   1.270   1.279
  1.283   1.284   1.285   1.292   1.294   1.296   1.301   1.304
  1.308   1.310   1.313   1.316   1.317   1.324   1.326   1.329
  1.331   1.333   1.336   1.340   1.342   1.351   1.354   1.354
  1.356   1.361   1.362   1.366   1.369   1.371   1.375   1.376
  1.381   1.387   1.389   1.393   1.395   1.399   1.403   1.405
  1.408   1.408   1.411   1.417   1.419   1.424   1.436   1.437
  1.438   1.440   1.442   1.447   1.450   1.450   1.452   1.454
  1.455   1.458   1.459   1.472   1.476   1.484   1.496   1.501
  1.506   1.507   1.508   1.509   1.510   1.512   1.513   1.514
  1.519   1.523   1.526   1.527   1.528   1.530   1.532   1.535
  1.538   1.542   1.544   1.545   1.547   1.548   1.549   1.553
  1.554   1.556   1.558   1.560   1.563   1.568   1.568   1.569
  1.573   1.574   1.575   1.578   1.578   1.579   1.584   1.593
  1.597   1.600   1.605   1.609   1.613   1.619   1.622   1.629
  1.632   1.637   1.649   1.651   1.663   1.670   1.687   1.693
  1.699   1.725   1.739   1.742   1.746   1.748   1.771   1.776
  1.788   1.790   1.800   1.802   1.803   1.804   1.806   1.810
  1.811   1.813   1.815   1.821   1.823   1.828   1.828   1.833
  1.836   1.843   1.844   1.850   1.854   1.860   1.882   1.883
  1.888   1.891   1.896   1.898   1.901   1.903   1.905   1.907
  1.908   1.911   1.914   1.915   1.917   1.920   1.923   1.924
  1.926   1.931   1.933   1.936   1.940   1.943   1.944   1.949
  1.949   1.951   1.952   1.954   1.958   1.960   1.964   1.964
  1.967   1.969   1.972   1.976   1.978   1.979   1.981   1.983
  1.988   1.988   1.992   2.008   2.012   2.017   2.020   2.028
  2.033   2.039   2.046   2.052   2.059   2.063   2.066   2.066
  2.068   2.079   2.081   2.084   2.085   2.087   2.098   2.103
  2.106   2.106   2.116   2.128   2.129   2.133   2.136   2.137
  2.142   2.144   2.145   2.147   2.150   2.151   2.154   2.164
  2.168   2.169   2.174   2.179   2.180   2.182   2.189   2.190
  2.196   2.197   2.199   2.212   2.218   2.220   2.221   2.225
  2.227   2.228   2.232   2.237   2.238   2.240   2.246   2.247
  2.253   2.255   2.257   2.260   2.264   2.266   2.269   2.271
  2.274   2.275   2.277   2.278   2.280   2.285   2.286   2.294
  2.299   2.302   2.308   2.311   2.315   2.317   2.318   2.333
  2.334   2.335   2.340   2.342   2.344   2.345   2.346   2.348
  2.348   2.349   2.351   2.354   2.355   2.355   2.359   2.370
  2.371   2.373   2.378   2.382   2.383   2.389   2.390   2.393
  2.395   2.399   2.400   2.403   2.407   2.409   2.410   2.412
  2.414   2.417   2.419   2.420   2.427   2.431   2.433   2.436
  2.445   2.447   2.451   2.456   2.456   2.457   2.469   2.472
  2.475   2.481   2.485   2.489   2.492   2.494   2.495   2.495
  2.496   2.498   2.501   2.503   2.512   2.516   2.519   2.537
  2.547   2.550   2.564   2.578   2.583   2.589   2.604   2.623
  2.636   2.638   2.639   2.640   2.640   2.661   2.664   2.665
  2.666   2.671   2.679   2.683   2.702   2.703   2.709   2.714
  2.723   2.724   2.726   2.728   2.731   2.734   2.736   2.737
  2.740   2.742   2.743   2.749   2.764   2.772   2.774   2.776
  2.781   2.783   2.786   2.787   2.799   2.800   2.802   2.803
  2.805   2.806   2.806   2.807   2.809   2.816   2.819   2.821
  2.831   2.835   2.838   2.845   2.846   2.854   2.859   2.866
  2.875   2.883   2.887   2.897   2.898   2.901   2.906   2.908
  2.931   2.938   2.938   2.938   2.947   2.948   2.950   2.954
  2.954   2.956   2.965   2.966   2.979   2.987   2.994   2.998
  3.011   3.034   3.050   3.057   3.061   3.062   3.063   3.069
  3.077   3.084   3.129   3.135   3.143   3.232   3.252   3.254
  3.273   3.304   3.346   3.347   3.398   3.438   3.443   3.455
  3.464   3.468   3.478   3.485   3.488   3.490   3.568   3.574
  3.629   3.638   3.661   3.671   9.599   9.738  13.137  13.172
 13.237  13.242  13.428  13.432  13.437  13.494  13.505  13.516
 13.519  13.542  13.681  13.689  13.696  13.703  13.712  13.720
 13.733  13.773  13.776  13.786  13.789  13.797  13.853  13.856
 13.891  13.892  13.898  13.902  13.906  13.924  13.939  13.943
 13.945  13.999  14.000  14.006  14.007  14.018  14.023  14.033
 14.119  14.137  14.148  14.156  14.158  14.187  14.196  14.210
 14.215  14.233  14.240  14.244  14.246  14.259  14.262  14.276
 14.307  14.310  14.321  14.323  14.332  14.333  14.506  14.510
 14.555  14.559  14.574  14.577  14.578  14.581  14.585  14.603
 14.612  14.617  19.573  19.590
 --------------------------------------------------------------
 
          Ground-State Mulliken Net Atomic Charges

     Atom                 Charge (a.u.)
  ----------------------------------------
      1 C                     0.112904
      2 C                     0.324886
      3 N                    -0.737471
      4 C                     0.324613
      5 C                     0.114586
      6 C                    -0.405104
      7 C                     0.122198
      8 C                    -0.278949
      9 C                    -0.263933
     10 C                    -0.403128
     11 C                     0.121974
     12 C                    -0.280818
     13 C                    -0.264293
     14 C                     0.310003
     15 C                    -0.351251
     16 C                     0.044000
     17 C                    -0.211150
     18 C                     0.050061
     19 C                    -0.336442
     20 B                     0.691131
     21 C                    -0.151516
     22 C                    -0.390062
     23 C                     0.091922
     24 C                     0.115532
     25 C                    -0.394184
     26 C                    -0.143566
     27 C                     0.200676
     28 C                    -0.064946
     29 C                     0.194302
     30 C                     0.251087
     31 C                    -0.334985
     32 C                    -0.202683
     33 C                    -0.383972
     34 C                    -0.373994
     35 C                    -0.205652
     36 C                    -0.330002
     37 B                     0.680300
     38 C                    -0.149089
     39 C                    -0.397860
     40 C                     0.116711
     41 C                     0.091529
     42 C                    -0.383155
     43 C                    -0.147018
     44 C                     0.195146
     45 C                    -0.064875
     46 C                     0.200139
     47 C                     0.252027
     48 C                    -0.329926
     49 C                    -0.206511
     50 C                    -0.374994
     51 C                    -0.384896
     52 C                    -0.202266
     53 C                    -0.335416
     54 C                    -0.763917
     55 C                    -0.753275
     56 C                    -0.221092
     57 C                     0.060862
     58 C                    -0.375358
     59 C                     0.349192
     60 C                    -0.387585
     61 C                     0.052417
     62 N                    -0.736635
     63 C                     0.319451
     64 C                     0.118924
     65 C                     0.121010
     66 C                     0.315204
     67 C                    -0.407939
     68 C                     0.113259
     69 C                    -0.274819
     70 C                    -0.269586
     71 C                    -0.410406
     72 C                     0.113754
     73 C                    -0.275645
     74 C                    -0.267723
     75 C                    -0.756300
     76 C                    -0.764901
     77 H                     0.242035
     78 H                     0.208118
     79 H                     0.247584
     80 H                     0.209195
     81 C                    -0.708637
     82 H                     0.197932
     83 C                    -0.708590
     84 H                     0.198568
     85 H                     0.251606
     86 H                     0.243659
     87 H                     0.237629
     88 H                     0.244616
     89 H                     0.246488
     90 H                     0.240713
     91 H                     0.249634
     92 H                     0.248078
     93 H                     0.229426
     94 H                     0.232275
     95 H                     0.222764
     96 H                     0.221009
     97 H                     0.229613
     98 H                     0.222482
     99 H                     0.228552
    100 H                     0.222694
    101 H                     0.226905
    102 H                     0.231433
    103 H                     0.222890
    104 H                     0.219461
    105 H                     0.222904
    106 H                     0.229488
    107 H                     0.228628
    108 H                     0.222691
    109 H                     0.233877
    110 H                     0.235152
    111 H                     0.230122
    112 H                     0.207426
    113 H                     0.229848
    114 H                     0.206699
    115 C                    -0.708636
    116 H                     0.196069
    117 C                    -0.708688
    118 H                     0.196705
    119 H                     0.239658
    120 H                     0.246191
    121 H                     0.243037
    122 H                     0.242369
    123 H                     0.248870
    124 H                     0.248308
    125 H                     0.225201
    126 H                     0.227551
    127 H                     0.229102
    128 H                     0.225230
    129 H                     0.228553
    130 H                     0.228259
    131 H                     0.225830
    132 H                     0.228584
    133 H                     0.228978
    134 H                     0.225705
    135 H                     0.228524
    136 H                     0.229122
  ----------------------------------------
  Sum of atomic charges =    -0.000000

 -----------------------------------------------------------------
                    Cartesian Multipole Moments
 -----------------------------------------------------------------
    Charge (ESU x 10^10)
                -0.0000
    Dipole Moment (Debye)
         X      -0.0844      Y      -0.8705      Z       0.8365
       Tot       1.2102
    Quadrupole Moments (Debye-Ang)
        XX    -428.0020     XY     -18.0577     YY    -432.3891
        XZ     -23.0883     YZ      26.0285     ZZ    -451.3437
    Octopole Moments (Debye-Ang^2)
       XXX    6956.8308    XXY     916.9038    XYY    2401.1577
       YYY    1721.1267    XXZ    2174.9066    XYZ      -9.0478
       YYZ    1828.8671    XZZ    2582.7366    YZZ     408.6127
       ZZZ    6410.6353
    Hexadecapole Moments (Debye-Ang^3)
      XXXX -141864.6346   XXXY  -15088.8666   XXYY  -28445.7393
      XYYY  -11057.4146   YYYY  -25438.4374   XXXZ  -50772.3327
      XXYZ   -6521.6257   XYYZ  -16634.6634   YYYZ  -17433.5417
      XXZZ  -43270.1749   XYZZ   -3145.3952   YYZZ  -19787.5532
      XZZZ  -52722.4420   YZZZ  -16767.3947   ZZZZ -112885.7186
 -----------------------------------------------------------------
 Calculating analytic gradient of the CIS energy
 -2.445635977303296E-004 -2.445788724551339E-004
 -2.445465344779724E-004 -2.445959139088361E-004
 -2.445506656414408E-004 -2.445918363561261E-004
 -2.445852733346465E-004 -2.445572058833450E-004
 -2.445912797448407E-004 -2.445511662456695E-004
 -2.445932796318626E-004 -2.445492229393335E-004
 -2.445691609748662E-004 -2.445733450813632E-004
 -2.445817641080188E-004 -2.445606853266464E-004
 -2.445659398610255E-004 -2.445765793134102E-004
 -2.445948770292727E-004 -2.445476095752422E-004
 -2.445555785501995E-004 -2.445868667436211E-004
 -2.445733831072186E-004 -2.445691250990960E-004
 -2.445513213212265E-004 -2.445911563590668E-004
 -2.446006260005886E-004 -2.445418164090846E-004
 -2.445702829331993E-004 -2.445722160951669E-004
 -2.445733128878465E-004 -2.445691538833252E-004
 -2.445570596910905E-004 -2.445853900610730E-004
 -2.445641921968859E-004 -2.445783021870156E-004
 -2.445629182049973E-004 -2.445795499174458E-004
 -2.445910499645982E-004 -2.445514156770311E-004
 -2.445763100729057E-004 -2.445661662796280E-004
 -2.445912931226335E-004 -2.445511761763541E-004
 -2.445438119880098E-004 -2.445986530369363E-004
 -2.445680966403511E-004 -2.445743946975955E-004
 -2.445841477958883E-004 -2.445583505616498E-004
 -2.445897785692382E-004 -2.445526670900566E-004
 -2.445818289450579E-004 -2.445606711524931E-004
 -2.445724594154169E-004 -2.445700060694859E-004
 -2.445811031808963E-004 -2.445613479003304E-004
 -2.445819843620142E-004 -2.445605103900619E-004
 -2.445715319833639E-004 -2.445709275721747E-004
 -2.445503375336837E-004 -2.445921271386984E-004
 -2.445638522492040E-004 -2.445786494109074E-004
 -2.445789463131657E-004 -2.445635206701120E-004
 -2.445963384944559E-004 -2.445461259324634E-004
 -2.445968132632917E-004 -2.445456725103380E-004
 -2.445854916300058E-004 -2.445569788937232E-004
 -2.445623695675370E-004 -2.445800841348201E-004
 -2.445761543480940E-004 -2.445663486819395E-004
 -2.446060999021507E-004 -2.445363605302971E-004
 -2.445689755542188E-004 -2.445734704965059E-004
 -2.446064942750697E-004 -2.445359672236927E-004
 -2.445648028797290E-004 -2.445776408198343E-004
 -2.445770205578596E-004 -2.445654062334272E-004
 -2.445367921027058E-004 -2.446056785239227E-004
 -2.446159984713293E-004 -2.445264553590417E-004
 -2.445872609041227E-004 -2.445551840391814E-004
 -2.445935627985324E-004 -2.445488832308607E-004
 -2.445571637679326E-004 -2.445852846563603E-004
 -2.445763126634099E-004 -2.445661396049378E-004
 -2.445468622693743E-004 -2.445955896254227E-004
 -2.445852847802087E-004 -2.445571663560709E-004
 -2.445502661629051E-004 -2.445921730894517E-004
 -2.446193793466543E-004 -2.445230679822002E-004
 -2.445443975562124E-004 -2.445980748998748E-004
 -2.445728115441302E-004 -2.445696153568543E-004
 -2.445606946793152E-004 -2.445817442390302E-004
 -2.445647842773748E-004 -2.445776849865915E-004
 -2.445728730460430E-004 -2.445696374906595E-004
 -2.445761553603651E-004 -2.445663240482854E-004
 -2.445630526568840E-004 -2.445794177282595E-004
 -2.445606003091488E-004 -2.445819147645060E-004
 -2.445542292569529E-004 -2.445882552964202E-004
 -2.445685400416075E-004 -2.445739200052874E-004
 -2.445820652253687E-004 -2.445604522983855E-004
 -2.445793026594216E-004 -2.445631916704018E-004
 -2.445540550104957E-004 -2.445884156199394E-004
 -2.445806654145755E-004 -2.445618473242813E-004
 -2.445636166714201E-004 -2.445788659518612E-004
 -2.445759980346046E-004 -2.445664577104181E-004
 -2.445886201048862E-004 -2.445538956389263E-004
 -2.445902089814865E-004 -2.445522764633187E-004
 -2.445660807697724E-004 -2.445763895652963E-004
 -2.445752223747595E-004 -2.445672888447053E-004
 -2.445701024968083E-004 -2.445723809448773E-004
 -2.445880970651897E-004 -2.445543653355885E-004
 -2.445734492388012E-004 -2.445690619779623E-004
 -2.445873817388414E-004 -2.445551057188316E-004
 -2.445748606303999E-004 -2.445676024320876E-004
 -2.445838386435095E-004 -2.445586702112513E-004
 -2.445826694624828E-004 -2.445597994054345E-004
 -2.445633156688956E-004 -2.445791557722318E-004
 -2.445855896928638E-004 -2.445569293505118E-004
 -2.445762247524059E-004 -2.445662684829841E-004
 -2.445608668424097E-004 -2.445815851465022E-004
 -2.445794865857782E-004 -2.445630295141863E-004
 -2.445669620693146E-004 -2.445755177518438E-004
 -2.445940600065846E-004 -2.445483951783086E-004
 -2.445496202148851E-004 -2.445928781692372E-004
 -2.445582119414578E-004 -2.445842548814897E-004
 -2.445553879553498E-004 -2.445870552132396E-004
 -2.445844392578074E-004 -2.445580542516515E-004
 -2.445750643867587E-004 -2.445674107687589E-004
 -2.445958698534046E-004 -2.445465911091288E-004
 -2.445585611517626E-004 -2.445839438615306E-004
 -2.445715955145951E-004 -2.445708546446305E-004
 -2.445665919714728E-004 -2.445758624343665E-004
 -2.445939907691808E-004 -2.445485205235857E-004
 -2.445947841082531E-004 -2.445477040869936E-004
 -2.445448342052098E-004 -2.445976409404798E-004
 -2.445861756707608E-004 -2.445563271209963E-004
 -2.445683796152681E-004 -2.445741042936027E-004
 -2.445787620928753E-004 -2.445636810515171E-004
 -2.445531770364189E-004 -2.445893288447518E-004
 -2.445536921600078E-004 -2.445887770724928E-004
 -2.445627647185258E-004 -2.445796936478922E-004
 -2.445848709351604E-004 -2.445576112407704E-004
 -2.445817399773175E-004 -2.445607283890151E-004
 -2.445727547015506E-004 -2.445697120322283E-004
 -2.445645947628891E-004 -2.445779105206447E-004
 -2.445704736429755E-004 -2.445720139231196E-004
 -2.445772530239844E-004 -2.445652088952599E-004
 -2.445800085279725E-004 -2.445625148863461E-004
 -2.445924459909124E-004 -2.445500356822374E-004
 -2.445747885750899E-004 -2.445676636135603E-004
 -2.445632018302569E-004 -2.445793309424304E-004
 -2.445591681632258E-004 -2.445833214580118E-004
 -2.445918231102846E-004 -2.445506412968460E-004
 -2.445720095543890E-004 -2.445705150349993E-004
 -2.445762268658626E-004 -2.445662548247518E-004
 -2.445682696232341E-004 -2.445741768139660E-004
 -2.445552870206009E-004 -2.445872391014549E-004
 -2.445460420342622E-004 -2.445964412362098E-004
 -2.445739765357531E-004 -2.445684841241692E-004
 -2.445706933133873E-004 -2.445718345635825E-004
 -2.445742818453939E-004 -2.445681988213887E-004
 -2.445523208187791E-004 -2.445901339469667E-004
 -2.445634334978477E-004 -2.445790967272790E-004
 -2.445568723426743E-004 -2.445856118514227E-004
 -2.445748497407976E-004 -2.445676018010316E-004
 -2.445625365659275E-004 -2.445799864437149E-004
 -2.445571319566626E-004 -2.445853423385509E-004
 -2.445813093107658E-004 -2.445611481112497E-004
 -2.445659750466888E-004 -2.445765521560066E-004
 -2.445612289210852E-004 -2.445812757084720E-004
 -2.445882510973736E-004 -2.445541920367508E-004
 -2.445686083113832E-004 -2.445739141954535E-004
 -2.445688237342651E-004 -2.445736600189287E-004
 -2.445470809654847E-004 -2.445953648731379E-004
 -2.445875351794100E-004 -2.445549690187895E-004
 -2.445807620272218E-004 -2.445617098779373E-004
 -2.445895364314014E-004 -2.445528869695590E-004
 -2.445663883269083E-004 -2.445761186247594E-004
 -2.445682918558919E-004 -2.445742077813292E-004
 -2.445492040579401E-004 -2.445932450231101E-004
 -2.445755608213541E-004 -2.445669467659281E-004
 -2.445686342456862E-004 -2.445738255872686E-004
 -2.445717060181191E-004 -2.445707357908527E-004
 -2.445505859609784E-004 -2.445919343661673E-004
 -2.445444542803886E-004 -2.445980428890266E-004
 -2.446002998547726E-004 -2.445421684383261E-004
 -2.445653475970675E-004 -2.445771703910132E-004
 -2.445700850951551E-004 -2.445723944010533E-004
 -2.445613417474077E-004 -2.445811006055078E-004
 -2.445871211092346E-004 -2.445553904297914E-004
 -2.445877989286519E-004 -2.445546705691961E-004
 -2.445844769361456E-004 -2.445579668402831E-004
 -2.445629473560196E-004 -2.445795510764125E-004
 -2.445627778105298E-004 -2.445796866456266E-004
 -2.445661471816244E-004 -2.445763051655959E-004
 -2.445660969043027E-004 -2.445763307865750E-004
 -2.445782350206853E-004 -2.445642180253691E-004
 -2.445786152742918E-004 -2.445638281010284E-004
 -2.445926288961379E-004 -2.445498023044853E-004
 -2.445670259878353E-004 -2.445754377631706E-004
 -2.445900640923209E-004 -2.445523883858012E-004
 -2.445859355681730E-004 -2.445565204455027E-004
 -2.445807880779051E-004 -2.445616677287428E-004
 -2.445359455140329E-004 -2.446065104286959E-004
 -2.445329951828173E-004 -2.446094537758867E-004
 -2.445612206141102E-004 -2.445812278434972E-004
 -2.445986370965389E-004 -2.445438365739081E-004
 -2.445689197463176E-004 -2.445735111374554E-004
 -2.445792561276781E-004 -2.445631954993003E-004
 -2.445340646912746E-004 -2.446083902914062E-004
 -2.445550080962413E-004 -2.445874726267167E-004
 -2.445477805554185E-004 -2.445946643754341E-004
 -2.445828978169607E-004 -2.445595701977992E-004
 -2.446006653931040E-004 -2.445417881253807E-004
 -2.445857541249614E-004 -2.445566866313246E-004
 -2.445326759031042E-004 -2.446097782226056E-004
 -2.445771984573769E-004 -2.445652488048420E-004
 -2.445325089100881E-004 -2.446099519879656E-004
 -2.445837896802601E-004 -2.445586958966505E-004
 -2.445710227298747E-004 -2.445715165265314E-004
 -2.445710510403206E-004 -2.445713983331429E-004
 -2.445448595792362E-004 -2.445976003684947E-004
 -2.445625314753587E-004 -2.445799883644878E-004
 -2.445787478051906E-004 -2.445637066658244E-004
 -2.446020890458991E-004 -2.445403727096671E-004
 -2.445771682176361E-004 -2.445653515131924E-004
 -2.445506871931373E-004 -2.445917551182158E-004
 -2.445706967430092E-004 -2.445717601163334E-004
 -2.445741998848009E-004 -2.445683228482001E-004
 -2.446080474703127E-004 -2.445343964186200E-004
 -2.445626409236031E-004 -2.445798280342353E-004
 -2.445577016734392E-004 -2.445848230109341E-004
 -2.445412695797386E-004 -2.446011655954594E-004
 -2.445636394630239E-004 -2.445788084369335E-004
 -2.445720209886669E-004 -2.445704922568694E-004
 -2.445849262219313E-004 -2.445575257724903E-004
 -2.445842916227875E-004 -2.445581688771424E-004
 -2.445745508039705E-004 -2.445679462677969E-004
 -2.445524880188091E-004 -2.445899663428745E-004
 -2.445438193187375E-004 -2.445986279280656E-004
 -2.445712897813489E-004 -2.445712201690408E-004
 -2.445918455557987E-004 -2.445506225660032E-004
 -2.445671472325825E-004 -2.445753220835748E-004
 -2.445718316251141E-004 -2.445706875691240E-004
 -2.445452559881877E-004 -2.445971865984080E-004
 -2.445756679830603E-004 -2.445667937475511E-004
 -2.445693248085357E-004 -2.445731972647655E-004
 -2.445566188711011E-004 -2.445858127976979E-004
 -2.445633316398059E-004 -2.445791174740462E-004
 -2.445708826786566E-004 -2.445716284386163E-004
 -2.445944701959082E-004 -2.445479861909067E-004
 -2.445750891511477E-004 -2.445673736229959E-004
 -2.445610838895042E-004 -2.445814310053277E-004
 -2.445323626968870E-004 -2.446100797902726E-004
 -2.445556422328197E-004 -2.445868157961982E-004
 -2.445584751209797E-004 -2.445840549529429E-004
 -2.445810257075898E-004 -2.445614159713002E-004
 -2.445723411453664E-004 -2.445701259792415E-004
 -2.445806572311777E-004 -2.445617770055485E-004
 -2.445538374103086E-004 -2.445886007327240E-004
 -2.445676261964209E-004 -2.445748299640477E-004
 -2.445641366890192E-004 -2.445782893208203E-004
 -2.445739735953568E-004 -2.445684800730855E-004
 -2.445504326215290E-004 -2.445920088417547E-004
 -2.445677895191547E-004 -2.445746921513313E-004
 -2.445788616525086E-004 -2.445636080544414E-004
 -2.445648771721714E-004 -2.445775570025268E-004
 -2.445673860889557E-004 -2.445750737640880E-004
 -2.445601579329806E-004 -2.445822887765925E-004
 -2.445670687896246E-004 -2.445754033500734E-004
 -2.445606488457462E-004 -2.445818468918894E-004
 -2.445464366726661E-004 -2.445959990386954E-004
 -2.445579698467309E-004 -2.445844652907949E-004
 -2.445680609957802E-004 -2.445743910904661E-004
 -2.445689099664543E-004 -2.445735309527603E-004
 -2.445964221619826E-004 -2.445460167325827E-004
 -2.445796675208545E-004 -2.445628059836801E-004
 -2.445522681988471E-004 -2.445901627298613E-004
 -2.445746340521021E-004 -2.445678252402934E-004
 -2.445760126381495E-004 -2.445664742166243E-004
 -2.445904577263904E-004 -2.445519616319747E-004
 -2.445671888383399E-004 -2.445752506317937E-004
 -2.445775486681959E-004 -2.445649125947540E-004
 -2.446032589741236E-004 -2.445391830428175E-004
 -2.445883304972040E-004 -2.445540908222883E-004
 -2.445779737983828E-004 -2.445645041970317E-004
 -2.445658580582911E-004 -2.445766059631747E-004
 -2.445503060807575E-004 -2.445921578032035E-004
 -2.445827378373263E-004 -2.445596996624767E-004
 -2.445651075830757E-004 -2.445773168320871E-004
 -2.445712575725297E-004 -2.445712049404096E-004
 -2.445477905666260E-004 -2.445946182505770E-004
 -2.445611213158291E-004 -2.445813353496222E-004
 -2.445666063313577E-004 -2.445758608676827E-004
 -2.445687317584301E-004 -2.445736985848329E-004
 -2.445599651691524E-004 -2.445824824735477E-004
 -2.445581879206364E-004 -2.445842621665414E-004
 -2.445745804506864E-004 -2.445678710184213E-004
 -2.445708129468101E-004 -2.445716279331653E-004
 -2.445721181726282E-004 -2.445703346698553E-004
 -2.445633859925852E-004 -2.445790536617499E-004
 -2.445624712127705E-004 -2.445799872164260E-004
 -2.445537754129033E-004 -2.445886908802183E-004
 -2.445615521948790E-004 -2.445808793580793E-004
 -2.445645683710361E-004 -2.445778722973631E-004
 -2.445588089977807E-004 -2.445836529538841E-004
 -2.445770931599609E-004 -2.445653466789778E-004
 -2.445771956690598E-004 -2.445652585235587E-004
 -2.445777954315686E-004 -2.445646458027594E-004
 -2.445589651931387E-004 -2.445834825587538E-004
 -2.445591151443789E-004 -2.445833277936974E-004
 -2.445893434970672E-004 -2.445531141303475E-004
 -2.445772540339172E-004 -2.445652477343347E-004
 -2.445845477090753E-004 -2.445579225247510E-004
 -2.445601788198840E-004 -2.445822863920482E-004
 -2.445598215339803E-004 -2.445826723987194E-004
 -2.445567615388371E-004 -2.445857060370495E-004
 -2.445728126502119E-004 -2.445696310615489E-004
 -2.445538738957466E-004 -2.445886018441756E-004
 -2.445654435519546E-004 -2.445770321279600E-004
 -2.445839827116342E-004 -2.445584704308444E-004
 -2.445710885485355E-004 -2.445713931063527E-004
 -2.445729745429446E-004 -2.445694830674315E-004
 -2.445753139676341E-004 -2.445671158741589E-004
 -2.445629373014557E-004 -2.445795288961072E-004
 -2.445667677908802E-004 -2.445756682576471E-004
 -2.445591687698913E-004 -2.445832618934714E-004
 -2.445807826533472E-004 -2.445616914248565E-004
 -2.445774225982372E-004 -2.445650570759162E-004
 -2.445803917721423E-004 -2.445620402830223E-004
 -2.445666891665507E-004 -2.445757759937068E-004
 -2.445666700097279E-004 -2.445757821366327E-004
 -2.445578049801739E-004 -2.445846438028700E-004
 -2.445798960769193E-004 -2.445625718436657E-004
 -2.445772845094896E-004 -2.445651789652841E-004
 -2.445551679653685E-004 -2.445872933490031E-004
 -2.445709885004676E-004 -2.445715021157742E-004
 -2.445563472212825E-004 -2.445861267394151E-004
 -2.445823615185618E-004 -2.445601063854055E-004
 -2.445763516837808E-004 -2.445661390178001E-004
 -2.445897339586439E-004 -2.445527310884542E-004
 -2.445696526586572E-004 -2.445727985256363E-004
 -2.445728242680784E-004 -2.445696563685508E-004
 -2.445866051122357E-004 -2.445558520387962E-004
 -2.445608722870904E-004 -2.445815852045376E-004
 -2.445754204077888E-004 -2.445670521931396E-004
 -2.445681571386312E-004 -2.445743041124753E-004
 -2.445810743380794E-004 -2.445613687542058E-004
 -2.445594618634785E-004 -2.445829982460695E-004
 -2.445637590521576E-004 -2.445787190164438E-004
 -2.445628603056237E-004 -2.445795906092051E-004
 -2.445786741594039E-004 -2.445637768660579E-004
 -2.445781083247147E-004 -2.445643289771679E-004
 -2.445638905266317E-004 -2.445785409683837E-004
 -2.445781426981817E-004 -2.445643205103554E-004
 -2.445753533899866E-004 -2.445670957869980E-004
 -2.445824655294016E-004 -2.445599956742350E-004
 -2.445596383423459E-004 -2.445828139147387E-004
 -2.445658280019268E-004 -2.445766394971049E-004
 -2.445878144932995E-004 -2.445546147930269E-004
 -2.445720381760301E-004 -2.445703848212803E-004
 -2.445749529574586E-004 -2.445675087239687E-004
 -2.445653218979587E-004 -2.445771406444325E-004
 -2.445720477544884E-004 -2.445703774965410E-004
 -2.445950874338460E-004 -2.445473464220109E-004
 -2.445870462519606E-004 -2.445554211554283E-004
 -2.445894344204872E-004 -2.445530247790180E-004
 -2.445833379814462E-004 -2.445591392935712E-004
 -2.445828451433846E-004 -2.445596015579156E-004
 -2.445702492101528E-004 -2.445721944484745E-004
 -2.445752284177167E-004 -2.445672166512147E-004
 -2.445881741624692E-004 -2.445542915001080E-004
 -2.445583308398932E-004 -2.445841273061612E-004
 -2.445745517426000E-004 -2.445679289027324E-004
 -2.445763514245904E-004 -2.445660908853288E-004
 -2.445750541629109E-004 -2.445673956605978E-004
 -2.445820220526806E-004 -2.445604284575983E-004
 -2.445650134636701E-004 -2.445774269388248E-004
 -2.445427438949912E-004 -2.445997033793323E-004
 -2.445549788864049E-004 -2.445874761751707E-004
 -2.445562918899289E-004 -2.445861442337588E-004
 -2.445827824664508E-004 -2.445596708652553E-004
 -2.445689754968859E-004 -2.445734973619651E-004
 -2.445519561518388E-004 -2.445904755713998E-004
 -2.445983602975856E-004 -2.445440860714293E-004
 -2.445756548742204E-004 -2.445668098293761E-004
 -2.445617746789348E-004 -2.445806785379310E-004
 -2.445563093848119E-004 -2.445861446684662E-004
 -2.445584904249405E-004 -2.445839691961067E-004
 -2.445756264424514E-004 -2.445668278778756E-004
 -2.445795754051877E-004 -2.445628575229378E-004
 -2.445772439904045E-004 -2.445652132320436E-004
 -2.445690788017254E-004 -2.445733632642338E-004
 -2.445776533706588E-004 -2.445648009005165E-004
 -2.445817881456861E-004 -2.445606628018448E-004
 -2.445822682074125E-004 -2.445601882047445E-004
 -2.445683489907497E-004 -2.445740862503824E-004
 -2.445715108499506E-004 -2.445709452079567E-004
 -2.445791552810896E-004 -2.445632929907171E-004
 -2.445665748822596E-004 -2.445758511056781E-004
 -2.445901306291246E-004 -2.445523295674830E-004
 -2.445632244014251E-004 -2.445792212726976E-004
 -2.445818281758672E-004 -2.445606084973460E-004
 -2.445854704156666E-004 -2.445569821613516E-004
 -2.445820215406099E-004 -2.445604377898482E-004
 -2.445614465959564E-004 -2.445810016283924E-004
 -2.445704093290836E-004 -2.445720383034190E-004
 -2.445680158934264E-004 -2.445744310918187E-004
 -2.445634257394629E-004 -2.445790095822542E-004
 -2.445668566750140E-004 -2.445755943063999E-004
 -2.445720168373450E-004 -2.445704142729027E-004
 -2.445614100387979E-004 -2.445810384418135E-004
 -2.445737836158877E-004 -2.445686632066892E-004
 -2.445806451748205E-004 -2.445617801118820E-004
 -2.445668379323951E-004 -2.445756222539328E-004
 -2.445698187430040E-004 -2.445726277858124E-004
 -2.445664602171054E-004 -2.445759808472878E-004
 -2.445756704499448E-004 -2.445667656838006E-004
 -2.445714396265990E-004 -2.445710144487853E-004
 -2.445762266537908E-004 -2.445662092459472E-004
 -2.445802693041083E-004 -2.445621806703470E-004
 -2.445710843581643E-004 -2.445713652580273E-004
 -2.445682643659725E-004 -2.445741772498251E-004
 -2.445762975916310E-004 -2.445661592787039E-004
 -2.445804912113525E-004 -2.445619394540811E-004
 -2.445766939245353E-004 -2.445657392637219E-004
 -2.445734000002266E-004 -2.445690593862326E-004
 -2.445681349310401E-004 -2.445743058796146E-004
 -2.445709077411114E-004 -2.445715372402596E-004
 -2.445767454520380E-004 -2.445657018615591E-004
 -2.445625599825953E-004 -2.445798776069254E-004
 -2.445736771955857E-004 -2.445687668851661E-004
 -2.445640005657830E-004 -2.445784401472602E-004
 -2.445645625843007E-004 -2.445778855153925E-004
 -2.445707161721563E-004 -2.445717319728440E-004
 -2.445732072349948E-004 -2.445692557226758E-004
 -2.445788980999593E-004 -2.445635252850323E-004
 -2.445673307334966E-004 -2.445751063336552E-004
 -2.445641600123854E-004 -2.445782833547460E-004
 -2.445758556470774E-004 -2.445665961160165E-004
 -2.445619083096046E-004 -2.445805203455667E-004
 -2.445745934553850E-004 -2.445678571362032E-004
 -2.445742925876421E-004 -2.445681576731790E-004
 CIS relaxed dipole moment
            1
    1   8.1553327
    2   3.2233747
    3   6.7663105
	Magnitude:	11.076 au	28.153 Debye
 CIS 1 State Energy is -3082.3657212526
 Gradient of the state energy (including CIS Excitation Energy)
            1           2           3           4           5           6
    1   0.0000863   0.0000049   0.0001110  -0.0000650  -0.0000642   0.0000865
    2  -0.0000246   0.0001285  -0.0002144  -0.0000029  -0.0000239   0.0000209
    3  -0.0001206  -0.0001212   0.0002261  -0.0000173   0.0000352   0.0000392
            7           8           9          10          11          12
    1   0.0000643  -0.0000225  -0.0000289   0.0000513   0.0000742   0.0000220
    2  -0.0000126   0.0000438   0.0000323   0.0000146  -0.0000992  -0.0000262
    3   0.0000372   0.0000178   0.0000592   0.0001607   0.0000378  -0.0000376
           13          14          15          16          17          18
    1  -0.0000597  -0.0001529   0.0000732  -0.0000033  -0.0001225  -0.0000288
    2  -0.0000552  -0.0000239  -0.0000089   0.0000581  -0.0000359   0.0000182
    3   0.0000579  -0.0001014   0.0000027   0.0000078   0.0001808  -0.0000969
           19          20          21          22          23          24
    1   0.0000263   0.0003019  -0.0001542  -0.0000021   0.0000877  -0.0000084
    2   0.0000291   0.0000067  -0.0000079  -0.0000122   0.0000109  -0.0000105
    3  -0.0000613  -0.0001859   0.0000812   0.0000353   0.0000831  -0.0000969
           25          26          27          28          29          30
    1   0.0000512  -0.0002291  -0.0000077   0.0000118  -0.0000458  -0.0000076
    2  -0.0000019   0.0001146  -0.0000080  -0.0000347   0.0000146  -0.0000090
    3   0.0000311   0.0000707   0.0000593  -0.0000022  -0.0000280   0.0000036
           31          32          33          34          35          36
    1   0.0000111  -0.0000079  -0.0000004   0.0000030   0.0000098  -0.0000066
    2   0.0000097   0.0000009   0.0000020   0.0000054   0.0000006  -0.0000055
    3   0.0000071  -0.0000064  -0.0000040   0.0000029   0.0000166  -0.0000062
           37          38          39          40          41          42
    1   0.0001489   0.0001000  -0.0000318  -0.0000207   0.0000445  -0.0000151
    2  -0.0000923  -0.0000076   0.0000417   0.0000257  -0.0000050   0.0000125
    3  -0.0000388   0.0000411   0.0000076  -0.0000743   0.0000754  -0.0000006
           43          44          45          46          47          48
    1  -0.0000418  -0.0000040  -0.0000209   0.0000387  -0.0000041  -0.0000049
    2  -0.0000535  -0.0000143   0.0000126  -0.0000225  -0.0000073   0.0000124
    3  -0.0000361  -0.0000453   0.0000183   0.0000358  -0.0000088  -0.0000066
           49          50          51          52          53          54
    1   0.0000129  -0.0000008  -0.0000213  -0.0000017   0.0000118  -0.0000589
    2   0.0000036   0.0000208   0.0000104  -0.0000068   0.0000166  -0.0000169
    3   0.0000067  -0.0000059  -0.0000003  -0.0000143   0.0000010  -0.0000015
           55          56          57          58          59          60
    1   0.0000095  -0.0000960   0.0000106  -0.0000360  -0.0000959  -0.0000209
    2  -0.0000466   0.0000678  -0.0001314   0.0000031   0.0000317   0.0000745
    3   0.0000079  -0.0000510   0.0001017   0.0000111  -0.0000663  -0.0000606
           61          62          63          64          65          66
    1   0.0001235   0.0000387   0.0000843   0.0000059   0.0000561   0.0000573
    2   0.0000170  -0.0000161   0.0000961   0.0000676  -0.0000006  -0.0000167
    3   0.0000405   0.0000009  -0.0000139   0.0000097  -0.0000080   0.0000909
           67          68          69          70          71          72
    1  -0.0001126   0.0001209  -0.0000619  -0.0001030  -0.0000679  -0.0000678
    2  -0.0000255   0.0000115  -0.0000566  -0.0000379  -0.0000410   0.0000066
    3  -0.0000249  -0.0001154  -0.0001007   0.0000860  -0.0000946   0.0001191
           73          74          75          76          77          78
    1  -0.0001270   0.0000733   0.0000171  -0.0000048   0.0000404   0.0000181
    2  -0.0000272   0.0000057  -0.0000382  -0.0000253   0.0000166   0.0000344
    3  -0.0000363  -0.0001481  -0.0000402  -0.0000279  -0.0000064   0.0000095
           79          80          81          82          83          84
    1  -0.0000000   0.0000332   0.0000696  -0.0000042  -0.0000078   0.0000177
    2   0.0000189   0.0000244   0.0000115   0.0000349   0.0000343   0.0000086
    3   0.0000493   0.0000073  -0.0000436   0.0000048   0.0000526  -0.0000034
           85          86          87          88          89          90
    1   0.0000003  -0.0000101   0.0000338   0.0000018  -0.0000086  -0.0000001
    2   0.0000018   0.0000027   0.0000247   0.0000108   0.0000270   0.0000238
    3  -0.0000221   0.0000074   0.0000021  -0.0000088   0.0000028  -0.0000015
           91          92          93          94          95          96
    1   0.0000022  -0.0000122  -0.0000151  -0.0000059  -0.0000041   0.0000037
    2   0.0000177  -0.0000131   0.0000105  -0.0000186  -0.0000093   0.0000145
    3  -0.0000143   0.0000238   0.0000046   0.0000383   0.0000064  -0.0000047
           97          98          99         100         101         102
    1  -0.0000024   0.0000012   0.0000027   0.0000010   0.0000019   0.0000147
    2  -0.0000020  -0.0000003   0.0000121   0.0000022   0.0000167   0.0000002
    3  -0.0000009   0.0000004  -0.0000021   0.0000005  -0.0000227  -0.0000222
          103         104         105         106         107         108
    1   0.0000087  -0.0000001  -0.0000004   0.0000042  -0.0000026  -0.0000015
    2  -0.0000000  -0.0000145  -0.0000030   0.0000027  -0.0000080  -0.0000053
    3  -0.0000007   0.0000044   0.0000060   0.0000026   0.0000036   0.0000058
          109         110         111         112         113         114
    1  -0.0000267   0.0000048   0.0000210   0.0000067   0.0000086   0.0000231
    2   0.0000037  -0.0000244   0.0000066  -0.0000094  -0.0000098  -0.0000091
    3   0.0000174  -0.0000041  -0.0000149   0.0000142  -0.0000102   0.0000293
          115         116         117         118         119         120
    1  -0.0000345  -0.0000212  -0.0000770  -0.0000561  -0.0000113   0.0000424
    2  -0.0000326  -0.0000079   0.0000501  -0.0000096   0.0000162   0.0000424
    3  -0.0000486   0.0000230  -0.0000533  -0.0000234   0.0000480  -0.0000030
          121         122         123         124         125         126
    1  -0.0000277   0.0000146   0.0000419  -0.0000227   0.0000088  -0.0000584
    2  -0.0000303   0.0000133  -0.0000026  -0.0000214  -0.0000104   0.0000077
    3  -0.0000238  -0.0000015  -0.0000066  -0.0000076  -0.0000083  -0.0000104
          127         128         129         130         131         132
    1  -0.0000321  -0.0000133  -0.0000252  -0.0000196   0.0000041   0.0000143
    2  -0.0000055  -0.0000205  -0.0000421  -0.0000362   0.0000248   0.0000172
    3   0.0000233   0.0000005   0.0000007  -0.0000104   0.0000206   0.0000070
          133         134         135         136
    1   0.0000040   0.0000192   0.0000180   0.0000212
    2   0.0000239   0.0000090   0.0000219   0.0000157
    3   0.0000166  -0.0000236  -0.0000174  -0.0000128
 Gradient time:  CPU 5127.01 s  wall 762.69 s
 Geometry Optimization Parameters
   NAtoms,    NIC,     NZ,  NCons,   NDum,   NFix, NCnnct, MaxDiis
      136    1088       0       0       0       0       0       0


** GEOMETRY OPTIMIZATION IN DELOCALIZED INTERNAL COORDINATES **
   Searching for a Minimum

   Optimization Cycle:   1

                       Coordinates (Angstroms)
     ATOM                X               Y               Z
      1  C       -12.2702480000   -1.9044160000  -10.7830290000
      2  C       -11.3750060000   -1.4826590000   -9.7879180000
      3  N       -10.4162040000   -2.4584880000   -9.6061870000
      4  C       -10.6885540000   -3.5055960000  -10.4566450000
      5  C       -11.8315250000   -3.2034930000  -11.2111140000
      6  C       -12.3163050000   -4.1270050000  -12.1347070000
      7  C       -11.6709370000   -5.3385250000  -12.3098510000
      8  C       -10.5229560000   -5.6079330000  -11.5473560000
      9  C       -10.0180560000   -4.7134020000  -10.6242400000
     10  C       -13.3615840000   -1.1110110000  -11.1205440000
     11  C       -13.5666850000    0.0923110000  -10.4705210000
     12  C       -12.6584590000    0.4856900000   -9.4743050000
     13  C       -11.5651310000   -0.2806570000   -9.1181490000
     14  C        -9.4035070000   -2.4385620000   -8.6250550000
     15  C        -8.4155830000   -1.4700070000   -8.6785920000
     16  C        -7.4491650000   -1.3996550000   -7.6842350000
     17  C        -7.4577080000   -2.3196290000   -6.6264520000
     18  C        -8.4356300000   -3.3219780000   -6.6073470000
     19  C        -9.4080560000   -3.3707770000   -7.5997310000
     20  B        -6.4168710000   -2.1331270000   -5.4527130000
     21  C        -5.0255910000   -2.7704110000   -5.4968240000
     22  C        -4.7001650000   -3.6863350000   -6.5083880000
     23  C        -3.4666730000   -4.2904550000   -6.5369540000
     24  C        -2.4863330000   -3.9783120000   -5.5498200000
     25  C        -2.7783550000   -3.0629320000   -4.5669020000
     26  C        -4.0478070000   -2.4471560000   -4.5051220000
     27  C        -1.3057910000   -4.7993490000   -5.8228200000
     28  C        -1.6154280000   -5.5730000000   -6.9607900000
     29  C        -2.9154000000   -5.2983540000   -7.4296340000
     30  C        -0.7665190000   -6.5159120000   -7.5344570000
     31  C         0.4927760000   -6.6767990000   -6.9099150000
     32  C         0.8085330000   -5.9283370000   -5.7993990000
     33  C        -0.0790820000   -4.9834030000   -5.2363810000
     34  C        -3.3820040000   -5.9892270000   -8.5213340000
     35  C        -2.5366510000   -6.9447900000   -9.1268890000
     36  C        -1.2693540000   -7.2113460000   -8.6616350000
     37  B        -4.4120620000   -1.4465220000   -3.4086120000
     38  C        -5.8239620000   -0.8806050000   -3.2796130000
     39  C        -6.1969300000   -0.0243030000   -2.2195780000
     40  C        -7.4819560000    0.4551810000   -2.1215400000
     41  C        -8.4428300000    0.0935640000   -3.1105010000
     42  C        -8.0955640000   -0.7203410000   -4.1601270000
     43  C        -6.7932670000   -1.2294650000   -4.2704140000
     44  C        -9.7122910000    0.7162410000   -2.7706320000
     45  C        -9.4918650000    1.4401930000   -1.5833520000
     46  C        -8.1561220000    1.3162930000   -1.1467720000
     47  C       -10.4781750000    2.1720060000   -0.9275910000
     48  C       -11.7645920000    2.1670040000   -1.5202840000
     49  C       -11.9860170000    1.4616850000   -2.6807770000
     50  C       -10.9687340000    0.7245820000   -3.3258350000
     51  C        -7.7976440000    1.9671220000    0.0065980000
     52  C        -8.7757250000    2.7214310000    0.6945980000
     53  C       -10.0755500000    2.8307320000    0.2573500000
     54  C        -6.3952770000   -0.3310210000   -7.7503920000
     55  C        -8.4548780000   -4.3301680000   -5.4930290000
     56  C        -3.2704260000   -0.9327530000   -2.4454540000
     57  C        -2.9598340000   -1.5995130000   -1.2389070000
     58  C        -1.9202480000   -1.1524050000   -0.4489850000
     59  C        -1.1615370000   -0.0508870000   -0.8589140000
     60  C        -1.4711920000    0.6287380000   -2.0424680000
     61  C        -2.5224120000    0.2046560000   -2.8249650000
     62  N        -0.0800930000    0.3777670000   -0.1003910000
     63  C        -0.0677350000    0.5836640000    1.2688220000
     64  C         1.1849690000    1.0927580000    1.6425590000
     65  C         1.9724550000    1.1899490000    0.4274110000
     66  C         1.1516160000    0.7343180000   -0.6146800000
     67  C         1.4121520000    1.4393670000    2.9573960000
     68  C         0.3923620000    1.2825710000    3.8995840000
     69  C        -0.8546150000    0.7970880000    3.4878240000
     70  C        -1.1126660000    0.4549280000    2.1752880000
     71  C         3.2590760000    1.6004810000    0.1465600000
     72  C         3.7320200000    1.5496670000   -1.1681510000
     73  C         2.9020260000    1.0461880000   -2.1773170000
     74  C         1.6146950000    0.6197710000   -1.9224450000
     75  C        -3.7489050000   -2.8133640000   -0.8563850000
     76  C        -2.8861840000    0.9448980000   -4.0752200000
     77  H        -2.0953170000    0.1243630000    1.8701840000
     78  H        -1.6489550000    0.7041000000    4.2169600000
     79  H         1.0051780000    0.2010900000   -2.7104710000
     80  H         3.2838340000    0.9779300000   -3.1878050000
     81  C         5.1161410000    2.0062920000   -1.5080770000
     82  H         3.9080240000    1.9584110000    0.9356710000
     83  C         0.6072810000    1.6526770000    5.3338710000
     84  H         2.3675530000    1.8480300000    3.2610160000
     85  H        -0.9233320000    1.5239230000   -2.3090470000
     86  H        -1.6376870000   -1.7004730000    0.4409410000
     87  H        -3.4231970000   -3.2338160000    0.0946570000
     88  H        -4.8104200000   -2.5728540000   -0.7815640000
     89  H        -3.6619720000   -3.5869440000   -1.6202530000
     90  H        -2.2282780000    1.7955200000   -4.2508040000
     91  H        -3.9129350000    1.3085260000   -4.0255300000
     92  H        -2.8331940000    0.2836880000   -4.9411190000
     93  H        -5.4626850000    0.2515630000   -1.4690150000
     94  H        -8.8342830000   -0.9781820000   -4.9122550000
     95  H       -11.1951250000    0.1819510000   -4.2356800000
     96  H        -6.7902650000    1.9157710000    0.4003340000
     97  H       -12.9764950000    1.4673270000   -3.1182340000
     98  H       -12.5762560000    2.7162060000   -1.0589580000
     99  H        -8.4868640000    3.2325450000    1.6041890000
    100  H       -10.7893500000    3.4196380000    0.8204160000
    101  H        -5.4423270000   -3.9226830000   -7.2650870000
    102  H        -2.0259860000   -2.8270990000   -3.8206390000
    103  H         0.2186510000   -4.4322260000   -4.3531860000
    104  H        -4.3753010000   -5.8234350000   -8.9201610000
    105  H         1.2046500000   -7.3936930000   -7.3005760000
    106  H         1.7742460000   -6.0712590000   -5.3313180000
    107  H        -2.9055010000   -7.4899050000   -9.9866250000
    108  H        -0.6587450000   -7.9579780000   -9.1544830000
    109  H        -8.4096910000   -0.7652670000   -9.5021780000
    110  H       -10.1868030000   -4.1248630000   -7.5667580000
    111  H       -10.8891600000    0.0425520000   -8.3378010000
    112  H       -12.8237600000    1.4244250000   -8.9582980000
    113  H        -9.1327270000   -4.9520900000  -10.0499160000
    114  H       -10.0144110000   -6.5556460000  -11.6840850000
    115  C       -12.1795820000   -6.3593500000  -13.2884480000
    116  H       -13.2060760000   -3.9019230000  -12.7125720000
    117  C       -14.7419240000    0.9653460000  -10.8077170000
    118  H       -14.0583390000   -1.4431370000  -11.8825520000
    119  H        -9.2715580000   -5.0427140000   -5.6087490000
    120  H        -8.5698210000   -3.8452660000   -4.5216780000
    121  H        -7.5208450000   -4.8937800000   -5.4541600000
    122  H        -6.5245370000    0.3056200000   -8.6258550000
    123  H        -6.4220590000    0.3074900000   -6.8654720000
    124  H        -5.3956570000   -0.7663950000   -7.7977460000
    125  H       -15.3544300000    0.5206250000  -11.5917230000
    126  H       -15.3869790000    1.1250580000   -9.9415680000
    127  H       -14.4258260000    1.9490320000  -11.1595060000
    128  H       -13.0719020000   -6.0065420000  -13.8050020000
    129  H       -11.4334220000   -6.5948450000  -14.0495620000
    130  H       -12.4396970000   -7.2967040000  -12.7928490000
    131  H         1.6142340000    2.0254550000    5.5110910000
    132  H        -0.0938670000    2.4271360000    5.6478690000
    133  H         0.4510760000    0.7936380000    5.9876210000
    134  H         5.6508480000    2.3728280000   -0.6340450000
    135  H         5.7020780000    1.1944220000   -1.9411000000
    136  H         5.0913420000    2.8113050000   -2.2439300000
   Point Group: c1    Number of degrees of freedom:   402


   Energy is  -3082.365721253


 Attempting to Generate Delocalized Internal Coordinates

402 Hessian modes will be used to form the next step
  Hessian Eigenvalues:
     0.008198    0.008233    0.008803    0.008806    0.008867    0.008869
     0.009469    0.009515    0.009605    0.009627    0.012697    0.013454
     0.014300    0.014859    0.016676    0.016853    0.017089    0.017134
     0.017330    0.017400    0.017403    0.017439    0.017524    0.017588
     0.017606    0.017642    0.017691    0.017728    0.017872    0.017942
     0.018161    0.018270    0.018363    0.018594    0.018964    0.019292
     0.019352    0.019454    0.019588    0.019778    0.020202    0.020432
     0.020458    0.020684    0.020720    0.020733    0.021010    0.021046
     0.021267    0.021269    0.021290    0.021323    0.021330    0.021471
     0.021494    0.021512    0.021568    0.021569    0.021686    0.021714
     0.021805    0.021826    0.021867    0.021899    0.022278    0.022296
     0.022525    0.022538    0.022558    0.022692    0.022696    0.022937
     0.022953    0.022967    0.023014    0.023108    0.023177    0.023187
     0.023199    0.023199    0.023356    0.023401    0.023439    0.023444
     0.023462    0.023493    0.023545    0.023556    0.023593    0.023616
     0.023782    0.023793    0.023830    0.023846    0.023968    0.023986
     0.024012    0.024070    0.024103    0.024107    0.024113    0.024166
     0.024168    0.024174    0.024234    0.024242    0.024253    0.024265
     0.024278    0.024280    0.024304    0.024334    0.024350    0.024352
     0.024423    0.024647    0.024654    0.071563    0.071668    0.071810
     0.071833    0.071889    0.071924    0.071949    0.072014    0.072098
     0.072100    0.072822    0.072881    0.073525    0.073614    0.074432
     0.074518    0.159355    0.159658    0.159940    0.159964    0.159970
     0.159971    0.159975    0.159976    0.159981    0.159986    0.159989
     0.159991    0.159991    0.159993    0.159993    0.159994    0.159996
     0.159997    0.159997    0.159997    0.159997    0.159998    0.159998
     0.159999    0.159999    0.159999    0.159999    0.159999    0.160000
     0.160000    0.160000    0.160000    0.160000    0.160000    0.160000
     0.160000    0.160000    0.160000    0.160000    0.160000    0.160000
     0.160000    0.160000    0.160000    0.160000    0.160000    0.160000
     0.160000    0.160000    0.160000    0.160000    0.160000    0.160000
     0.160000    0.160000    0.160000    0.220605    0.220609    0.222127
     0.222133    0.224321    0.224359    0.224379    0.224393    0.231518
     0.231849    0.233739    0.233786    0.234666    0.234743    0.234886
     0.234892    0.234971    0.234978    0.235244    0.235258    0.237319
     0.237390    0.239682    0.239983    0.244400    0.245548    0.245814
     0.246272    0.248068    0.248696    0.248720    0.248995    0.249090
     0.249261    0.249392    0.249412    0.249414    0.249512    0.249549
     0.249552    0.249711    0.249720    0.249759    0.249826    0.249835
     0.249852    0.249876    0.249900    0.249928    0.249933    0.249938
     0.249946    0.249962    0.249970    0.249978    0.249983    0.249990
     0.249990    0.249996    0.249997    0.250000    0.252646    0.252843
     0.285078    0.289698    0.293885    0.295973    0.320814    0.320837
     0.321312    0.321327    0.326085    0.326451    0.327176    0.327354
     0.335533    0.336426    0.344124    0.344655    0.346116    0.346140
     0.346164    0.346286    0.346328    0.346333    0.346431    0.346577
     0.346986    0.347047    0.347127    0.347141    0.347234    0.347260
     0.347397    0.347696    0.347938    0.348137    0.348389    0.348425
     0.348526    0.348589    0.350137    0.350208    0.352865    0.353230
     0.353242    0.353610    0.354402    0.354483    0.354539    0.354925
     0.355191    0.355287    0.355996    0.356081    0.356107    0.356148
     0.356171    0.356178    0.356518    0.356569    0.356571    0.356586
     0.356641    0.356729    0.356762    0.356814    0.356843    0.356864
     0.357096    0.357240    0.357591    0.357748    0.359070    0.359167
     0.362755    0.367388    0.373016    0.373438    0.374508    0.374595
[...]
    107  H        -2.6496137851   -7.3239448841   -9.8210318926
    108  H        -0.4339895412   -7.7576914958   -8.8936439690
    109  H        -8.3592497861   -0.7128357658   -9.4478186956
    110  H       -10.1420847104   -4.1364958855   -7.6328595331
    111  H       -10.8717493256    0.0327337570   -8.3139826133
    112  H       -12.7982110114    1.4180239315   -8.9511369162
    113  H        -9.0184230699   -4.8918388046  -10.1238230533
    114  H        -9.8322326528   -6.4486455582  -11.8375393984
    115  C       -11.9432719730   -6.2160318070  -13.5066714178
    116  H       -13.0203827382   -3.7942791022  -12.8748677126
    117  C       -14.6527834253    1.0038123558  -10.8731155882
    118  H       -13.9226433546   -1.3710187521  -11.9935200070
    119  H        -9.2481790307   -5.0996637958   -5.6830839804
    120  H        -8.6765193772   -3.8862552898   -4.5394799358
    121  H        -7.5201552076   -4.8707014464   -5.4128775121
    122  H        -6.4932636376    0.3434893157   -8.5141322886
    123  H        -6.5312681493    0.3788177309   -6.7515398232
    124  H        -5.4045771072   -0.6821437015   -7.5783891965
    125  H       -15.2743543697    0.5493467084  -11.6443645320
    126  H       -15.2908244849    1.1891920892  -10.0071600042
    127  H       -14.3278237226    1.9761973601  -11.2480836088
    128  H       -12.8533376714   -5.8788181285  -14.0022123614
    129  H       -11.1887861308   -6.3703130326  -14.2804295545
    130  H       -12.1549482572   -7.1913638510  -13.0646267995
    131  H         2.2360789298    2.0120408781    5.2129219897
    132  H         0.5825137812    2.5521297567    5.4826077683
    133  H         1.0274587158    0.8892155016    5.8260514218
    134  H         5.7535373871    1.8278224137   -1.2537060108
    135  H         5.5859526945    0.6095809441   -2.5136911133
    136  H         5.1026909768    2.2662579961   -2.8295597702
   Point Group: c1    Number of degrees of freedom:   402


   Energy is  -3082.364791291

 Hessian Updated using BFGS Update

390 Hessian modes will be used to form the next step
  Hessian Eigenvalues:
     0.000617    0.001931    0.004103    0.008573    0.008901    0.008931
     0.009499    0.009568    0.009605    0.011460    0.012578    0.013523
     0.014719    0.014988    0.015300    0.015655    0.016745    0.016996
     0.017073    0.017250    0.017373    0.017419    0.017441    0.017481
     0.017612    0.017734    0.017857    0.017986    0.018157    0.018354
     0.018465    0.018578    0.018847    0.019023    0.019354    0.019404
     0.019624    0.019816    0.019882    0.020347    0.020349    0.020595
     0.020648    0.020709    0.020941    0.021045    0.021076    0.021137
     0.021281    0.021299    0.021413    0.021468    0.021494    0.021530
     0.021564    0.021655    0.021697    0.021777    0.021809    0.021931
     0.022024    0.022236    0.022281    0.022304    0.022526    0.022543
     0.022574    0.022687    0.022714    0.022819    0.022902    0.022962
     0.023045    0.023087    0.023141    0.023177    0.023192    0.023199
     0.023200    0.023316    0.023399    0.023419    0.023465    0.023476
     0.023545    0.023563    0.023628    0.023645    0.023734    0.023788
     0.023802    0.023818    0.023884    0.023940    0.023966    0.024011
     0.024088    0.024125    0.024132    0.024162    0.024177    0.024194
     0.024239    0.024276    0.024282    0.024287    0.024299    0.024336
     0.024356    0.024498    0.024635    0.024655    0.024931    0.025169
     0.026549    0.029514    0.035286    0.071494    0.071606    0.071813
     0.071844    0.071847    0.071944    0.072010    0.072032    0.072104
     0.072110    0.072856    0.072999    0.073536    0.073622    0.074448
     0.074564    0.154970    0.159347    0.159579    0.159637    0.159848
     0.159875    0.159944    0.159968    0.159969    0.159974    0.159983
     0.159988    0.159988    0.159991    0.159991    0.159992    0.159994
     0.159994    0.159994    0.159995    0.159996    0.159997    0.159997
     0.159997    0.159998    0.159998    0.159999    0.159999    0.159999
     0.159999    0.159999    0.160000    0.160000    0.160000    0.160000
     0.160000    0.160130    0.160199    0.160299    0.160833    0.160876
     0.161160    0.161953    0.163676    0.210523    0.219966    0.220617
     0.220642    0.222129    0.222157    0.224396    0.224482    0.224626
     0.226716    0.231734    0.231927    0.233743    0.233816    0.234850
     0.234974    0.234990    0.235021    0.235134    0.235441    0.237105
     0.237339    0.237422    0.238092    0.239778    0.240082    0.245165
     0.245652    0.246081    0.246690    0.247855    0.248474    0.248713
     0.248748    0.249004    0.249155    0.249330    0.249518    0.249603
     0.249684    0.249705    0.249717    0.249725    0.249820    0.249849
     0.249854    0.249888    0.249917    0.249944    0.249953    0.249975
     0.249977    0.249991    0.250092    0.250454    0.250796    0.251931
     0.252610    0.253031    0.253504    0.255781    0.271467    0.286396
     0.294386    0.294844    0.298790    0.315698    0.320798    0.321063
     0.321402    0.324291    0.326366    0.326690    0.327293    0.335536
     0.335966    0.341169    0.344208    0.344662    0.346102    0.346125
     0.346228    0.346265    0.346333    0.346414    0.346471    0.346963
     0.347020    0.347043    0.347129    0.347145    0.347272    0.347443
     0.347521    0.348025    0.348177    0.348221    0.348418    0.348442
     0.348544    0.348784    0.350139    0.350239    0.352872    0.353242
     0.353331    0.353669    0.354495    0.354544    0.354736    0.354939
     0.355226    0.355302    0.355997    0.356082    0.356107    0.356148
     0.356172    0.356178    0.356570    0.356571    0.356589    0.356644
     0.356762    0.356812    0.356824    0.356874    0.356899    0.357016
     0.357116    0.357270    0.357595    0.357774    0.359151    0.360067
     0.367780    0.368123    0.372956    0.373421    0.375097    0.378673
     0.383046    0.388555    0.397163    0.401144    0.407354    0.407916
     0.408330    0.409528    0.411068    0.413040    0.413240    0.415958
     0.416721    0.417217    0.417290    0.421165    0.425151    0.427286
     0.431525    0.431708    0.432493    0.432819    0.433101    0.433492
     0.434050    0.435203    0.439191    0.439786    0.441668    0.442516
     0.444791    0.447966    0.450295    0.451511    0.451968    0.452203
     0.453298    0.458348    0.464808    0.466175    0.467560    0.468572
     0.469440    0.471583    0.472062    0.473630    0.474004    0.475018
     0.475157    0.477911    0.478843    0.480943    0.481710    0.481866
     0.482077    0.483237    0.484592    0.484808    0.484941    0.485760
     0.486013    0.486646    0.492047    0.492658    0.494602    0.495722
     0.495824    0.496043    0.496854    0.498206    0.498493    0.517430

 Minimum Search - Taking Simple RFO Step
 Searching for Lamda that Minimizes Along All modes
 Value Taken    Lamda =  -0.00000148
 Step Taken.  Stepsize is  0.034875

                             Maximum     Tolerance    Cnvgd?
         Gradient           0.000066      0.000300     YES
         Displacement       0.018821      0.001200      NO
         Energy change      0.000037      0.000001      NO


 New Cartesian Coordinates Obtained by Inverse Iteration

 Displacement from previous Coordinates is:  0.147254
 Adding empirical dispersion correction 
 ----------------------------------------------------------------
 Doing -D3(BJ) with
 s6 =   1.00000
 s8 =   0.00000
 a1 =   0.48600
 a2 =   4.50000
 -D3 energy including 3body term =     -0.1267421182 hartrees
 ----------------------------------------------------------------
 Adding gCP correction 
 ----------------------------------------------------------------
 gCP energy =      0.1735520660 hartrees
 ----------------------------------------------------------------
             Standard Nuclear Orientation (Angstroms)
    I     Atom           X                Y                Z
 ----------------------------------------------------------------
    1      C     -12.1629254190    -1.8509594787   -10.8564082845
    2      C     -11.3018398056    -1.4520861150    -9.8225655484
    3      N     -10.3374559215    -2.4226693041    -9.6436406361
    4      C     -10.5713375671    -3.4442532456   -10.5353967744
    5      C     -11.6956155827    -3.1302666475   -11.3131651512
    6      C     -12.1406818838    -4.0272367821   -12.2816923845
    7      C     -11.4736051539    -5.2234080970   -12.4791519386
    8      C     -10.3462966521    -5.5058758940   -11.6909248030
    9      C      -9.8811859695    -4.6379858059   -10.7225440390
   10      C     -13.2520191015    -1.0575550284   -11.2016508970
   11      C     -13.4880464882     0.1231909105   -10.5213194962
   12      C     -12.6138145778     0.4935425652    -9.4865400775
   13      C     -11.5237188633    -0.2732711968    -9.1219302261
   14      C      -9.3519889638    -2.4157364098    -8.6347738947
   15      C      -8.3792808600    -1.4306754122    -8.6374403557
   16      C      -7.4465018577    -1.3647580700    -7.6112381310
   17      C      -7.4724760414    -2.3065414654    -6.5736425017
   18      C      -8.4322087526    -3.3261524166    -6.6066514842
   19      C      -9.3718657928    -3.3705382167    -7.6303846210
   20      B      -6.4841266116    -2.1212799129    -5.3557118555
   21      C      -5.0807614674    -2.7339495464    -5.3484638985
   22      C      -4.6924742726    -3.6286494541    -6.3572266665
   23      C      -3.4469031054    -4.2083417967    -6.3394675540
   24      C      -2.5197010189    -3.8945521068    -5.3027568203
   25      C      -2.8728960381    -2.9988602723    -4.3221926720
   26      C      -4.1539678746    -2.4053342404    -4.3105944598
   27      C      -1.3112806499    -4.6864805246    -5.5335246383
   28      C      -1.5499359630    -5.4433215507    -6.6993464243
   29      C      -2.8328820474    -5.1876186369    -7.2235212706
   30      C      -0.6544955215    -6.3570899829    -7.2485173867
   31      C       0.5761904733    -6.5054170970    -6.5666541022
   32      C       0.8221981188    -5.7738834438    -5.4275632974
   33      C      -0.1112425699    -4.8583935987    -4.8908470332
   34      C      -3.2321925399    -5.8675414754    -8.3484146215
   35      C      -2.3378518943    -6.7924060914    -8.9306791503
   36      C      -1.0881566680    -7.0408331396    -8.4109693949
   37      B      -4.5795212405    -1.4109047259    -3.2279662896
   38      C      -6.0076000523    -0.8828612161    -3.1455923334
   39      C      -6.4419227083    -0.0496237951    -2.0910619337
   40      C      -7.7424606010     0.3935783908    -2.0360283307
   41      C      -8.6546055916     0.0233018459    -3.0674451549
   42      C      -8.2457843293    -0.7657551707    -4.1138227678
   43      C      -6.9282723362    -1.2427150601    -4.1780161519
   44      C      -9.9518025755     0.6092205103    -2.7692606334
   45      C      -9.7965554274     1.3190931260    -1.5632545222
   46      C      -8.4764632454     1.2216204449    -1.0757558317
   47      C     -10.8263317118     2.0155140226    -0.9362904353
   48      C     -12.0876304128     1.9887412737    -1.5799027973
   49      C     -12.2452617869     1.2976191631    -2.7592663076
   50      C     -11.1851461086     0.5959342960    -3.3740654741
   51      C      -8.1811151747     1.8617639908     0.1012661720
   52      C      -9.2045713151     2.5802370884     0.7611687266
   53      C     -10.4883607677     2.6644765809     0.2739071133
   54      C      -6.4188207828    -0.2687290526    -7.6140709458
   55      C      -8.4728982943    -4.3534137361    -5.5104823367
   56      C      -3.4481437233    -0.8551547787    -2.2753661986
   57      C      -3.1034167746    -1.4893246673    -1.0614717424
   58      C      -2.0068364821    -1.0581771627    -0.3416668271
   59      C      -1.2287905362    -0.0048255753    -0.8329349490
   60      C      -1.5917774976     0.6654285516    -2.0060709371
   61      C      -2.7022526435     0.2629927053    -2.7139727528
   62      N      -0.0621675668     0.3719974117    -0.1800854616
   63      C       0.0858566888     0.6082098312     1.1749899547
   64      C       1.4033092535     1.0221150626     1.4248389969
   65      C       2.0874631446     1.0235804247     0.1447691464
   66      C       1.1438736992     0.6140036829    -0.8089150133
   67      C       1.7708625488     1.3801506920     2.7041816592
   68      C       0.8278650413     1.3286638671     3.7342236832
   69      C      -0.4844281257     0.9359364712     3.4454651339
   70      C      -0.8823400029     0.5852840496     2.1704286933
   71      C       3.3760634575     1.3093901233    -0.2565007849
   72      C       3.7280860943     1.1775478081    -1.6033337731
   73      C       2.7729111346     0.7258614570    -2.5221162574
   74      C       1.4795961758     0.4253935532    -2.1469741556
   75      C      -3.9071384956    -2.6691374651    -0.6094145478
   76      C      -3.1152912066     0.9887885286    -3.9575034138
   77      H      -1.9112049323     0.3285413196     1.9610068316
   78      H      -1.2168706082     0.9238838816     4.2422016162
   79      H       0.7693332358     0.0460370449    -2.8679021182
   80      H       3.0592004388     0.5961565990    -3.5578774305
   81      C       5.1139595102     1.4918852088    -2.0724764927
   82      H       4.1191532473     1.6283792299     0.4630470214
   83      C       1.1970181062     1.7139237257     5.1326528882
   84      H       2.7785577547     1.7160382165     2.9132628721
   85      H      -1.0239048634     1.5292831030    -2.3283933486
   86      H      -1.6928432701    -1.5933427324     0.5456663866
   87      H      -3.5580732636    -3.0670250016     0.3429749460
   88      H      -4.9594006630    -2.4010090572    -0.5053244375
   89      H      -3.8651369825    -3.4687773135    -1.3501988837
   90      H      -2.4732144727     1.8453768193    -4.1607645452
   91      H      -4.1438801911     1.3411113419    -3.8785997426
   92      H      -3.0814231553     0.3217656257    -4.8201610602
   93      H      -5.7437451884     0.2356035118    -1.3099480936
   94      H      -8.9466017772    -1.0291771448    -4.8996282390
   95      H     -11.3619198896     0.0624109748    -4.3001930285
   96      H      -7.1896422451     1.8283404314     0.5352272867
   97      H     -13.2174553838     1.2865301521    -3.2358617260
   98      H     -12.9304097845     2.5102980072    -1.1429034497
   99      H      -8.9649324558     3.0826629985     1.6896796535
  100      H     -11.2389695663     3.2257406667     0.8169676203
  101      H      -5.3950413764    -3.8674822321    -7.1501910518
  102      H      -2.1593145691    -2.7628193032    -3.5389467329
  103      H       0.1303434683    -4.3208794328    -3.9823333610
  104      H      -4.2093194377    -5.7157807949    -8.7903727401
  105      H       1.3207199781    -7.2003447831    -6.9355153237
  106      H       1.7664040904    -5.9079655118    -4.9150553841
  107      H      -2.6533226136    -7.3284099363    -9.8169853715
  108      H      -0.4389141992    -7.7648038059    -8.8879621364
  109      H      -8.3601649207    -0.7076978127    -9.4449697166
  110      H     -10.1387250309    -4.1373750323    -7.6371793679
  111      H     -10.8748862564     0.0317160087    -8.3117598655
  112      H     -12.8042283363     1.4139762822    -8.9467859126
  113      H      -9.0117243767    -4.8864438878   -10.1284195041
  114      H      -9.8221872794    -6.4424566558   -11.8444394277
  115      C     -11.9325350017    -6.2108388890   -13.5147477285
  116      H     -13.0152666816    -3.7927778091   -12.8786695746
  117      C     -14.6574564358     0.9991763770   -10.8700842030
  118      H     -13.9226293376    -1.3725277906   -11.9936940274
  119      H      -9.2474968345    -5.0999586950    -5.6861142003
  120      H      -8.6700942154    -3.8900742965    -4.5416482329
  121      H      -7.5182541902    -4.8748345203    -5.4206186523
  122      H      -6.4933198843     0.3469449382    -8.5105905515
  123      H      -6.5396685923     0.3853428861    -6.7482443862
  124      H      -5.4070010906    -0.6748802171    -7.5679469004
  125      H     -15.2796523028     0.5431363578   -11.6398962045
  126      H     -15.2943809045     1.1848084131   -10.0033703371
  127      H     -14.3341725260     1.9715235082   -11.2466209860
  128      H     -12.8486400233    -5.8794242604   -14.0030397862
  129      H     -11.1814035624    -6.3540727363   -14.2939164717
  130      H     -12.1325005509    -7.1903797946   -13.0766433632
  131      H       2.2415498576     2.0092595117     5.2101615230
  132      H       0.5882116419     2.5488985586     5.4820723588
  133      H       1.0336913527     0.8856896458     5.8234359895
  134      H       5.7534322598     1.8292213259    -1.2591389847
  135      H       5.5827161193     0.6163476949    -2.5239029009
  136      H       5.1004653455     2.2747885134    -2.8320717395
 ----------------------------------------------------------------
 Nuclear Repulsion Energy = 11556.9852824639 hartrees
 There are      268 alpha and      268 beta electrons
 Nucleus-field energy     =    -0.0000000923 hartrees
 Requested basis set is def2-mSVP
 There are 672 shells and 1312 basis functions
 A cutoff of  1.0D-11 yielded  56192 shell pairs
 There are    224476 function pairs (    247641 Cartesian)
 Smallest overlap matrix eigenvalue = 1.98E-04
 Guess MOs from SCF MO coefficient file

 -----------------------------------------------------------------------
  General SCF calculation program by
  Eric Jon Sundstrom, Paul Horn, Yuezhi Mao, Dmitri Zuev, Alec White,
  David Stuck, Shaama M.S., Shane Yost, Joonho Lee, David Small,
  Daniel Levine, Susi Lehtola, Hugh Burton, Evgeny Epifanovsky
 -----------------------------------------------------------------------
 Exchange:     0.4200 Hartree-Fock + 0.5800 PBEh-3c
 Correlation:  1.0000 PBEh-3c
 Using SG-1 standard quadrature grid
 Dispersion:   Grimme D3
 using 8 threads for integral computing
 -------------------------------------------------------
 OpenMP Integral computing Module                
 Release: version 2.0, May 2017, Q-Chem Inc. Pleasanton 
 -------------------------------------------------------
 -------------------------------------------------------
 OpenMP BLAS3 based DFT computing Module                
 Release: version 1.0, May 2013, Q-Chem Inc. Pittsburgh 
 -------------------------------------------------------
 A restricted SCF calculation will be
 performed using DIIS
 SCF converges when DIIS error is below 1.0e-08
 ---------------------------------------
  Cycle       Energy         DIIS error
 ---------------------------------------
    1   -3082.4540815229      1.84e-05  
    2   -3082.4541934152      2.64e-06  
    3   -3082.4541974757      6.11e-07  
    4   -3082.4541975214      6.43e-07  
    5   -3082.4541976119      1.53e-07  
    6   -3082.4541976170      5.67e-08  
    7   -3082.4541976177      1.99e-08  
    8   -3082.4541976178      8.93e-09  Convergence criterion met
 ---------------------------------------
 SCF time:   CPU 5678.92s  wall 711.00s 
 SCF   energy in the final basis set =    -3082.4541976178
 Total energy in the final basis set =    -3082.4541976178
 
 Direct TDDFT/TDA calculation will be performed
 Exchange:     0.4200 Hartree-Fock + 0.5800 PBEh-3c
 Correlation:  1.0000 PBEh-3c
 Using SG-1 standard quadrature grid
 Dispersion:   Grimme D3
 Singlet excitation energies requested
 CIS energy converged when residual is below 10e- 6
 ---------------------------------------------------
 Iter    Rts Conv    Rts Left    Ttl Dev     Max Dev
 ---------------------------------------------------
   1         0           2      0.000031    0.000018
   2         0           2      0.000019    0.000011
