mFile = /cm/shared/apps/q-chem/intel/QCHEM_5.0.1_Trunk/bin/mpi/machines
Process 0 of 1 is on ctcp023 - thread support 0
initial socket setup ...start
initial socket setup ...done 
now start server 0 ... 
ctcp023.cm.cluster 10.141.0
Q-Chem Developer Version! Running on 10.141.0.*
                  Welcome to Q-Chem
     A Quantum Leap Into The Future Of Chemistry


 Q-Chem 5.0, Q-Chem, Inc., Pleasanton, CA (2017)

 Yihan Shao,  Zhengting Gan,  E. Epifanovsky,  A. T. B. Gilbert,  M. Wormit,  
 J. Kussmann,  A. W. Lange,  A. Behn,  Jia Deng,  Xintian Feng,  D. Ghosh,  
 M. Goldey,  P. R. Horn,  L. D. Jacobson,  I. Kaliman,  T. Kus,  A. Landau,  
 Jie Liu,  E. I. Proynov,  R. M. Richard,  R. P. Steele,  E. J. Sundstrom,  
 H. L. Woodcock III,  P. M. Zimmerman,  D. Zuev,  B. Albrecht,  E. Alguire,  
 S. A. Baeppler,  Z. Benda,  Y. A. Bernard,  E. J. Berquist,  K. B. Bravaya,  
 D. Casanova,  Chun-Min Chang,  Yunqing Chen,  A. Chien,  K. D. Closser,  
 M. P. Coons,  S. Dasgupta,  M. Diedenhofen,  Hainam Do,  R. G. Edgar,  
 Po-Tung Fang,  S. Fatehi,  Qingguo Feng,  Qinghui Ge,  A. Ghysels,  
 J. Gomes,  J. Gonthier,  A. Gunina,  M. W. D. Hanson-Heine,  
 P. H. P. Harbach,  A. W. Hauser,  J. E. Herr,  E. G. Hohenstein,  
 Z. C. Holden,  Kerwin Hui,  T.-C. Jagau,  Hyunjun Ji,  B. Kaduk,  
 K. Khistyaev,  Jaehoon Kim,  P. Klunzinger,  K. Koh,  D. Kosenkov,  
 T. Kowalczyk,  C. M. Krauter,  A. Kunitsa,  Ka Un Lao,  A. Laurent,  
 K. V. Lawler,  Joonho Lee,  D. Lefrancois,  S. Lehtola,  D. S. Levine,  
 Yi-Pei Li,  You-Sheng Lin,  Fenglai Liu,  E. Livshits,  A. Luenser,  
 P. Manohar,  E. Mansoor,  S. F. Manzer,  Shan-Ping Mao,  Yuezhi Mao,  
 N. Mardirossian,  A. V. Marenich,  L. A. Martinez-Martinez,  S. A. Maurer,  
 N. J. Mayhall,  S. C. McKenzie,  J.-M. Mewes,  A. F. Morrison,  K. Nanda,  
 T. S. Nguyen-Beck,  R. Olivares-Amaya,  J. A. Parkhill,  T. M. Perrine,  
 F. Plasser,  S. Prager,  A. Prociuk,  D. R. Rehn,  F. Rob,  M. Schneider,  
 N. Sergueev,  S. M. Sharada,  S. Sharma,  D. W. Small,  T. Stauch,  
 T. Stein,  Yu-Chuan Su,  A. J. W. Thom,  T. Tsuchimochi,  L. Vogt,  
 O. Vydrov,  M. A. Watson,  J. Wenzel,  M. de Wergifosse,  T. A. Wesolowski,  
 A. White,  J. Witte,  A. Yamada,  Jun Yang,  K. Yao,  S. Yeganeh,  
 S. R. Yost,  Zhi-Qiang You,  A. Zech,  Igor Ying Zhang,  Xing Zhang,  
 Yan Zhao,  Ying Zhu,  B. R. Brooks,  G. K. L. Chan,  C. J. Cramer,  
 M. S. Gordon,  W. J. Hehre,  A. Klamt,  M. W. Schmidt,  C. D. Sherrill,  
 D. G. Truhlar,  A. Aspuru-Guzik,  R. Baer,  A. T. Bell,  N. A. Besley,  
 Jeng-Da Chai,  A. Dreuw,  B. D. Dunietz,  T. R. Furlani,  Chao-Ping Hsu,  
 Yousung Jung,  Jing Kong,  D. S. Lambrecht,  WanZhen Liang,  C. Ochsenfeld,  
 V. A. Rassolov,  L. V. Slipchenko,  J. E. Subotnik,  T. Van Voorhis,  
 J. M. Herbert,  A. I. Krylov,  P. M. W. Gill,  M. Head-Gordon

 Contributors to earlier versions of Q-Chem not listed above: 
 R. D. Adamson,  B. Austin,  J. Baker,  G. J. O. Beran,  K. Brandhorst,  
 S. T. Brown,  E. F. C. Byrd,  A. K. Chakraborty,  C.-L. Cheng,  
 Siu Hung Chien,  D. M. Chipman,  D. L. Crittenden,  H. Dachsel,  
 R. A. DiStasio Jr.,  R. J. Doerksen,  A. D. Dutoi,  L. Fusti-Molnar,  
 W. A. Goddard III,  A. Golubeva-Zadorozhnaya,  S. R. Gwaltney,  G. Hawkins,  
 A. Heyden,  S. Hirata,  G. Kedziora,  F. J. Keil,  C. Kelley,  Jihan Kim,  
 R. A. King,  R. Z. Khaliullin,  P. P. Korambath,  W. Kurlancheek,  
 A. M. Lee,  M. S. Lee,  S. V. Levchenko,  Ching Yeh Lin,  D. Liotard,  
 R. C. Lochan,  I. Lotan,  P. E. Maslen,  N. Nair,  D. P. O'Neill,  
 D. Neuhauser,  E. Neuscamman,  C. M. Oana,  R. Olson,  B. Peters,  
 R. Peverati,  P. A. Pieniazek,  Y. M. Rhee,  J. Ritchie,  M. A. Rohrdanz,  
 E. Rosta,  N. J. Russ,  H. F. Schaefer III,  N. E. Schultz,  N. Shenvi,  
 A. C. Simmonett,  A. Sodt,  D. Stuck,  K. S. Thanthiriwatte,  V. Vanovschi,  
 Tao Wang,  A. Warshel,  C. F. Williams,  Q. Wu,  X. Xu,  W. Zhang

 Please cite Q-Chem as follows:
 Y. Shao et al., Mol. Phys. 113, 184-215 (2015)
 DOI: 10.1080/00268976.2014.952696

 Q-Chem 5.0.1 for Intel X86 EM64T Linux

 Parts of Q-Chem use Armadillo 5.200.1 (Boston Tea Smuggler).
 http://arma.sourceforge.net/

 Q-Chem begins on Thu Apr 26 15:22:18 2018  

Host: ctcp023
0

     Scratch files written to /scratch/mewes/95199/qchem7204//
 Parallel job on  1  processors
The previous job contains 0 fragments, simply inherited here
Symmetry turned off for PCM/SM12/SMD calculation

Checking the input file for inconsistencies... 	...done.

--------------------------------------------------------------
User input:
--------------------------------------------------------------
$rem
threads 8
jobtype opt
method PBEh-3c
basis def2-mSVP
mem_static      1024
mem_total       8000
sym_ignore      true
unrestricted true
scf_algorithm	diis
scf_max_cycles	250
solvent_method  pcm
geom_opt_tol_energy 25
geom_opt_tol_gradient 75
$end

$pcm
theory  iefpcm
$end

$solvent
dielectric      1.0001
$end

$molecule
read uincoords.mol
$end
--------------------------------------------------------------
 Adding empirical dispersion correction 
 ----------------------------------------------------------------
 Doing -D3(BJ) with
 s6 =   1.00000
 s8 =   0.00000
 a1 =   0.48600
 a2 =   4.50000
 -D3 energy including 3body term =     -0.0781847419 hartrees
 ----------------------------------------------------------------
 Adding gCP correction 
 ----------------------------------------------------------------
 gCP energy =      0.1090150728 hartrees
 ----------------------------------------------------------------
             Standard Nuclear Orientation (Angstroms)
    I     Atom           X                Y                Z
 ----------------------------------------------------------------
    1      C       0.1361820000    -4.5324760000     1.0858460000
    2      C       0.1169050000    -4.3819210000     2.6056440000
    3      C       1.5829030000    -4.1484620000     0.7917880000
    4      C       2.2052240000    -4.1302710000    -0.4398480000
    5      H       1.6571980000    -4.3763030000    -1.3415470000
    6      C       3.5506530000    -3.7932320000    -0.4987330000
    7      H       4.0572130000    -3.7694370000    -1.4542800000
    8      C       4.2507330000    -3.4853230000     0.6627480000
    9      H       5.2996790000    -3.2293330000     0.6009940000
   10      C       3.6220070000    -3.5040060000     1.8984600000
   11      H       4.1762160000    -3.2689490000     2.7977310000
   12      C       2.2771440000    -3.8385460000     1.9579450000
   13      C      -0.9464990000    -4.5984800000     3.4573150000
   14      H      -1.9070820000    -4.9235790000     3.0758060000
   15      C      -0.7618790000    -4.3907100000     4.8172540000
   16      H      -1.5822260000    -4.5554590000     5.5024230000
   17      C       0.4714770000    -3.9726420000     5.3040480000
   18      H       0.6000480000    -3.8138640000     6.3660810000
   19      C       1.5388980000    -3.7565410000     4.4454960000
   20      H       2.4957610000    -3.4314770000     4.8330810000
   21      C       1.3554990000    -3.9628230000     3.0871680000
   22      C      -2.1351780000    -3.6869810000     0.0962600000
   23      C      -2.9353570000    -2.5969180000    -0.2321690000
   24      H      -3.9439960000    -2.7752510000    -0.5813420000
   25      C      -2.4865430000    -1.2924940000    -0.1416590000
   26      C      -3.3503430000    -0.2155250000    -0.4938000000
   27      N      -4.0691070000     0.6344670000    -0.7850610000
   28      C      -0.8270730000    -3.4698410000     0.5416610000
   29      C      -0.3748890000    -2.1525490000     0.6151860000
   30      H       0.6341070000    -1.9488500000     0.9429010000
   31      C      -1.1728430000    -1.0717520000     0.2838480000
   32      C      -0.6492240000     0.2508860000     0.3779490000
   33      N      -0.2140180000     1.3128840000     0.4572740000
   34      H       5.4470170000    -6.5226080000    -0.3075780000
   35      H       7.2090800000    -8.0293900000     0.6149820000
   36      C       5.1827730000    -7.3710540000     0.3101020000
   37      C       6.1629230000    -8.2034230000     0.8245440000
   38      C       3.8512620000    -7.6129720000     0.5777310000
   39      H       3.1109290000    -6.9486460000     0.1575750000
   40      C       5.7742230000    -9.2723350000     1.6099820000
   41      H       6.5390130000    -9.9324650000     2.0001070000
   42      C       3.4647890000    -8.6917490000     1.3837680000
   43      C       4.4429880000    -9.5410650000     1.9112910000
   44      N       2.1168930000    -8.9245860000     1.6494680000
   45      C       2.6239630000   -10.8015470000     3.0889390000
   46      C       1.7022940000    -9.9043640000     2.5422700000
   47      H       2.8467150000   -12.5011170000     4.3602270000
   48      C       2.1458910000   -11.7862660000     3.9472500000
   49      C       0.3500150000   -10.0036640000     2.8931250000
   50      C       0.8103920000   -11.9008490000     4.2858450000
   51      C      -0.0873840000   -10.9912770000     3.7521100000
   52      H      -0.3663590000    -9.3032130000     2.4896750000
   53      H       0.4790730000   -12.6837910000     4.9535510000
   54      H      -1.1391610000   -11.0462780000     4.0013840000
   55      C       4.1014610000   -10.7689630000     2.7411130000
   56      C       4.9248330000   -10.7550650000     4.0391820000
   57      C       4.4376190000   -12.0273770000     1.9233900000
   58      C       1.1380320000    -8.1532920000     0.9748030000
   59      C       0.4401980000    -8.6875930000    -0.0971800000
   60      C      -0.4929690000    -7.8965160000    -0.7313990000
   61      C      -0.7090300000    -6.5619920000    -0.3806390000
   62      C       0.0259680000    -6.0119080000     0.6720700000
   63      C       0.9011030000    -6.8522680000     1.3620780000
   64      H       1.4712270000    -6.4737270000     2.1993910000
   65      H       0.6125460000    -9.7100600000    -0.4056890000
   66      H      -1.0758320000    -8.3142780000    -1.5432160000
   67      C      -1.7897580000    -5.8272090000    -1.1161930000
   68      C      -2.6956960000    -5.0520490000    -0.1600740000
   69      H      -2.3786530000    -6.5508820000    -1.6808400000
   70      H      -1.3791140000    -5.1369340000    -1.8595310000
   71      H      -2.8207210000    -5.6232870000     0.7644130000
   72      H      -3.6935210000    -4.9488430000    -0.5872180000
   73      H       3.8551530000   -12.0586110000     1.0027170000
   74      H       4.2175130000   -12.9329620000     2.4900350000
   75      H       5.4940060000   -12.0524440000     1.6530580000
   76      H       4.6965580000    -9.8686860000     4.6292320000
   77      H       5.9946800000   -10.7595510000     3.8343550000
   78      H       4.7149490000   -11.6317340000     4.6510690000
 ----------------------------------------------------------------
 Nuclear Repulsion Energy =  5548.7301223784 hartrees
 There are      159 alpha and      157 beta electrons
 Requested basis set is def2-mSVP
 There are 391 shells and 767 basis functions

 Total QAlloc Memory Limit   8000 MB
 Mega-Array Size      1001 MB
 MEM_STATIC part      1024 MB
 Discretize the solute cavity surface with Lebedev spheres
	Using 302 Lebedev grid points for each H atom
	Using 302 Lebedev grid points for other atoms
	Atomic van der Waals radii will be scaled by 1.20
 Remove points where switching function is < 1.0e-08
 Keep 8038 surface tesserae and discard 15518 interior tesserae
 Molecular Surface Area = 618.147 Angst**2
 A cutoff of  1.0D-11 yielded  34996 shell pairs
 There are    140596 function pairs (    155209 Cartesian)
 
 -------------------------------------------------------
 OpenMP Integral Computing Module                       
 Release: version 1.0, May 2013, Q-Chem Inc. Pittsburgh 
 -------------------------------------------------------
 Integral Job Info:
 Integral job number is                      11
 Integral operator is                         1
 short-range coefficients                     0
 long-range coefficients              100000000
 Omega coefficients                           0
 if combine SR and LR in K                    0
 Integral screening is                        0
 Integral computing path is                   2
 max size of driver memory is            800000
 size of driver memory is                593474
 size of scratch memory is              1809772
 max col of scratch BK array               1296
 max len of scratch array in speh3          155
 max len of scratch index in speh4           18
 max int batch size is                      520
 min int batch size is                       52
 fixed nKL is                                52
 max L of basis functions is                  2
 order of int derivative is                   0
 number of shells is                        391
 number of basis is                         814
 number of cartesian basis is               814
 number of contracted shell pairs         34996
 number of primitive shell pairs          73335
 maxK2 (contraction) of shell pair           25
 max number of K2 of shell pair               1
 max number of CS2 of shell pair           8304
 max number of PS2 of shell pair          12965
 mem total for path MDJ                  383544
 -------------------------------------------------------
 Smallest overlap matrix eigenvalue = 2.53E-04

 Scale SEOQF with 1.000000e-02/1.000000e-02/1.000000e-02

 Standard Electronic Orientation quadrupole field applied
 Nucleus-field energy     =     0.0000001031 hartrees
 Guess from superposition of atomic densities
 Warning:  Energy on first SCF cycle will be non-variational
 An unrestricted hybrid HF-DFT SCF calculation will be
 performed using Pulay DIIS extrapolation
 Polarizable Continuum solvation model will be applied
 Exchange:     0.4200 Hartree-Fock + 0.5800 PBEh-3c
 Correlation:  1.0000 PBEh-3c
 Using SG-1 standard quadrature grid
 Dispersion:   Grimme D3
 SCF converges when DIIS error is below 1.0E-08
 using 8 threads for integral computing
 -------------------------------------------------------
 OpenMP Integral computing Module                
 Release: version 1.0, May 2013, Q-Chem Inc. Pittsburgh 
 -------------------------------------------------------
 ---------------------------------------
  Cycle       Energy         DIIS Error
 ---------------------------------------
    1   -1871.4039828078      3.06E-02
 Using non-symmetric K matrix
    2   -1854.9176228606      2.34E-03
    3   -1854.1826491629      3.53E-03
    4   -1855.1888294262      1.42E-03
    5   -1855.3614967364      4.25E-04
    6   -1855.3139727608      7.01E-04
    7   -1855.3654036108      3.87E-04
    8   -1855.3867250800      1.70E-04
    9   -1855.3852961224      2.25E-04
   10   -1855.3855856955      2.21E-04
   11   -1855.3853490959      2.25E-04
   12   -1855.3868208600      1.99E-04
   13   -1855.3909255348      9.70E-05
   14   -1855.3918452146      5.59E-05
   15   -1855.3923122939      1.98E-05
   16   -1855.3924082551      7.71E-06
   17   -1855.3924386959      5.80E-06
   18   -1855.3924561534      4.11E-06
   19   -1855.3924643304      3.23E-06
   20   -1855.3924679534      3.14E-06
   21   -1855.3924697753      2.74E-06
   22   -1855.3924729021      9.19E-07
   23   -1855.3924744433      6.16E-07
   24   -1855.3924750664      6.19E-07
   25   -1855.3924762505      5.72E-07
   26   -1855.3924788517      5.39E-07
   27   -1855.3924820676      6.31E-07
   28   -1855.3924845900      7.82E-07
   29   -1855.3924874597      5.28E-07
   30   -1855.3924897777      3.49E-07
   31   -1855.3924931801      8.61E-07
   32   -1855.3924933947      7.08E-07
   33   -1855.3924944553      4.89E-07
   34   -1855.3924954832      1.40E-07
   35   -1855.3924959451      2.19E-07
   36   -1855.3924962236      2.35E-07
   37   -1855.3924966058      3.46E-07
   38   -1855.3924966671      1.30E-07
   39   -1855.3924966869      1.22E-07
   40   -1855.3924966902      2.36E-07
   41   -1855.3924966939      1.88E-07
   42   -1855.3924967019      7.62E-08
   43   -1855.3924967048      1.92E-08
   44   -1855.3924967053      8.36E-09 Convergence criterion met
 ---------------------------------------

************** Final PCM Free Energy Summary **************
 G_electrostatic  =      -0.00000215 hartree =      -0.00134998 kcal/mol
 G_cavitation     =       0.00000000 hartree =       0.00000000 kcal/mol
 G_dispersion     =       0.00000000 hartree =       0.00000000 kcal/mol
 G_repulsion      =       0.00000000 hartree =       0.00000000 kcal/mol
 --------------------------------------------------
 Non-electrostatic Free Energy =       0.00000000 hartree =       0.00000000 kcal/mol
 Total                         =      -0.00000215 hartree =      -0.00134998 kcal/mol
 --------------------------------------------------
 SCF Energy (H0 + V/2)                       =   -1855.39249671 
 Solute Internal Energy (H0)                 =   -1855.39249455 
 Total Free Energy (H0 + V/2 + non-elec)     =   -1855.39249671 hartree
                                             = -1164276.36410492 kcal/mol
***********************************************************

 <S^2> = 2.0513
 SCF time:  CPU 14912.56 s  wall 3959.12 s
 SCF   energy in the final basis set = -1855.39249671
 Total energy in the final basis set = -1855.39249671
 
 --------------------------------------------------------------
 
                    Orbital Energies (a.u.)
 --------------------------------------------------------------
 
 Alpha MOs
 -- Occupied --
-14.768 -14.633 -14.632 -10.518 -10.512 -10.511 -10.501 -10.495
-10.493 -10.492 -10.485 -10.483 -10.482 -10.480 -10.478 -10.478
-10.476 -10.474 -10.473 -10.471 -10.471 -10.470 -10.469 -10.469
-10.468 -10.467 -10.467 -10.466 -10.465 -10.465 -10.464 -10.463
-10.462 -10.461 -10.461 -10.461 -10.461 -10.461 -10.460 -10.460
-10.460 -10.459 -10.457 -10.457 -10.449 -10.449 -10.448  -1.148
 -1.028  -1.014  -0.999  -0.998  -0.987  -0.985  -0.978  -0.963
 -0.934  -0.931  -0.924  -0.889  -0.887  -0.882  -0.875  -0.860
 -0.857  -0.850  -0.848  -0.839  -0.820  -0.820  -0.791  -0.789
 -0.770  -0.742  -0.741  -0.736  -0.720  -0.718  -0.710  -0.694
 -0.693  -0.676  -0.675  -0.667  -0.663  -0.644  -0.642  -0.640
 -0.626  -0.603  -0.591  -0.581  -0.576  -0.572  -0.566  -0.565
 -0.557  -0.552  -0.546  -0.544  -0.539  -0.528  -0.524  -0.519
 -0.518  -0.517  -0.510  -0.508  -0.506  -0.503  -0.502  -0.499
 -0.496  -0.491  -0.485  -0.481  -0.478  -0.476  -0.475  -0.460
 -0.457  -0.452  -0.450  -0.447  -0.444  -0.441  -0.439  -0.435
 -0.427  -0.425  -0.422  -0.420  -0.417  -0.415  -0.412  -0.410
 -0.407  -0.406  -0.405  -0.404  -0.397  -0.393  -0.389  -0.379
 -0.379  -0.374  -0.344  -0.337  -0.329  -0.319  -0.313  -0.310
 -0.307  -0.303  -0.296  -0.291  -0.277  -0.266  -0.085
 -- Virtual --
 -0.057  -0.032  -0.021  -0.018  -0.013  -0.010  -0.002   0.007
  0.012   0.022   0.053   0.071   0.091   0.098   0.110   0.122
  0.128   0.130   0.132   0.134   0.136   0.139   0.140   0.147
  0.157   0.159   0.160   0.161   0.167   0.171   0.171   0.173
  0.181   0.187   0.192   0.195   0.199   0.200   0.203   0.206
  0.209   0.212   0.216   0.220   0.222   0.225   0.229   0.230
  0.231   0.237   0.239   0.243   0.244   0.247   0.250   0.251
  0.256   0.262   0.266   0.269   0.272   0.273   0.275   0.276
  0.279   0.285   0.290   0.292   0.301   0.303   0.308   0.311
  0.316   0.320   0.327   0.333   0.338   0.343   0.348   0.354
  0.358   0.368   0.369   0.377   0.386   0.391   0.397   0.406
  0.411   0.416   0.420   0.425   0.428   0.446   0.447   0.449
  0.456   0.475   0.476   0.477   0.482   0.487   0.489   0.499
  0.500   0.504   0.508   0.512   0.517   0.519   0.521   0.523
  0.528   0.530   0.532   0.536   0.538   0.540   0.544   0.552
  0.554   0.558   0.560   0.562   0.563   0.566   0.569   0.571
  0.576   0.580   0.584   0.585   0.587   0.591   0.595   0.595
  0.598   0.600   0.604   0.605   0.609   0.609   0.612   0.613
  0.614   0.615   0.619   0.623   0.624   0.628   0.632   0.637
  0.644   0.646   0.650   0.654   0.657   0.660   0.668   0.672
  0.678   0.679   0.682   0.684   0.694   0.697   0.701   0.703
  0.706   0.710   0.713   0.715   0.718   0.724   0.728   0.730
  0.735   0.739   0.740   0.744   0.748   0.754   0.755   0.756
  0.759   0.765   0.770   0.779   0.783   0.787   0.790   0.795
  0.798   0.803   0.809   0.815   0.819   0.828   0.832   0.837
  0.848   0.866   0.867   0.875   0.887   0.896   0.903   0.905
  0.909   0.913   0.919   0.922   0.930   0.934   0.938   0.945
  0.946   0.953   0.957   0.960   0.963   0.964   0.971   0.974
  0.977   0.979   0.982   0.984   0.989   0.992   0.994   0.997
  1.000   1.008   1.009   1.010   1.016   1.022   1.026   1.029
  1.031   1.035   1.037   1.042   1.046   1.050   1.055   1.060
  1.063   1.067   1.067   1.074   1.078   1.080   1.085   1.086
  1.094   1.096   1.099   1.108   1.108   1.114   1.115   1.120
  1.125   1.128   1.134   1.136   1.141   1.147   1.150   1.153
  1.160   1.164   1.167   1.179   1.187   1.194   1.200   1.211
  1.217   1.226   1.233   1.237   1.252   1.257   1.262   1.266
  1.273   1.279   1.289   1.293   1.299   1.306   1.314   1.318
  1.322   1.324   1.332   1.337   1.342   1.350   1.360   1.362
  1.363   1.368   1.373   1.375   1.386   1.388   1.399   1.406
  1.418   1.425   1.432   1.441   1.449   1.456   1.466   1.475
  1.479   1.481   1.488   1.495   1.510   1.514   1.519   1.522
  1.526   1.526   1.536   1.541   1.543   1.547   1.549   1.552
  1.560   1.562   1.566   1.569   1.577   1.582   1.593   1.600
  1.602   1.608   1.610   1.623   1.625   1.641   1.644   1.647
  1.658   1.662   1.684   1.688   1.699   1.713   1.716   1.735
  1.739   1.750   1.761   1.771   1.774   1.783   1.789   1.798
  1.800   1.804   1.812   1.827   1.831   1.836   1.846   1.850
  1.856   1.858   1.865   1.870   1.872   1.883   1.892   1.900
  1.903   1.908   1.910   1.917   1.920   1.922   1.933   1.941
  1.943   1.956   1.963   1.968   1.973   1.977   1.984   1.993
  1.999   2.008   2.019   2.025   2.030   2.038   2.042   2.043
  2.048   2.048   2.060   2.071   2.077   2.084   2.093   2.099
  2.106   2.109   2.112   2.121   2.124   2.130   2.144   2.148
  2.159   2.161   2.162   2.168   2.172   2.178   2.182   2.190
  2.191   2.192   2.205   2.210   2.221   2.227   2.229   2.231
  2.240   2.244   2.253   2.255   2.260   2.266   2.272   2.280
  2.280   2.287   2.290   2.294   2.308   2.318   2.322   2.323
  2.326   2.329   2.335   2.341   2.348   2.349   2.356   2.357
  2.366   2.372   2.374   2.377   2.380   2.386   2.389   2.400
  2.412   2.421   2.427   2.439   2.459   2.465   2.476   2.484
  2.502   2.510   2.515   2.529   2.536   2.555   2.569   2.577
  2.587   2.593   2.603   2.621   2.640   2.656   2.660   2.666
  2.674   2.681   2.685   2.691   2.698   2.707   2.711   2.715
  2.724   2.729   2.740   2.741   2.744   2.753   2.760   2.769
  2.771   2.777   2.778   2.782   2.784   2.787   2.797   2.801
  2.812   2.822   2.839   2.841   2.845   2.855   2.861   2.871
  2.878   2.888   2.894   2.901   2.908   2.914   2.936   2.946
  2.963   2.970   2.981   2.995   2.997   3.021   3.026   3.032
  3.055   3.055   3.091   3.140   3.191   3.277   3.352   3.375
  3.378   3.404   3.408   3.417   3.483   3.543   3.545   3.598
  3.701  13.210  13.226  13.279  13.315  13.363  13.416  13.626
 13.654  13.670  13.690  13.720  13.732  13.746  13.752  13.775
 13.809  13.823  13.850  13.883  13.903  13.932  14.042  14.074
 14.108  14.131  14.143  14.161  14.176  14.192  14.199  14.224
 14.237  14.255  14.273  14.279  14.294  14.332  14.411  14.572
 14.578  14.585  14.597  14.600  14.618  19.518  19.547  19.588
 
 Beta MOs
 -- Occupied --
-14.758 -14.633 -14.631 -10.518 -10.513 -10.509 -10.501 -10.495
-10.493 -10.492 -10.484 -10.482 -10.480 -10.478 -10.478 -10.477
-10.477 -10.472 -10.471 -10.470 -10.469 -10.469 -10.468 -10.468
-10.468 -10.468 -10.467 -10.466 -10.465 -10.463 -10.463 -10.463
-10.462 -10.462 -10.461 -10.461 -10.461 -10.461 -10.460 -10.460
-10.459 -10.457 -10.456 -10.454 -10.449 -10.447 -10.447  -1.129
 -1.027  -1.012  -0.997  -0.994  -0.984  -0.980  -0.973  -0.963
 -0.930  -0.928  -0.923  -0.887  -0.886  -0.876  -0.872  -0.855
 -0.853  -0.850  -0.844  -0.835  -0.820  -0.813  -0.789  -0.788
 -0.767  -0.739  -0.736  -0.732  -0.719  -0.714  -0.707  -0.692
 -0.691  -0.675  -0.674  -0.666  -0.662  -0.640  -0.640  -0.635
 -0.624  -0.602  -0.586  -0.578  -0.575  -0.570  -0.564  -0.560
 -0.556  -0.550  -0.544  -0.542  -0.528  -0.525  -0.523  -0.518
 -0.516  -0.514  -0.508  -0.505  -0.505  -0.501  -0.500  -0.498
 -0.495  -0.490  -0.479  -0.477  -0.474  -0.469  -0.466  -0.457
 -0.455  -0.451  -0.447  -0.444  -0.440  -0.438  -0.432  -0.427
 -0.426  -0.423  -0.421  -0.417  -0.415  -0.413  -0.411  -0.410
 -0.406  -0.404  -0.402  -0.395  -0.392  -0.387  -0.379  -0.378
 -0.375  -0.374  -0.343  -0.329  -0.310  -0.308  -0.305  -0.301
 -0.298  -0.292  -0.288  -0.287  -0.264
 -- Virtual --
 -0.146  -0.039  -0.031  -0.017  -0.015  -0.008  -0.004   0.004
  0.006   0.021   0.023   0.054   0.056   0.071   0.092   0.103
  0.111   0.123   0.129   0.131   0.134   0.136   0.137   0.140
  0.140   0.150   0.159   0.161   0.163   0.169   0.171   0.174
  0.178   0.183   0.184   0.189   0.192   0.199   0.201   0.204
  0.205   0.206   0.211   0.216   0.218   0.222   0.223   0.226
  0.230   0.232   0.233   0.238   0.245   0.247   0.247   0.248
  0.251   0.253   0.258   0.263   0.268   0.271   0.273   0.275
  0.276   0.278   0.281   0.286   0.293   0.296   0.302   0.305
  0.309   0.312   0.317   0.323   0.329   0.334   0.339   0.345
  0.349   0.356   0.360   0.369   0.373   0.379   0.388   0.394
  0.398   0.407   0.414   0.418   0.422   0.427   0.429   0.448
  0.451   0.454   0.460   0.476   0.477   0.480   0.484   0.489
  0.491   0.500   0.501   0.506   0.510   0.515   0.520   0.522
  0.524   0.527   0.530   0.532   0.535   0.539   0.540   0.541
  0.547   0.555   0.558   0.560   0.563   0.564   0.565   0.567
  0.571   0.572   0.577   0.582   0.585   0.587   0.589   0.593
  0.596   0.596   0.601   0.602   0.605   0.608   0.610   0.613
  0.615   0.617   0.617   0.620   0.624   0.626   0.628   0.632
  0.641   0.641   0.646   0.649   0.652   0.656   0.659   0.662
  0.670   0.673   0.680   0.683   0.684   0.686   0.696   0.699
  0.702   0.706   0.707   0.712   0.714   0.717   0.719   0.725
  0.730   0.731   0.736   0.741   0.743   0.746   0.750   0.755
  0.756   0.759   0.761   0.766   0.771   0.781   0.784   0.789
  0.793   0.796   0.801   0.806   0.811   0.817   0.821   0.835
  0.838   0.838   0.855   0.868   0.869   0.877   0.888   0.897
  0.905   0.906   0.910   0.914   0.920   0.922   0.931   0.936
  0.939   0.947   0.947   0.954   0.958   0.962   0.964   0.965
  0.973   0.975   0.979   0.981   0.983   0.984   0.991   0.993
  0.995   0.999   1.001   1.009   1.010   1.011   1.017   1.023
  1.027   1.030   1.033   1.037   1.039   1.045   1.048   1.051
  1.058   1.060   1.065   1.068   1.070   1.076   1.080   1.082
  1.086   1.087   1.096   1.099   1.100   1.109   1.112   1.116
  1.119   1.121   1.126   1.130   1.136   1.137   1.143   1.149
  1.151   1.154   1.161   1.168   1.169   1.181   1.189   1.196
  1.202   1.212   1.220   1.227   1.235   1.239   1.256   1.259
  1.265   1.270   1.274   1.282   1.292   1.296   1.305   1.307
  1.315   1.320   1.324   1.327   1.334   1.340   1.343   1.351
  1.363   1.364   1.366   1.371   1.374   1.380   1.388   1.391
  1.401   1.407   1.420   1.427   1.434   1.446   1.451   1.457
  1.467   1.480   1.483   1.488   1.492   1.498   1.511   1.515
  1.523   1.527   1.529   1.532   1.537   1.541   1.544   1.549
  1.553   1.558   1.563   1.564   1.569   1.572   1.578   1.583
  1.595   1.601   1.605   1.609   1.613   1.624   1.626   1.643
  1.648   1.648   1.659   1.664   1.685   1.692   1.701   1.714
  1.721   1.742   1.749   1.752   1.763   1.773   1.776   1.785
  1.790   1.799   1.801   1.805   1.813   1.830   1.832   1.836
  1.847   1.851   1.857   1.861   1.869   1.874   1.876   1.886
  1.893   1.902   1.904   1.910   1.912   1.918   1.924   1.930
  1.935   1.943   1.946   1.957   1.964   1.971   1.974   1.979
  1.987   1.994   2.003   2.013   2.022   2.026   2.031   2.040
  2.043   2.044   2.049   2.049   2.061   2.073   2.078   2.085
  2.094   2.099   2.108   2.111   2.115   2.122   2.126   2.132
  2.145   2.149   2.162   2.163   2.166   2.169   2.173   2.181
  2.184   2.193   2.197   2.201   2.207   2.215   2.223   2.230
  2.232   2.235   2.245   2.246   2.255   2.257   2.261   2.270
  2.274   2.282   2.284   2.292   2.293   2.295   2.310   2.319
  2.323   2.324   2.330   2.337   2.339   2.342   2.350   2.351
  2.359   2.364   2.370   2.374   2.376   2.378   2.382   2.388
  2.394   2.403   2.416   2.424   2.431   2.440   2.462   2.469
  2.477   2.486   2.508   2.511   2.516   2.530   2.538   2.557
  2.571   2.578   2.589   2.594   2.605   2.622   2.641   2.658
  2.663   2.668   2.677   2.686   2.687   2.696   2.703   2.711
  2.713   2.717   2.726   2.731   2.741   2.744   2.746   2.754
  2.764   2.770   2.773   2.779   2.780   2.783   2.785   2.789
  2.799   2.804   2.814   2.822   2.841   2.843   2.846   2.859
  2.863   2.872   2.879   2.890   2.895   2.902   2.910   2.915
  2.937   2.951   2.966   2.972   2.982   2.996   2.998   3.022
  3.027   3.036   3.055   3.061   3.092   3.141   3.193   3.278
  3.352   3.376   3.380   3.404   3.408   3.417   3.484   3.545
  3.548   3.598   3.701  13.210  13.228  13.279  13.318  13.364
 13.416  13.629  13.654  13.671  13.692  13.722  13.733  13.746
 13.754  13.776  13.809  13.824  13.850  13.883  13.903  13.932
 14.043  14.074  14.108  14.131  14.144  14.162  14.176  14.193
 14.201  14.224  14.240  14.255  14.274  14.280  14.294  14.332
 14.411  14.574  14.578  14.587  14.597  14.600  14.618  19.519
 19.560  19.589
 --------------------------------------------------------------
 
          Ground-State Mulliken Net Atomic Charges

     Atom                 Charge (a.u.)    Spin (a.u.)
  --------------------------------------------------------
      1 C                    -0.433948      -0.003408
      2 C                     0.139944       0.009816
      3 C                     0.062861       0.011355
      4 C                    -0.261848      -0.004793
      5 H                     0.225211       0.001041
      6 C                    -0.242833       0.009330
      7 H                     0.225934      -0.000519
      8 C                    -0.213305      -0.004870
      9 H                     0.225645       0.000267
     10 C                    -0.326944       0.004671
     11 H                     0.212039      -0.000090
     12 C                     0.155452      -0.002877
     13 C                    -0.272611       0.000956
     14 H                     0.217126       0.000383
     15 C                    -0.226098       0.000941
     16 H                     0.224983      -0.000046
     17 C                    -0.217153       0.007462
     18 H                     0.225087      -0.000497
     19 C                    -0.325582      -0.004461
     20 H                     0.209915       0.000436
     21 C                     0.138943       0.008880
     22 C                     0.095890       0.020750
     23 C                    -0.324146      -0.007662
     24 H                     0.236024      -0.000064
     25 C                     0.064110       0.077042
     26 C                    -0.018329      -0.020751
     27 N                    -0.172836       0.042551
     28 C                     0.202287       0.065866
     29 C                    -0.292605      -0.023972
     30 H                     0.270185       0.001016
     31 C                     0.076808       0.027408
     32 C                    -0.015396      -0.007688
     33 N                    -0.169489       0.017351
     34 H                     0.228195       0.001679
     35 H                     0.226131      -0.017162
     36 C                    -0.247584      -0.065764
     37 C                    -0.211303       0.286467
     38 C                    -0.264191       0.141742
     39 H                     0.286531      -0.008877
     40 C                    -0.293988      -0.168127
     41 H                     0.215976       0.008011
     42 C                     0.258358      -0.019617
     43 C                     0.168033       0.276874
     44 N                    -0.609905       0.381973
     45 C                     0.162644       0.422238
     46 C                     0.245999       0.111928
     47 H                     0.211848       0.010051
     48 C                    -0.294081      -0.223533
     49 C                    -0.253900       0.071766
     50 C                    -0.209630       0.398241
     51 C                    -0.274293       0.074946
     52 H                     0.265860      -0.005725
     53 H                     0.224321      -0.024725
     54 H                     0.221400      -0.008298
     55 C                    -0.225031      -0.058613
     56 C                    -0.604386       0.019616
     57 C                    -0.586135       0.022817
     58 C                     0.171010      -0.034675
     59 C                    -0.221683       0.020763
     60 C                    -0.316504       0.055126
     61 C                     0.077314      -0.010921
     62 C                     0.209195       0.031966
     63 C                    -0.291971       0.080520
     64 H                     0.273842      -0.005602
     65 H                     0.236889      -0.002011
     66 H                     0.221237      -0.003004
     67 C                    -0.519161       0.003599
     68 C                    -0.537747      -0.000001
     69 H                     0.243601      -0.000489
     70 H                     0.254694      -0.000381
     71 H                     0.245824       0.003014
     72 H                     0.248923       0.000203
     73 H                     0.232824      -0.001194
     74 H                     0.224791       0.002040
     75 H                     0.222608       0.004139
     76 H                     0.243263      -0.000710
     77 H                     0.220807       0.002828
     78 H                     0.224053       0.001058
  --------------------------------------------------------
  Sum of atomic charges =    -0.000000
  Sum of spin   charges =     2.000000

 -----------------------------------------------------------------
                    Cartesian Multipole Moments
 -----------------------------------------------------------------
    Charge (ESU x 10^10)
                -0.0000
    Dipole Moment (Debye)
         X       5.6940      Y     -13.8734      Z       1.9467
       Tot      15.1223
    Quadrupole Moments (Debye-Ang)
        XX    -245.7594     XY     -14.7142     YY    -181.8803
        XZ       4.9795     YZ     -16.7862     ZZ    -253.2748
    Octopole Moments (Debye-Ang^2)
       XXX    -639.0785    XXY    1310.7905    XYY     -43.0004
       YYY    3886.5244    XXZ    -324.2094    XYZ     -86.6986
       YYZ    -158.8127    XZZ    -273.5180    YZZ    1494.5394
       ZZZ   -1086.2377
    Hexadecapole Moments (Debye-Ang^3)
      XXXX  -11832.0701   XXXY    8157.5390   XXYY  -13000.4091
      XYYY    6282.7499   YYYY  -68462.1378   XXXZ   -2111.3321
      XXYZ    2538.2219   XYYZ     227.9803   YYYZ    5822.4658
      XXZZ   -3397.6755   XYZZ    3033.1453   YYZZ  -13399.9656
      XZZZ   -2264.6660   YZZZ    8652.1837   ZZZZ   -7955.4658
 -----------------------------------------------------------------
 Calculating analytic gradient of the SCF energy
 -1.258136999794940E-003 -1.258095725545550E-003
 -1.258111263679391E-003 -1.258121441200416E-003
 -1.258140418689673E-003 -1.258092326734729E-003
 -1.258121422865450E-003 -1.258111301909878E-003
 -1.258112511252040E-003 -1.258120175346973E-003
 -1.258121511540303E-003 -1.258111177367933E-003
 -1.258125279992834E-003 -1.258107421409233E-003
 -1.258119189627244E-003 -1.258113492263880E-003
 -1.258118924015350E-003 -1.258113817001271E-003
 -1.258101864536729E-003 -1.258130835165137E-003
 -1.258118283228433E-003 -1.258114389749913E-003
 -1.258104237215322E-003 -1.258128484740241E-003
 -1.258109405171421E-003 -1.258123297177050E-003
 -1.258102328183110E-003 -1.258130357040462E-003
 -1.258121856252254E-003 -1.258110840367741E-003
 -1.258099984442335E-003 -1.258132764499491E-003
 -1.258115630599647E-003 -1.258117056823363E-003
 -1.258130215734749E-003 -1.258102484384946E-003
 -1.258088513861864E-003 -1.258144215201729E-003
 -1.258098257980615E-003 -1.258134454258727E-003
 -1.258129413278257E-003 -1.258103307164990E-003
 -1.258077178640758E-003 -1.258155534000782E-003
 -1.258105915044910E-003 -1.258126776804626E-003
 -1.258125153574425E-003 -1.258107588714652E-003
 -1.258096601826503E-003 -1.258136146947891E-003
 -1.258099293989189E-003 -1.258133436000751E-003
 -1.258124914537755E-003 -1.258107821158519E-003
 -1.258108753598344E-003 -1.258123985941628E-003
 -1.258109956073432E-003 -1.258122720211413E-003
 -1.258115841381882E-003 -1.258116850400814E-003
 -1.258090499429830E-003 -1.258142222884307E-003
 -1.258089589548869E-003 -1.258143113987767E-003
 -1.258111211446924E-003 -1.258121490099722E-003
 -1.258107904901093E-003 -1.258124797253616E-003
 -1.258115759208692E-003 -1.258116915565660E-003
 -1.258128555107647E-003 -1.258104160790742E-003
 -1.258118334147774E-003 -1.258114386707415E-003
 -1.258104924019171E-003 -1.258127751531300E-003
 -1.258106516195282E-003 -1.258126174097272E-003
 -1.258125408105960E-003 -1.258107300457732E-003
 -1.258103015065091E-003 -1.258129676895650E-003
 -1.258101664263203E-003 -1.258131038425348E-003
 -1.258137588377975E-003 -1.258095110806148E-003
 -1.258109929419422E-003 -1.258122760443956E-003
 -1.258090363401574E-003 -1.258142379240335E-003
 -1.258123130507145E-003 -1.258109600955506E-003
 -1.258102270130994E-003 -1.258130445891992E-003
 -1.258086952200029E-003 -1.258145787145351E-003
 -1.258113802567165E-003 -1.258118935777991E-003
 -1.258099947761878E-003 -1.258132760778012E-003
 -1.258071876385901E-003 -1.258160841403715E-003
 -1.258123239063013E-003 -1.258109494730183E-003
 -1.258100612647306E-003 -1.258132134548534E-003
 -1.258095811224855E-003 -1.258136959501631E-003
 -1.258113698167972E-003 -1.258118992979037E-003
 -1.258100041310962E-003 -1.258132648503406E-003
 -1.258096479847656E-003 -1.258136254493780E-003
 -1.258114226891903E-003 -1.258118476814071E-003
 -1.258098908209021E-003 -1.258133805359618E-003
 -1.258087226221874E-003 -1.258145496270730E-003
 -1.258123504607924E-003 -1.258109213438503E-003
 -1.258109654833473E-003 -1.258123021930348E-003
 -1.258107272984375E-003 -1.258125414911438E-003
 -1.258124265702287E-003 -1.258108474481050E-003
 -1.258085157863708E-003 -1.258147552838025E-003
 -1.258126870795129E-003 -1.258105902964077E-003
 -1.258111703752320E-003 -1.258121031647284E-003
 -1.258130081250024E-003 -1.258102638066697E-003
 -1.258118270980556E-003 -1.258114506877906E-003
 -1.258125162148329E-003 -1.258107574059084E-003
 -1.258103279286984E-003 -1.258129433328874E-003
 -1.258126027805330E-003 -1.258106717887581E-003
 -1.258142149288756E-003 -1.258090579882001E-003
 -1.258088018115407E-003 -1.258144700377208E-003
 -1.258128283743288E-003 -1.258104481902440E-003
 -1.258133041654719E-003 -1.258099747012339E-003
 -1.258101416026597E-003 -1.258131354743918E-003
 -1.258124323815446E-003 -1.258108498596546E-003
 -1.258102461184005E-003 -1.258130305959188E-003
 -1.258130173036294E-003 -1.258102582124502E-003
 -1.258113923139536E-003 -1.258118866273559E-003
 -1.258119339081833E-003 -1.258113394885100E-003
 -1.258116208312372E-003 -1.258116526123371E-003
 -1.258119320716564E-003 -1.258113454214805E-003
 -1.258152628785371E-003 -1.258080097750949E-003
 -1.258101602386638E-003 -1.258131106157266E-003
 -1.258127993684346E-003 -1.258104773569111E-003
 -1.258115816966349E-003 -1.258116894730507E-003
 -1.258110993918603E-003 -1.258121694218611E-003
 -1.258117851299430E-003 -1.258114875701422E-003
 -1.258109908600407E-003 -1.258122802319009E-003
 -1.258123008684643E-003 -1.258109719936519E-003
 -1.258113259571637E-003 -1.258119508903623E-003
 -1.258108110826261E-003 -1.258124595904368E-003
 -1.258101939994959E-003 -1.258130820409940E-003
 -1.258116173830060E-003 -1.258116599747256E-003
 -1.258148250385600E-003 -1.258084459609884E-003
 -1.258093899822575E-003 -1.258138864309193E-003
 -1.258132434445661E-003 -1.258100317624582E-003
 -1.258095152114021E-003 -1.258137558218981E-003
 -1.258110848291199E-003 -1.258121881619270E-003
 -1.258117193415268E-003 -1.258115537249390E-003
 -1.258110106228612E-003 -1.258122644068774E-003
 -1.258126476350806E-003 -1.258106258002110E-003
 -1.258124527303650E-003 -1.258108227326307E-003
 -1.258100268583307E-003 -1.258132457398153E-003
 -1.258125525645689E-003 -1.258107198402564E-003
 -1.258102862406172E-003 -1.258129888158554E-003
 -1.258091788031010E-003 -1.258140935620004E-003
 -1.258105309404359E-003 -1.258127432792941E-003
 -1.258134975603232E-003 -1.258097788203063E-003
 -1.258102413074266E-003 -1.258130306794519E-003
 -1.258098158198698E-003 -1.258134578260671E-003
 -1.258110485719431E-003 -1.258122271090558E-003
 -1.258105727487555E-003 -1.258127003713104E-003
 -1.258102586363343E-003 -1.258130161231690E-003
 -1.258093049153380E-003 -1.258139691772975E-003
 -1.258099765394294E-003 -1.258132970426026E-003
 -1.258145012029428E-003 -1.258087744486295E-003
 -1.258111572370577E-003 -1.258121186912640E-003
 -1.258115638033102E-003 -1.258117108968510E-003
 -1.258113880238976E-003 -1.258118881643146E-003
 -1.258134272763378E-003 -1.258098468983377E-003
 -1.258098303864346E-003 -1.258134411998623E-003
 -1.258141993255345E-003 -1.258090728233833E-003
 -1.258099455512894E-003 -1.258133304737932E-003
 -1.258123445270970E-003 -1.258109281502858E-003
 -1.258129306573764E-003 -1.258103444958735E-003
 -1.258126362538776E-003 -1.258106393676480E-003
 -1.258119490631376E-003 -1.258113228723532E-003
 -1.258127496175078E-003 -1.258105233576320E-003
 -1.258108876387881E-003 -1.258123867971332E-003
 -1.258135930944276E-003 -1.258096790525615E-003
 -1.258124496062611E-003 -1.258108287460523E-003
 -1.258126202099135E-003 -1.258106541134147E-003
 -1.258090997573718E-003 -1.258141715053727E-003
 -1.258147241717054E-003 -1.258085523155448E-003
 -1.258115434223866E-003 -1.258117315186352E-003
 -1.258134794740918E-003 -1.258097906092428E-003
 -1.258119751708516E-003 -1.258113009945215E-003
 -1.258117588058555E-003 -1.258115155068249E-003
 -1.258092177045391E-003 -1.258140514509920E-003
 -1.258126555641604E-003 -1.258106227862926E-003
 -1.258125791162292E-003 -1.258106958866336E-003
 -1.258129024195445E-003 -1.258103686184904E-003
 -1.258151196442148E-003 -1.258081564140484E-003
 -1.258100178635536E-003 -1.258132564812079E-003
 -1.258148512587975E-003 -1.258084213855277E-003
 -1.258140378633768E-003 -1.258092398715773E-003
 -1.258102781587059E-003 -1.258129952400548E-003
 -1.258102441764818E-003 -1.258130255900892E-003
 -1.258125081449758E-003 -1.258107681773205E-003
 -1.258124845248001E-003 -1.258107906577514E-003
 -1.258110697562615E-003 -1.258122011353993E-003
 -1.258128813225115E-003 -1.258103935974462E-003
 -1.258108049878574E-003 -1.258124687033192E-003
 -1.258117150588660E-003 -1.258115585218321E-003
 -1.258118569897582E-003 -1.258114200528486E-003
 -1.258121610824950E-003 -1.258111123018282E-003
 -1.258125228449310E-003 -1.258107495939159E-003
 -1.258136874494065E-003 -1.258095837883489E-003
 -1.258106014831199E-003 -1.258126712120411E-003
 -1.258117320205455E-003 -1.258115408496130E-003
 -1.258120648198268E-003 -1.258112098653704E-003
 -1.258135822937735E-003 -1.258096890815076E-003
 -1.258115325842601E-003 -1.258117399959554E-003
 -1.258137960964043E-003 -1.258094791674325E-003
 -1.258113556450652E-003 -1.258119129501991E-003
 -1.258114829653413E-003 -1.258117900550005E-003
 -1.258107976497497E-003 -1.258124723426925E-003
 -1.258089797306663E-003 -1.258142922589807E-003
 -1.258115576797691E-003 -1.258117154869705E-003
 -1.258104174678033E-003 -1.258128569680024E-003
 -1.258104527413194E-003 -1.258128198894643E-003
 -1.258135926686036E-003 -1.258096816673557E-003
 -1.258117306469773E-003 -1.258115411699564E-003
 -1.258123730451019E-003 -1.258109010495260E-003
 -1.258131682469918E-003 -1.258101072738287E-003
 -1.258120337432508E-003 -1.258112399632494E-003
 -1.258116990663962E-003 -1.258115749301920E-003
 -1.258137526484438E-003 -1.258095220249123E-003
 -1.258116584647890E-003 -1.258116137311144E-003
 -1.258121602110744E-003 -1.258111143988087E-003
 -1.258114676017661E-003 -1.258118059803394E-003
 -1.258120434732793E-003 -1.258112302916367E-003
 -1.258118622193152E-003 -1.258114129866619E-003
 -1.258123691135084E-003 -1.258109042155016E-003
 -1.258118133025145E-003 -1.258114581737566E-003
 -1.258146369847677E-003 -1.258086371939510E-003
 -1.258116852866794E-003 -1.258115862258409E-003
 -1.258117970896207E-003 -1.258114714387339E-003
 -1.258138335101643E-003 -1.258094366276533E-003
 -1.258134102097532E-003 -1.258098633140428E-003
 -1.258115666807957E-003 -1.258117068366218E-003
 -1.258116770662307E-003 -1.258115957016776E-003
 -1.258134877982577E-003 -1.258097862195599E-003
 -1.258125856667770E-003 -1.258106866565272E-003
 -1.258124874390934E-003 -1.258107850348059E-003
 -1.258111430398176E-003 -1.258121292888651E-003
 -1.258132210227975E-003 -1.258100507203419E-003
 -1.258107993276552E-003 -1.258124737436475E-003
 -1.258133600182440E-003 -1.258099096978482E-003
 -1.258109523717840E-003 -1.258123226239495E-003
 -1.258132305712952E-003 -1.258100436891383E-003
 -1.258133355526254E-003 -1.258099377162263E-003
 -1.258126988644316E-003 -1.258105732021836E-003
 -1.258131312800062E-003 -1.258101422361883E-003
 -1.258141164524458E-003 -1.258091544827322E-003
 -1.258125504887403E-003 -1.258107215176057E-003
 -1.258114059948123E-003 -1.258118640931926E-003
 -1.258117615157548E-003 -1.258115076826716E-003
 -1.258118068182484E-003 -1.258114654124848E-003
 -1.258138199526319E-003 -1.258094509303995E-003
 -1.258126642651306E-003 -1.258106095008241E-003
 -1.258112760072140E-003 -1.258119980225829E-003
 -1.258125813653203E-003 -1.258106923111704E-003
 -1.258110466087197E-003 -1.258122250321635E-003
 -1.258116428847784E-003 -1.258116257854127E-003
 -1.258106773508034E-003 -1.258125924142901E-003
 -1.258099077142961E-003 -1.258133640079728E-003
 -1.258126045555795E-003 -1.258106688519697E-003
 -1.258114579321062E-003 -1.258118134920754E-003
 -1.258101802136425E-003 -1.258130934481514E-003
 -1.258131836562980E-003 -1.258100864572304E-003
 -1.258108934371913E-003 -1.258123784208195E-003
 -1.258109679215520E-003 -1.258123046896030E-003
 -1.258132410380669E-003 -1.258100315332900E-003
 -1.258125905690665E-003 -1.258106760504927E-003
 -1.258102188247735E-003 -1.258130542179618E-003
 -1.258136363852383E-003 -1.258096356002991E-003
 -1.258109651831523E-003 -1.258123052373429E-003
 -1.258097599908950E-003 -1.258135111836193E-003
 -1.258126471319436E-003 -1.258106273821524E-003
 -1.258116849777984E-003 -1.258115869773000E-003
 Gradient of SCF Energy
            1           2           3           4           5           6
    1   0.0024310  -0.0004845  -0.0011432   0.0000460   0.0002484  -0.0001508
    2  -0.0004289   0.0027243   0.0001218   0.0004231  -0.0002142   0.0001032
    3  -0.0003352  -0.0000989   0.0008091  -0.0002393  -0.0000302   0.0003312
            7           8           9          10          11          12
    1  -0.0001681  -0.0007314  -0.0002940   0.0002828  -0.0002258   0.0004428
    2  -0.0003905   0.0000038  -0.0002698   0.0005840  -0.0001897   0.0006582
    3   0.0002787  -0.0000514   0.0000239  -0.0007791  -0.0000642  -0.0023864
           13          14          15          16          17          18
    1   0.0003191  -0.0000349   0.0005697   0.0001593  -0.0010311   0.0000439
    2   0.0000085  -0.0001873   0.0002764   0.0000284  -0.0002386  -0.0001105
    3  -0.0008534   0.0001455   0.0011087  -0.0002330  -0.0008388  -0.0002284
           19          20          21          22          23          24
    1  -0.0002450  -0.0000679  -0.0018405   0.0082945  -0.0003499   0.0001896
    2  -0.0004346  -0.0001858  -0.0004643  -0.0029040   0.0080156   0.0001190
    3   0.0002374  -0.0003138   0.0004713   0.0020592  -0.0007655   0.0002474
           25          26          27          28          29          30
    1   0.0060333  -0.0053476   0.0039165  -0.0065697   0.0006926   0.0000697
    2  -0.0075863   0.0073690  -0.0046610   0.0025372  -0.0021458  -0.0004313
    3   0.0022570  -0.0023972   0.0016464   0.0012628   0.0004459  -0.0003093
           31          32          33          34          35          36
    1  -0.0056429   0.0007862  -0.0013774   0.0009919  -0.0000275   0.0180560
    2  -0.0020680   0.0052885  -0.0034793   0.0003104  -0.0000188  -0.0100884
    3  -0.0017261   0.0001085  -0.0002457  -0.0004308  -0.0003908   0.0058316
           37          38          39          40          41          42
    1  -0.0069421  -0.0089328  -0.0001062   0.0006331   0.0003153   0.0201173
    2   0.0083458  -0.0095211  -0.0007339   0.0040954  -0.0003668  -0.0040767
    3  -0.0054072   0.0088607   0.0002922  -0.0018474   0.0003125   0.0018324
           43          44          45          46          47          48
    1  -0.0152865  -0.0128666  -0.0345342   0.0140107   0.0007638  -0.0014476
    2   0.0166867   0.0160479   0.0243236  -0.0336240  -0.0000632   0.0028574
    3  -0.0106782  -0.0150240  -0.0142749   0.0253975  -0.0001028  -0.0000717
           49          50          51          52          53          54
    1   0.0168442  -0.0241122   0.0239264   0.0003565  -0.0006295  -0.0008387
    2   0.0097707   0.0182476  -0.0319229  -0.0003457   0.0000899  -0.0010570
    3  -0.0092736  -0.0089157   0.0200910  -0.0001755  -0.0000479   0.0003027
           55          56          57          58          59          60
    1   0.0087382   0.0002474  -0.0004123   0.0099117  -0.0056642   0.0021146
    2  -0.0078499  -0.0012501   0.0007413  -0.0059772   0.0067398  -0.0004972
    3   0.0007811   0.0001136   0.0024303   0.0091735  -0.0044519   0.0034491
           61          62          63          64          65          66
    1  -0.0015524   0.0066264  -0.0080667   0.0006646   0.0000569  -0.0005113
    2  -0.0026551  -0.0036720   0.0033978  -0.0011963   0.0002522   0.0007700
    3  -0.0028590   0.0040171  -0.0072793  -0.0005315   0.0006964  -0.0005207
           67          68          69          70          71          72
    1   0.0009365  -0.0012916   0.0004612  -0.0005708  -0.0003249  -0.0000188
    2  -0.0014176   0.0000758   0.0008089   0.0006972   0.0001290   0.0000677
    3   0.0005505  -0.0004839  -0.0002494  -0.0002003  -0.0006125   0.0007490
           73          74          75          76          77          78
    1  -0.0000790   0.0003625  -0.0000684  -0.0001669  -0.0001810  -0.0003236
    2   0.0003402  -0.0004401  -0.0000549  -0.0000279   0.0003124  -0.0001217
    3   0.0003275  -0.0001029  -0.0000831  -0.0006002  -0.0001917   0.0000612
 Max gradient component =       3.453E-02
 RMS gradient           =       6.939E-03
 Computing fast IEFPCM-SWIG gradient.
 Updating gradient with PCM contributions...
 -- total gradient after adding PCM contribution --
---------------------------------------------------
  Atom         X              Y              Z     
---------------------------------------------------
   1       0.002431      -0.000429      -0.000335
   2      -0.000484       0.002724      -0.000099
   3      -0.001143       0.000122       0.000809
   4       0.000046       0.000423      -0.000240
   5       0.000249      -0.000214      -0.000030
   6      -0.000151       0.000103       0.000331
   7      -0.000168      -0.000390       0.000279
   8      -0.000731       0.000004      -0.000051
   9      -0.000294      -0.000270       0.000024
  10       0.000283       0.000584      -0.000779
  11      -0.000226      -0.000190      -0.000065
  12       0.000443       0.000658      -0.002387
  13       0.000319       0.000008      -0.000854
  14      -0.000035      -0.000187       0.000146
  15       0.000569       0.000276       0.001109
  16       0.000160       0.000028      -0.000233
  17      -0.001031      -0.000239      -0.000839
  18       0.000044      -0.000111      -0.000229
  19      -0.000245      -0.000435       0.000238
  20      -0.000068      -0.000186      -0.000314
  21      -0.001841      -0.000464       0.000471
  22       0.008295      -0.002904       0.002059
  23      -0.000350       0.008015      -0.000766
  24       0.000190       0.000119       0.000247
  25       0.006033      -0.007586       0.002257
  26      -0.005345       0.007366      -0.002396
  27       0.003914      -0.004658       0.001645
  28      -0.006570       0.002537       0.001263
  29       0.000693      -0.002146       0.000446
  30       0.000070      -0.000431      -0.000309
  31      -0.005643      -0.002068      -0.001726
  32       0.000785       0.005285       0.000108
  33      -0.001376      -0.003476      -0.000245
  34       0.000992       0.000310      -0.000431
  35      -0.000028      -0.000019      -0.000391
  36       0.018056      -0.010088       0.005831
  37      -0.006942       0.008346      -0.005407
  38      -0.008933      -0.009521       0.008861
  39      -0.000106      -0.000734       0.000292
  40       0.000633       0.004095      -0.001847
  41       0.000315      -0.000366       0.000312
  42       0.020117      -0.004077       0.001832
  43      -0.015287       0.016687      -0.010678
  44      -0.012866       0.016048      -0.015024
  45      -0.034535       0.024324      -0.014275
  46       0.014011      -0.033624       0.025397
  47       0.000764      -0.000063      -0.000103
  48      -0.001447       0.002857      -0.000072
  49       0.016844       0.009771      -0.009274
  50      -0.024112       0.018247      -0.008915
  51       0.023926      -0.031923       0.020091
  52       0.000357      -0.000346      -0.000175
  53      -0.000629       0.000090      -0.000048
  54      -0.000838      -0.001057       0.000303
  55       0.008738      -0.007850       0.000781
  56       0.000248      -0.001250       0.000114
  57      -0.000412       0.000741       0.002430
  58       0.009911      -0.005977       0.009173
  59      -0.005664       0.006739      -0.004452
  60       0.002114      -0.000497       0.003449
  61      -0.001552      -0.002655      -0.002859
  62       0.006626      -0.003672       0.004017
  63      -0.008067       0.003398      -0.007279
  64       0.000664      -0.001196      -0.000532
  65       0.000057       0.000253       0.000697
  66      -0.000511       0.000770      -0.000520
  67       0.000936      -0.001418       0.000550
  68      -0.001292       0.000076      -0.000484
  69       0.000461       0.000809      -0.000249
  70      -0.000571       0.000697      -0.000200
  71      -0.000325       0.000129      -0.000613
  72      -0.000018       0.000068       0.000749
  73      -0.000079       0.000340       0.000328
  74       0.000363      -0.000440      -0.000103
  75      -0.000069      -0.000055      -0.000083
  76      -0.000167      -0.000028      -0.000600
  77      -0.000181       0.000312      -0.000192
  78      -0.000324      -0.000121       0.000061
---------------------------------------------------
 Number of fixed atoms: 0
 Gradient time:  CPU 956.04 s  wall 238.69 s
 Geometry Optimization Parameters
   NAtoms,    NIC,     NZ,  NCons,   NDum,   NFix, NCnnct, MaxDiis
       78     630       0       0       0       0       0       0


** GEOMETRY OPTIMIZATION IN DELOCALIZED INTERNAL COORDINATES **
   Searching for a Minimum

   Optimization Cycle:   1

                       Coordinates (Angstroms)
     ATOM                X               Y               Z
      1  C         0.1361820000   -4.5324760000    1.0858460000
      2  C         0.1169050000   -4.3819210000    2.6056440000
      3  C         1.5829030000   -4.1484620000    0.7917880000
      4  C         2.2052240000   -4.1302710000   -0.4398480000
      5  H         1.6571980000   -4.3763030000   -1.3415470000
      6  C         3.5506530000   -3.7932320000   -0.4987330000
      7  H         4.0572130000   -3.7694370000   -1.4542800000
      8  C         4.2507330000   -3.4853230000    0.6627480000
      9  H         5.2996790000   -3.2293330000    0.6009940000
     10  C         3.6220070000   -3.5040060000    1.8984600000
     11  H         4.1762160000   -3.2689490000    2.7977310000
     12  C         2.2771440000   -3.8385460000    1.9579450000
     13  C        -0.9464990000   -4.5984800000    3.4573150000
     14  H        -1.9070820000   -4.9235790000    3.0758060000
     15  C        -0.7618790000   -4.3907100000    4.8172540000
     16  H        -1.5822260000   -4.5554590000    5.5024230000
     17  C         0.4714770000   -3.9726420000    5.3040480000
     18  H         0.6000480000   -3.8138640000    6.3660810000
     19  C         1.5388980000   -3.7565410000    4.4454960000
     20  H         2.4957610000   -3.4314770000    4.8330810000
     21  C         1.3554990000   -3.9628230000    3.0871680000
     22  C        -2.1351780000   -3.6869810000    0.0962600000
     23  C        -2.9353570000   -2.5969180000   -0.2321690000
     24  H        -3.9439960000   -2.7752510000   -0.5813420000
     25  C        -2.4865430000   -1.2924940000   -0.1416590000
     26  C        -3.3503430000   -0.2155250000   -0.4938000000
     27  N        -4.0691070000    0.6344670000   -0.7850610000
     28  C        -0.8270730000   -3.4698410000    0.5416610000
     29  C        -0.3748890000   -2.1525490000    0.6151860000
     30  H         0.6341070000   -1.9488500000    0.9429010000
     31  C        -1.1728430000   -1.0717520000    0.2838480000
     32  C        -0.6492240000    0.2508860000    0.3779490000
     33  N        -0.2140180000    1.3128840000    0.4572740000
     34  H         5.4470170000   -6.5226080000   -0.3075780000
     35  H         7.2090800000   -8.0293900000    0.6149820000
     36  C         5.1827730000   -7.3710540000    0.3101020000
     37  C         6.1629230000   -8.2034230000    0.8245440000
     38  C         3.8512620000   -7.6129720000    0.5777310000
     39  H         3.1109290000   -6.9486460000    0.1575750000
     40  C         5.7742230000   -9.2723350000    1.6099820000
     41  H         6.5390130000   -9.9324650000    2.0001070000
     42  C         3.4647890000   -8.6917490000    1.3837680000
     43  C         4.4429880000   -9.5410650000    1.9112910000
     44  N         2.1168930000   -8.9245860000    1.6494680000
     45  C         2.6239630000  -10.8015470000    3.0889390000
     46  C         1.7022940000   -9.9043640000    2.5422700000
     47  H         2.8467150000  -12.5011170000    4.3602270000
     48  C         2.1458910000  -11.7862660000    3.9472500000
     49  C         0.3500150000  -10.0036640000    2.8931250000
     50  C         0.8103920000  -11.9008490000    4.2858450000
     51  C        -0.0873840000  -10.9912770000    3.7521100000
     52  H        -0.3663590000   -9.3032130000    2.4896750000
     53  H         0.4790730000  -12.6837910000    4.9535510000
     54  H        -1.1391610000  -11.0462780000    4.0013840000
     55  C         4.1014610000  -10.7689630000    2.7411130000
     56  C         4.9248330000  -10.7550650000    4.0391820000
     57  C         4.4376190000  -12.0273770000    1.9233900000
     58  C         1.1380320000   -8.1532920000    0.9748030000
     59  C         0.4401980000   -8.6875930000   -0.0971800000
     60  C        -0.4929690000   -7.8965160000   -0.7313990000
     61  C        -0.7090300000   -6.5619920000   -0.3806390000
     62  C         0.0259680000   -6.0119080000    0.6720700000
     63  C         0.9011030000   -6.8522680000    1.3620780000
     64  H         1.4712270000   -6.4737270000    2.1993910000
     65  H         0.6125460000   -9.7100600000   -0.4056890000
     66  H        -1.0758320000   -8.3142780000   -1.5432160000
     67  C        -1.7897580000   -5.8272090000   -1.1161930000
     68  C        -2.6956960000   -5.0520490000   -0.1600740000
     69  H        -2.3786530000   -6.5508820000   -1.6808400000
     70  H        -1.3791140000   -5.1369340000   -1.8595310000
     71  H        -2.8207210000   -5.6232870000    0.7644130000
     72  H        -3.6935210000   -4.9488430000   -0.5872180000
     73  H         3.8551530000  -12.0586110000    1.0027170000
     74  H         4.2175130000  -12.9329620000    2.4900350000
     75  H         5.4940060000  -12.0524440000    1.6530580000
     76  H         4.6965580000   -9.8686860000    4.6292320000
     77  H         5.9946800000  -10.7595510000    3.8343550000
     78  H         4.7149490000  -11.6317340000    4.6510690000
   Point Group: c1    Number of degrees of freedom:   228


   Energy is  -1855.392496705


 Attempting to Generate Delocalized Internal Coordinates

228 Hessian modes will be used to form the next step
  Hessian Eigenvalues:
     0.004159    0.004252    0.005826    0.008585    0.009752    0.011317
     0.013003    0.013380    0.014020    0.015138    0.015278    0.016000
     0.016535    0.016764    0.017320    0.017518    0.018410    0.018642
     0.019053    0.019347    0.019412    0.019969    0.021061    0.021286
     0.021433    0.021792    0.023258    0.023507    0.023508    0.023523
     0.023706    0.023784    0.023822    0.023828    0.023833    0.023920
     0.023924    0.023927    0.023932    0.023945    0.023953    0.024018
     0.024076    0.024113    0.024122    0.024147    0.024169    0.024201
     0.024219    0.024353    0.024410    0.024549    0.024551    0.024556
     0.024570    0.024583    0.024602    0.024720    0.024764    0.024804
     0.024901    0.037272    0.044702    0.053358    0.053626    0.054313
     0.055114    0.055322    0.055502    0.055662    0.056284    0.067675
     0.077942    0.079332    0.085011    0.091633    0.093582    0.113132
     0.118192    0.125136    0.132484    0.159682    0.159941    0.159986
     0.159990    0.159991    0.159994    0.159994    0.159996    0.159997
     0.159999    0.160000    0.160000    0.160000    0.160000    0.160000
     0.160000    0.160000    0.160000    0.160000    0.160000    0.160000
     0.160000    0.160000    0.160000    0.160000    0.160000    0.160000
     0.167096    0.179029    0.191305    0.200000    0.200000    0.200000
     0.200000    0.219994    0.219997    0.220000    0.220000    0.220716
     0.224508    0.225987    0.226004    0.226009    0.226328    0.230696
     0.234137    0.239760    0.244596    0.244872    0.244914    0.245103
     0.245902    0.248635    0.248839    0.249368    0.249537    0.249851
     0.249890    0.249968    0.249974    0.250000    0.271172    0.284199
     0.286345    0.286937    0.287016    0.287645    0.292271    0.295861
     0.300723    0.317151    0.319374    0.343118    0.343656    0.347300
     0.347323    0.347477    0.347778    0.348243    0.348707    0.348951
     0.349276    0.351855    0.355755    0.355773    0.356116    0.356352
     0.356438    0.357122    0.357165    0.357267    0.357336    0.357342
     0.357761    0.357806    0.358130    0.358143    0.358178    0.358256
     0.358689    0.358715    0.359628    0.359834    0.360193    0.394141
     0.395449    0.406265    0.416246    0.417476    0.419845    0.422455
     0.422720    0.426087    0.427276    0.427276    0.428967    0.429454
     0.435733    0.436234    0.445637    0.453036    0.456468    0.459667
     0.459706    0.461873    0.465848    0.467896    0.468438    0.472535
     0.473235    0.473642    0.476042    0.476229    0.477469    0.478125
     0.478728    0.479849    0.480131    0.482665    0.482695    0.486926
     0.487595    0.487637    0.488288    0.492098    1.341295    1.342523

 Minimum Search - Taking Simple RFO Step
 Searching for Lamda that Minimizes Along All modes
 Value Taken    Lamda =  -0.01206211
 Step Taken.  Stepsize is  0.205869

                             Maximum     Tolerance    Cnvgd?
         Gradient           0.029168      0.000075      NO
         Displacement       0.068734      0.001200      NO
         Energy change     *********      0.000000      NO


 New Cartesian Coordinates Obtained by Inverse Iteration

 Displacement from previous Coordinates is:  0.702791
 Adding empirical dispersion correction 
 ----------------------------------------------------------------
 Doing -D3(BJ) with
 s6 =   1.00000
 s8 =   0.00000
 a1 =   0.48600
 a2 =   4.50000
 -D3 energy including 3body term =     -0.0783618174 hartrees
 ----------------------------------------------------------------
 Adding gCP correction 
 ----------------------------------------------------------------
 gCP energy =      0.1088425665 hartrees
 ----------------------------------------------------------------
             Standard Nuclear Orientation (Angstroms)
    I     Atom           X                Y                Z
 ----------------------------------------------------------------
    1      C       0.1418029634    -4.5337006242     1.0919980634
    2      C       0.1320455735    -4.3929218377     2.6160384223
    3      C       1.5968324930    -4.1629620168     0.8003334419
    4      C       2.2193493685    -4.1399387776    -0.4312827949
    5      H       1.6652421378    -4.3648092103    -1.3349134134
    6      C       3.5690443372    -3.8162632286    -0.4890766683
    7      H       4.0731417640    -3.7804286962    -1.4461082971
    8      C       4.2758968127    -3.5324309692     0.6753072057
    9      H       5.3271955896    -3.2839500368     0.6143186422
   10      C       3.6483039768    -3.5597234747     1.9122713894
   11      H       4.2068673285    -3.3385185616     2.8126908697
   12      C       2.2982788829    -3.8749721377     1.9697192871
   13      C      -0.9304954212    -4.5984909435     3.4723374889
   14      H      -1.8969019491    -4.9082560536     3.0929584029
   15      C      -0.7386394785    -4.3948812145     4.8319067282
   16      H      -1.5592161109    -4.5501350692     5.5196102819
   17      C       0.5009542689    -3.9898549004     5.3174589048
   18      H       0.6331670450    -3.8315493924     6.3794562441
   19      C       1.5678163410    -3.7843744729     4.4556207031
   20      H       2.5286586854    -3.4681785292     4.8416382278
   21      C       1.3778678705    -3.9892432538     3.0975096240
   22      C      -2.1397024902    -3.6996210358     0.1040913219
   23      C      -2.9488544261    -2.6211423237    -0.2250795223
   24      H      -3.9595117936    -2.8107409955    -0.5636173238
   25      C      -2.5071957930    -1.3070179051    -0.1511357832
   26      C      -3.3817658226    -0.2439487251    -0.5035051966
   27      N      -4.1125976641     0.5985634780    -0.7962130832
   28      C      -0.8213345928    -3.4743659296     0.5364542276
   29      C      -0.3781916594    -2.1510819539     0.5960823706
   30      H       0.6303267821    -1.9357300409     0.9182099746
   31      C      -1.1833389792    -1.0769400524     0.2615368897
   32      C      -0.6571992085     0.2436928788     0.3407999976
   33      N      -0.2191714559     1.3069425861     0.4080530265
   34      H       5.4166124996    -6.4972941705    -0.3230602334
   35      H       7.1925527692    -8.0075097735     0.6144464766
   36      C       5.1576923114    -7.3441909870     0.2971871924
   37      C       6.1475278246    -8.1865642639     0.8251193303
   38      C       3.8373105425    -7.5871164930     0.5643475422
   39      H       3.0936607310    -6.9258873145     0.1433419759
   40      C       5.7775908742    -9.2612847514     1.6177345328
   41      H       6.5504496210    -9.9136753540     2.0026951985
   42      C       3.4639494698    -8.6714625571     1.3886913987
   43      C       4.4527366025    -9.5318873796     1.9294700905
   44      N       2.1288044625    -8.9065290739     1.6580268054
   45      C       2.6326455612   -10.7946782656     3.0912376565
   46      C       1.6908574630    -9.8677078835     2.5274991375
   47      H       2.7978711734   -12.5200763753     4.3420556715
   48      C       2.1230991063   -11.7862928208     3.9207957386
   49      C       0.3160082602    -9.9486385325     2.8495486708
   50      C       0.7755046437   -11.8733460507     4.2260151068
   51      C      -0.1401290607   -10.9254602497     3.6857898240
   52      H      -0.3834301672    -9.2326706972     2.4421862366
   53      H       0.4275193850   -12.6599725155     4.8805569548
   54      H      -1.1935030932   -10.9665636856     3.9248677684
   55      C       4.1026153693   -10.7507985658     2.7538455615
   56      C       4.9222949753   -10.7371157827     4.0559118620
   57      C       4.4462976603   -12.0029131291     1.9234607964
   58      C       1.1492880656    -8.1389963890     0.9748864738
   59      C       0.4612828378    -8.6944288757    -0.0882601060
   60      C      -0.4822327816    -7.9085355334    -0.7205900151
   61      C      -0.7066884024    -6.5718159195    -0.3659099778
   62      C       0.0257550455    -6.0103661546     0.6812476545
   63      C       0.9134744231    -6.8425156035     1.3740889198
   64      H       1.4780814982    -6.4568077919     2.2127586913
   65      H       0.6427709841    -9.7167627551    -0.3941244419
   66      H      -1.0651238127    -8.3365850455    -1.5262968463
   67      C      -1.7990214840    -5.8494265364    -1.0950346865
   68      C      -2.6934811186    -5.0706224456    -0.1323698829
   69      H      -2.3924458923    -6.5840777890    -1.6424012318
   70      H      -1.3974044081    -5.1677256049    -1.8502750876
   71      H      -2.8013829451    -5.6335426432     0.8003433031
   72      H      -3.6966677474    -4.9786677859    -0.5504570135
   73      H       3.8721252989   -12.0292640212     0.9970376386
   74      H       4.2206339744   -12.9113885568     2.4825492421
   75      H       5.5052182329   -12.0251161955     1.6626251879
   76      H       4.6917755377    -9.8547681672     4.6519686801
   77      H       5.9931471768   -10.7396980814     3.8550607431
   78      H       4.7151521566   -11.6169260122     4.6636548068
 ----------------------------------------------------------------
 Nuclear Repulsion Energy =  5553.6525098282 hartrees
 There are      159 alpha and      157 beta electrons
 Discretize the solute cavity surface with Lebedev spheres
	Using 302 Lebedev grid points for each H atom
	Using 302 Lebedev grid points for other atoms
	Atomic van der Waals radii will be scaled by 1.20
 Remove points where switching function is < 1.0e-08
 Keep 8043 surface tesserae and discard 15513 interior tesserae
 Molecular Surface Area = 616.265 Angst**2
 Nucleus-field energy     =     0.0000001029 hartrees
 Requested basis set is def2-mSVP
 There are 391 shells and 767 basis functions
 A cutoff of  1.0D-11 yielded  35105 shell pairs
 There are    141017 function pairs (    155676 Cartesian)
 Smallest overlap matrix eigenvalue = 2.58E-04
 Guess MOs from SCF MO coefficient file
 Reading MOs from coefficient file
 Reading MOs from coefficient file
 An unrestricted hybrid HF-DFT SCF calculation will be
 performed using Pulay DIIS extrapolation
 Polarizable Continuum solvation model will be applied
 Exchange:     0.4200 Hartree-Fock + 0.5800 PBEh-3c
 Correlation:  1.0000 PBEh-3c
 Using SG-1 standard quadrature grid
 Dispersion:   Grimme D3
 SCF converges when DIIS error is below 1.0E-08
 Geometry optimization detected.  Setting ReadMinima to 0
 Setting SaveMinima to 0
 using 8 threads for integral computing
 -------------------------------------------------------
 OpenMP Integral computing Module                
 Release: version 1.0, May 2013, Q-Chem Inc. Pittsburgh 
 -------------------------------------------------------
 ---------------------------------------
  Cycle       Energy         DIIS Error
 ---------------------------------------
    1   -1855.3254572096      5.62E-04
 Using non-symmetric K matrix
    2   -1855.3979231480      9.33E-05
    3   -1855.3958560818      1.70E-04
    4   -1855.3986621349      6.25E-05
    5   -1855.3990365016      2.05E-05
    6   -1855.3991461914      2.00E-05
    7   -1855.3992816277      1.87E-05
    8   -1855.3994478288      1.72E-05
    9   -1855.3996151068      1.58E-05
   10   -1855.4000710697      1.03E-05
   11   -1855.4003137754      7.82E-06
   12   -1855.4006643869      5.27E-06
   13   -1855.4007728150      3.47E-06
   14   -1855.4008348642      2.28E-06
   15   -1855.4008671357      2.83E-06
   16   -1855.4008466888      9.36E-06
   17   -1855.4008734943      4.80E-06
   18   -1855.4008798273      6.25E-06
   19   -1855.4008896837      3.85E-06
   20   -1855.4008926835      1.72E-06
   21   -1855.4008931212      1.55E-06
   22   -1855.4008936432      3.99E-07
   23   -1855.4008937600      1.12E-07
   24   -1855.4008937485      3.29E-07
   25   -1855.4008937768      7.19E-08
   26   -1855.4008937825      1.75E-08
   27   -1855.4008937870      7.67E-09 Convergence criterion met
 ---------------------------------------

************** Final PCM Free Energy Summary **************
 G_electrostatic  =      -0.00000202 hartree =      -0.00126641 kcal/mol
 G_cavitation     =       0.00000000 hartree =       0.00000000 kcal/mol
 G_dispersion     =       0.00000000 hartree =       0.00000000 kcal/mol
 G_repulsion      =       0.00000000 hartree =       0.00000000 kcal/mol
 --------------------------------------------------
 Non-electrostatic Free Energy =       0.00000000 hartree =       0.00000000 kcal/mol
 Total                         =      -0.00000202 hartree =      -0.00126641 kcal/mol
 --------------------------------------------------
 SCF Energy (H0 + V/2)                       =   -1855.40089379 
 Solute Internal Energy (H0)                 =   -1855.40089177 
 Total Free Energy (H0 + V/2 + non-elec)     =   -1855.40089379 hartree
                                             = -1164281.63335323 kcal/mol
***********************************************************

 <S^2> = 2.0651
 SCF time:  CPU 9500.71 s  wall 2489.27 s
 SCF   energy in the final basis set = -1855.40089379
 Total energy in the final basis set = -1855.40089379
 
 --------------------------------------------------------------
 
                    Orbital Energies (a.u.)
 --------------------------------------------------------------
 
 Alpha MOs
 -- Occupied --
-14.725 -14.658 -14.655 -10.524 -10.522 -10.514 -10.509 -10.505
-10.502 -10.501 -10.499 -10.498 -10.494 -10.493 -10.490 -10.483
-10.482 -10.478 -10.478 -10.476 -10.475 -10.475 -10.471 -10.470
-10.470 -10.469 -10.469 -10.468 -10.468 -10.468 -10.467 -10.467
-10.467 -10.466 -10.465 -10.460 -10.449 -10.448 -10.448 -10.446
-10.445 -10.440 -10.438 -10.436 -10.432 -10.431 -10.420  -1.123
 -1.042  -1.031  -1.020  -1.004  -0.991  -0.970  -0.966  -0.958
 -0.941  -0.935  -0.910  -0.900  -0.894  -0.887  -0.862  -0.858
 -0.856  -0.849  -0.839  -0.827  -0.819  -0.810  -0.797  -0.775
 -0.774  -0.749  -0.733  -0.729  -0.723  -0.714  -0.713  -0.695
 -0.683  -0.681  -0.674  -0.670  -0.667  -0.647  -0.622  -0.620
 -0.617  -0.613  -0.600  -0.587  -0.585  -0.577  -0.569  -0.563
 -0.544  -0.541  -0.540  -0.534  -0.532  -0.527  -0.524  -0.522
 -0.519  -0.513  -0.510  -0.508  -0.504  -0.503  -0.501  -0.495
 -0.490  -0.489  -0.486  -0.480  -0.477  -0.473  -0.468  -0.460
 -0.457  -0.452  -0.445  -0.440  -0.440  -0.437  -0.437  -0.433
 -0.430  -0.428  -0.426  -0.425  -0.424  -0.420  -0.419  -0.416
 -0.413  -0.405  -0.403  -0.400  -0.399  -0.397  -0.394  -0.386
 -0.379  -0.367  -0.351  -0.341  -0.324  -0.316  -0.313  -0.309
 -0.306  -0.304  -0.296  -0.293  -0.272  -0.247  -0.098
 -- Virtual --
 -0.066  -0.042  -0.031  -0.020  -0.014  -0.007   0.010   0.017
  0.025   0.036   0.047   0.048   0.067   0.082   0.110   0.111
  0.120   0.125   0.128   0.129   0.135   0.145   0.148   0.152
  0.154   0.156   0.159   0.165   0.169   0.173   0.179   0.185
  0.187   0.188   0.192   0.196   0.201   0.202   0.208   0.210
  0.213   0.215   0.218   0.220   0.222   0.226   0.228   0.229
  0.236   0.237   0.240   0.242   0.244   0.249   0.250   0.255
  0.258   0.260   0.261   0.268   0.269   0.271   0.278   0.283
  0.286   0.289   0.293   0.296   0.298   0.301   0.304   0.307
  0.314   0.323   0.331   0.332   0.337   0.344   0.353   0.361
  0.365   0.371   0.375   0.375   0.380   0.388   0.392   0.397
  0.411   0.412   0.419   0.427   0.431   0.435   0.448   0.459
  0.460   0.462   0.469   0.481   0.484   0.485   0.495   0.498
  0.498   0.500   0.505   0.510   0.514   0.517   0.522   0.523
  0.527   0.530   0.534   0.535   0.536   0.542   0.543   0.548
  0.551   0.555   0.556   0.561   0.564   0.567   0.570   0.570
  0.575   0.577   0.579   0.580   0.583   0.589   0.591   0.593
  0.599   0.601   0.606   0.608   0.613   0.616   0.619   0.620
  0.623   0.625   0.626   0.629   0.632   0.634   0.636   0.639
  0.640   0.645   0.649   0.654   0.656   0.663   0.665   0.667
  0.672   0.677   0.683   0.684   0.687   0.691   0.695   0.698
  0.702   0.706   0.711   0.713   0.715   0.717   0.721   0.725
  0.731   0.734   0.736   0.743   0.749   0.752   0.755   0.764
  0.766   0.768   0.774   0.777   0.786   0.789   0.793   0.801
  0.806   0.810   0.811   0.813   0.823   0.831   0.832   0.843
  0.857   0.861   0.874   0.878   0.882   0.890   0.897   0.905
  0.907   0.913   0.919   0.922   0.926   0.930   0.939   0.944
  0.946   0.948   0.954   0.956   0.960   0.964   0.968   0.969
  0.972   0.979   0.981   0.985   0.989   0.990   0.995   1.002
  1.004   1.006   1.008   1.012   1.015   1.018   1.029   1.036
  1.039   1.042   1.043   1.046   1.047   1.051   1.054   1.054
  1.061   1.065   1.069   1.073   1.078   1.081   1.086   1.090
  1.094   1.100   1.106   1.109   1.110   1.114   1.116   1.121
  1.129   1.131   1.133   1.137   1.140   1.151   1.153   1.159
  1.161   1.165   1.170   1.175   1.185   1.193   1.202   1.208
  1.214   1.228   1.235   1.240   1.245   1.260   1.265   1.270
  1.280   1.283   1.289   1.291   1.302   1.308   1.311   1.316
  1.320   1.325   1.332   1.336   1.340   1.347   1.351   1.359
  1.365   1.367   1.373   1.378   1.380   1.394   1.396   1.400
  1.412   1.421   1.429   1.437   1.451   1.454   1.459   1.471
  1.493   1.494   1.499   1.504   1.507   1.508   1.516   1.521
  1.528   1.532   1.533   1.537   1.542   1.545   1.553   1.555
  1.556   1.557   1.567   1.574   1.576   1.577   1.581   1.586
  1.594   1.596   1.607   1.614   1.622   1.628   1.639   1.644
  1.658   1.665   1.681   1.689   1.704   1.707   1.732   1.735
  1.743   1.752   1.759   1.761   1.775   1.779   1.784   1.786
  1.795   1.799   1.814   1.824   1.827   1.828   1.837   1.840
  1.849   1.850   1.863   1.873   1.879   1.887   1.889   1.897
  1.900   1.905   1.914   1.916   1.923   1.929   1.935   1.937
  1.944   1.950   1.966   1.972   1.975   1.983   1.991   2.002
  2.003   2.006   2.014   2.023   2.025   2.030   2.030   2.037
  2.048   2.050   2.057   2.062   2.064   2.079   2.086   2.092
  2.096   2.103   2.113   2.130   2.134   2.135   2.138   2.141
  2.154   2.160   2.162   2.166   2.176   2.179   2.181   2.183
  2.189   2.196   2.201   2.205   2.211   2.220   2.223   2.234
  2.241   2.245   2.255   2.260   2.262   2.266   2.272   2.274
  2.282   2.285   2.287   2.298   2.303   2.313   2.316   2.325
  2.331   2.333   2.337   2.339   2.346   2.349   2.352   2.353
  2.360   2.365   2.369   2.377   2.388   2.392   2.397   2.406
  2.417   2.424   2.428   2.444   2.460   2.469   2.471   2.483
  2.499   2.506   2.517   2.528   2.531   2.547   2.568   2.586
  2.589   2.601   2.609   2.618   2.629   2.647   2.660   2.669
  2.674   2.685   2.688   2.695   2.697   2.701   2.706   2.712
[...]
  0.215   0.218   0.220   0.221   0.223   0.225   0.230   0.230
  0.231   0.237   0.243   0.244   0.249   0.253   0.253   0.257
  0.258   0.260   0.261   0.268   0.271   0.272   0.276   0.278
  0.281   0.290   0.292   0.295   0.298   0.303   0.306   0.306
  0.319   0.326   0.331   0.333   0.335   0.349   0.353   0.358
  0.368   0.372   0.375   0.376   0.380   0.386   0.391   0.399
  0.406   0.414   0.415   0.422   0.427   0.431   0.450   0.459
  0.463   0.471   0.473   0.480   0.483   0.488   0.492   0.499
  0.499   0.503   0.505   0.511   0.516   0.516   0.519   0.523
  0.524   0.527   0.532   0.536   0.539   0.548   0.549   0.551
  0.553   0.560   0.562   0.564   0.566   0.570   0.571   0.573
  0.574   0.578   0.580   0.582   0.585   0.588   0.592   0.596
  0.597   0.601   0.603   0.609   0.612   0.614   0.618   0.619
  0.622   0.624   0.626   0.630   0.635   0.638   0.644   0.646
  0.647   0.650   0.652   0.657   0.660   0.665   0.669   0.671
  0.674   0.677   0.679   0.683   0.688   0.690   0.693   0.699
  0.702   0.705   0.708   0.710   0.714   0.715   0.718   0.723
  0.725   0.728   0.735   0.738   0.742   0.748   0.753   0.757
  0.761   0.764   0.773   0.778   0.782   0.786   0.790   0.800
  0.806   0.811   0.813   0.818   0.821   0.833   0.836   0.839
  0.852   0.861   0.863   0.875   0.888   0.892   0.893   0.897
  0.906   0.912   0.923   0.925   0.929   0.932   0.940   0.942
  0.948   0.950   0.954   0.958   0.960   0.963   0.968   0.971
  0.973   0.975   0.981   0.983   0.986   0.986   0.991   0.998
  0.999   1.002   1.006   1.010   1.016   1.017   1.025   1.026
  1.031   1.037   1.042   1.044   1.048   1.049   1.051   1.052
  1.060   1.062   1.064   1.072   1.073   1.076   1.081   1.085
  1.090   1.095   1.099   1.106   1.109   1.109   1.113   1.120
  1.123   1.127   1.132   1.136   1.141   1.144   1.148   1.153
  1.166   1.167   1.177   1.179   1.183   1.190   1.202   1.204
  1.208   1.211   1.222   1.230   1.239   1.245   1.250   1.262
  1.265   1.273   1.289   1.291   1.295   1.298   1.300   1.308
  1.313   1.319   1.327   1.331   1.338   1.343   1.347   1.359
  1.362   1.369   1.378   1.384   1.394   1.398   1.402   1.407
  1.421   1.426   1.438   1.444   1.453   1.462   1.474   1.487
  1.496   1.497   1.503   1.506   1.509   1.516   1.522   1.527
  1.533   1.534   1.537   1.544   1.548   1.549   1.552   1.556
  1.559   1.561   1.570   1.575   1.582   1.585   1.588   1.595
  1.600   1.604   1.609   1.622   1.625   1.633   1.640   1.652
  1.664   1.668   1.685   1.695   1.704   1.724   1.730   1.743
  1.750   1.761   1.774   1.778   1.781   1.787   1.789   1.792
  1.806   1.808   1.822   1.824   1.831   1.835   1.839   1.843
  1.846   1.856   1.860   1.868   1.872   1.881   1.888   1.898
  1.907   1.909   1.910   1.922   1.926   1.927   1.936   1.940
  1.947   1.951   1.967   1.970   1.972   1.979   1.990   1.999
  2.004   2.007   2.019   2.021   2.025   2.029   2.036   2.038
  2.050   2.059   2.060   2.064   2.069   2.079   2.089   2.093
  2.101   2.103   2.110   2.114   2.132   2.138   2.139   2.141
  2.152   2.156   2.162   2.163   2.166   2.176   2.180   2.188
  2.192   2.194   2.201   2.210   2.219   2.222   2.223   2.232
  2.241   2.244   2.250   2.251   2.252   2.264   2.270   2.274
  2.279   2.285   2.291   2.298   2.303   2.307   2.314   2.319
  2.329   2.332   2.339   2.345   2.350   2.351   2.358   2.359
  2.365   2.371   2.378   2.386   2.390   2.395   2.402   2.413
  2.423   2.431   2.433   2.439   2.457   2.463   2.465   2.487
  2.498   2.510   2.519   2.537   2.545   2.548   2.564   2.571
  2.584   2.594   2.601   2.628   2.629   2.642   2.652   2.655
  2.657   2.667   2.671   2.694   2.697   2.703   2.707   2.715
  2.721   2.722   2.731   2.737   2.738   2.743   2.750   2.759
  2.761   2.768   2.775   2.776   2.786   2.788   2.801   2.815
  2.815   2.821   2.822   2.834   2.841   2.850   2.860   2.860
  2.863   2.884   2.886   2.899   2.900   2.911   2.935   2.941
  2.947   2.963   2.976   2.990   3.010   3.014   3.019   3.034
  3.044   3.068   3.092   3.131   3.179   3.280   3.328   3.346
  3.370   3.380   3.385   3.409   3.429   3.511   3.540   3.590
  3.678  13.192  13.252  13.264  13.335  13.362  13.414  13.631
 13.642  13.666  13.694  13.722  13.734  13.734  13.760  13.802
 13.806  13.825  13.850  13.895  13.903  13.924  14.025  14.066
 14.091  14.094  14.125  14.172  14.180  14.192  14.210  14.218
 14.226  14.248  14.256  14.277  14.299  14.324  14.397  14.476
 14.574  14.581  14.586  14.590  14.607  19.495  19.564  19.572
 
 Beta MOs
 -- Occupied --
-14.696 -14.657 -14.654 -10.522 -10.520 -10.512 -10.507 -10.500
-10.500 -10.499 -10.498 -10.496 -10.493 -10.491 -10.486 -10.478
-10.477 -10.476 -10.474 -10.474 -10.473 -10.468 -10.468 -10.468
-10.468 -10.467 -10.467 -10.467 -10.466 -10.465 -10.464 -10.463
-10.462 -10.462 -10.461 -10.455 -10.449 -10.447 -10.445 -10.445
-10.443 -10.443 -10.442 -10.440 -10.438 -10.429 -10.427  -1.089
 -1.042  -1.030  -1.020  -1.004  -0.986  -0.969  -0.960  -0.945
 -0.938  -0.933  -0.904  -0.899  -0.890  -0.884  -0.858  -0.857
 -0.847  -0.841  -0.830  -0.826  -0.818  -0.800  -0.791  -0.771
 -0.765  -0.748  -0.732  -0.724  -0.711  -0.710  -0.699  -0.690
 -0.682  -0.679  -0.673  -0.667  -0.660  -0.643  -0.615  -0.614
 -0.611  -0.602  -0.597  -0.583  -0.581  -0.572  -0.564  -0.561
 -0.544  -0.539  -0.535  -0.532  -0.528  -0.526  -0.522  -0.517
 -0.515  -0.510  -0.507  -0.502  -0.500  -0.499  -0.495  -0.494
 -0.490  -0.487  -0.483  -0.477  -0.472  -0.468  -0.460  -0.450
 -0.445  -0.442  -0.440  -0.438  -0.438  -0.436  -0.434  -0.431
 -0.430  -0.426  -0.425  -0.421  -0.420  -0.416  -0.414  -0.411
 -0.404  -0.401  -0.399  -0.396  -0.393  -0.392  -0.390  -0.375
 -0.363  -0.352  -0.350  -0.337  -0.322  -0.314  -0.306  -0.304
 -0.298  -0.286  -0.281  -0.271  -0.257
 -- Virtual --
 -0.090  -0.064  -0.042  -0.028  -0.015  -0.008  -0.005   0.012
  0.017   0.021   0.048   0.049   0.055   0.064   0.070   0.085
  0.110   0.113   0.120   0.129   0.129   0.134   0.138   0.147
  0.150   0.155   0.159   0.160   0.165   0.166   0.172   0.182
  0.185   0.186   0.190   0.193   0.197   0.201   0.204   0.204
  0.206   0.213   0.217   0.220   0.221   0.222   0.226   0.228
  0.230   0.231   0.232   0.240   0.244   0.245   0.251   0.254
  0.257   0.259   0.260   0.261   0.266   0.270   0.275   0.276
  0.279   0.282   0.282   0.291   0.293   0.296   0.299   0.304
  0.307   0.309   0.322   0.326   0.334   0.338   0.339   0.351
  0.358   0.360   0.371   0.373   0.377   0.379   0.383   0.387
  0.395   0.399   0.412   0.415   0.419   0.422   0.431   0.434
  0.453   0.460   0.465   0.472   0.477   0.483   0.483   0.492
  0.494   0.501   0.503   0.505   0.508   0.513   0.516   0.519
  0.521   0.524   0.527   0.531   0.535   0.538   0.540   0.549
  0.551   0.552   0.556   0.562   0.562   0.568   0.571   0.571
  0.574   0.575   0.577   0.581   0.583   0.586   0.587   0.590
  0.597   0.598   0.600   0.603   0.607   0.611   0.615   0.619
  0.621   0.621   0.624   0.627   0.632   0.637   0.639   0.641
  0.647   0.648   0.651   0.652   0.654   0.660   0.664   0.669
  0.672   0.673   0.678   0.678   0.681   0.686   0.689   0.692
  0.695   0.699   0.703   0.708   0.709   0.713   0.715   0.716
  0.718   0.726   0.727   0.733   0.737   0.742   0.743   0.749
  0.755   0.761   0.765   0.765   0.775   0.780   0.787   0.790
  0.792   0.802   0.807   0.813   0.819   0.823   0.824   0.835
  0.842   0.844   0.855   0.862   0.868   0.878   0.891   0.892
  0.897   0.898   0.907   0.913   0.924   0.926   0.929   0.934
  0.941   0.943   0.948   0.951   0.955   0.959   0.961   0.963
  0.969   0.971   0.974   0.977   0.983   0.984   0.986   0.989
  0.992   1.001   1.002   1.003   1.007   1.011   1.016   1.018
  1.026   1.027   1.033   1.038   1.043   1.046   1.049   1.050
  1.052   1.053   1.061   1.063   1.066   1.073   1.074   1.078
  1.082   1.087   1.091   1.099   1.102   1.108   1.110   1.112
  1.114   1.121   1.124   1.129   1.134   1.137   1.142   1.145
  1.150   1.154   1.167   1.169   1.179   1.181   1.184   1.192
  1.204   1.209   1.212   1.214   1.225   1.237   1.242   1.248
  1.255   1.264   1.266   1.278   1.290   1.292   1.296   1.299
  1.303   1.309   1.316   1.320   1.328   1.333   1.338   1.344
  1.348   1.360   1.362   1.370   1.379   1.385   1.395   1.401
  1.405   1.410   1.423   1.429   1.442   1.447   1.457   1.465
  1.476   1.490   1.498   1.498   1.505   1.508   1.513   1.522
  1.525   1.531   1.534   1.536   1.538   1.546   1.550   1.553
  1.556   1.558   1.562   1.566   1.575   1.580   1.585   1.587
  1.589   1.596   1.600   1.608   1.610   1.623   1.626   1.635
  1.640   1.653   1.664   1.674   1.685   1.701   1.704   1.726
  1.731   1.745   1.754   1.763   1.774   1.781   1.782   1.789
  1.794   1.797   1.806   1.814   1.823   1.825   1.832   1.839
  1.842   1.844   1.851   1.861   1.866   1.869   1.876   1.883
  1.889   1.899   1.907   1.912   1.916   1.927   1.929   1.930
  1.939   1.943   1.950   1.953   1.969   1.971   1.975   1.981
  1.992   2.000   2.004   2.012   2.020   2.023   2.025   2.030
  2.037   2.039   2.051   2.059   2.063   2.064   2.075   2.080
  2.090   2.094   2.103   2.104   2.113   2.116   2.133   2.139
  2.143   2.145   2.153   2.162   2.163   2.164   2.168   2.180
  2.186   2.192   2.195   2.196   2.205   2.211   2.220   2.224
  2.227   2.235   2.244   2.252   2.252   2.256   2.257   2.267
  2.272   2.277   2.282   2.287   2.296   2.301   2.306   2.313
  2.315   2.320   2.330   2.334   2.340   2.347   2.351   2.353
  2.358   2.360   2.366   2.373   2.380   2.388   2.393   2.397
  2.409   2.414   2.427   2.431   2.440   2.444   2.459   2.466
  2.470   2.490   2.498   2.512   2.520   2.538   2.547   2.557
  2.567   2.575   2.585   2.597   2.601   2.629   2.636   2.646
  2.654   2.659   2.665   2.670   2.673   2.695   2.697   2.704
  2.707   2.716   2.723   2.727   2.732   2.738   2.739   2.747
  2.753   2.760   2.764   2.769   2.775   2.776   2.788   2.790
  2.804   2.815   2.819   2.821   2.832   2.836   2.843   2.851
  2.862   2.863   2.863   2.885   2.887   2.899   2.902   2.913
  2.937   2.945   2.947   2.966   2.977   2.991   3.013   3.014
  3.019   3.034   3.046   3.070   3.094   3.133   3.183   3.282
  3.328   3.349   3.370   3.380   3.385   3.409   3.434   3.512
  3.541   3.590   3.678  13.192  13.253  13.264  13.336  13.364
 13.414  13.631  13.643  13.666  13.696  13.723  13.734  13.735
 13.761  13.804  13.806  13.828  13.853  13.895  13.904  13.925
 14.025  14.066  14.091  14.105  14.125  14.172  14.181  14.192
 14.212  14.218  14.227  14.248  14.257  14.277  14.300  14.324
 14.398  14.481  14.574  14.581  14.586  14.590  14.607  19.495
 19.564  19.581
 --------------------------------------------------------------
 
          Ground-State Mulliken Net Atomic Charges

     Atom                 Charge (a.u.)    Spin (a.u.)
  --------------------------------------------------------
      1 C                    -0.431881       0.001315
      2 C                     0.161033      -0.000354
      3 C                     0.031414      -0.000525
      4 C                    -0.257856       0.000241
      5 H                     0.229574      -0.000027
      6 C                    -0.239751      -0.000165
      7 H                     0.230964       0.000006
      8 C                    -0.210977       0.000305
      9 H                     0.230223      -0.000021
     10 C                    -0.324637      -0.000183
     11 H                     0.214704       0.000006
     12 C                     0.166282       0.000068
     13 C                    -0.279144       0.000062
     14 H                     0.216328      -0.000008
     15 C                    -0.222334      -0.000035
     16 H                     0.228004      -0.000001
     17 C                    -0.216698       0.000067
     18 H                     0.229280      -0.000004
     19 C                    -0.321280      -0.000036
     20 H                     0.213703      -0.000002
     21 C                     0.136955       0.000078
     22 C                     0.105916       0.000068
     23 C                    -0.318711      -0.000033
     24 H                     0.246259      -0.000002
     25 C                     0.079708       0.000074
     26 C                    -0.007001      -0.000023
     27 N                    -0.153762       0.000029
     28 C                     0.208285      -0.000096
     29 C                    -0.296359       0.000101
     30 H                     0.281514      -0.000005
     31 C                     0.092237      -0.000040
     32 C                    -0.008962       0.000011
     33 N                    -0.154688      -0.000011
     34 H                     0.214641       0.003271
     35 H                     0.212433      -0.006131
     36 C                    -0.225384      -0.064312
     37 C                    -0.225191       0.107299
     38 C                    -0.301149       0.093019
     39 H                     0.262908      -0.005293
     40 C                    -0.290982      -0.070055
     41 H                     0.209475       0.003681
     42 C                     0.319813      -0.074127
     43 C                     0.145175       0.123291
     44 N                    -0.589967       0.192508
     45 C                     0.098901       0.420861
     46 C                     0.142952       0.703138
     47 H                     0.210323       0.020555
     48 C                    -0.289694      -0.277042
     49 C                    -0.304104       0.316227
     50 C                    -0.247515       0.704232
     51 C                    -0.203350      -0.183393
     52 H                     0.237258      -0.010001
     53 H                     0.216685      -0.043131
     54 H                     0.214046       0.011605
     55 C                    -0.203592      -0.038792
     56 C                    -0.591172       0.025297
     57 C                    -0.644249       0.004994
     58 C                     0.233534      -0.021437
     59 C                    -0.222741       0.030667
     60 C                    -0.300558      -0.020243
     61 C                     0.057540       0.030058
     62 C                     0.229785      -0.016810
     63 C                    -0.288346       0.036464
     64 H                     0.279663      -0.002048
     65 H                     0.253206      -0.001879
     66 H                     0.219202       0.001549
     67 C                    -0.515120      -0.002537
     68 C                    -0.546335       0.000484
     69 H                     0.247483       0.000247
     70 H                     0.252366       0.001435
     71 H                     0.257196      -0.000005
     72 H                     0.252092       0.000113
     73 H                     0.238373       0.000072
     74 H                     0.221801       0.000491
     75 H                     0.224029      -0.001050
     76 H                     0.240851       0.000171
     77 H                     0.216242       0.004744
     78 H                     0.223135       0.000956
  --------------------------------------------------------
  Sum of atomic charges =    -0.000000
  Sum of spin   charges =     2.000000

 -----------------------------------------------------------------
                    Cartesian Multipole Moments
 -----------------------------------------------------------------
    Charge (ESU x 10^10)
                -0.0000
    Dipole Moment (Debye)
         X       1.1904      Y      -6.8936      Z       1.7363
       Tot       7.2079
    Quadrupole Moments (Debye-Ang)
        XX    -250.5270     XY      16.6132     YY    -258.1742
        XZ      -0.3883     YZ       5.0584     ZZ    -260.2962
    Octopole Moments (Debye-Ang^2)
       XXX    -747.1015    XXY    1428.7610    XYY    -374.3288
       YYY    4696.3464    XXZ    -321.2380    XYZ     -32.6461
       YYZ    -415.5851    XZZ    -282.6160    YZZ    1615.4497
       ZZZ   -1081.6477
    Hexadecapole Moments (Debye-Ang^3)
      XXXX  -12127.5321   XXXY    8717.6818   XXYY  -14339.4961
      XYYY    9485.3763   YYYY  -76994.8438   XXXZ   -2254.2359
      XXYZ    2620.7396   XYYZ    -406.7826   YYYZ    9019.2690
      XXZZ   -3329.3484   XYZZ    3094.4700   YYZZ  -15043.2462
      XZZZ   -2404.4236   YZZZ    8986.3751   ZZZZ   -7390.3830
 -----------------------------------------------------------------
Archival summary:
1\1\ctcp023\OPT\ProcedureUnspecified\BasisUnspecified\34431(3)\mewes\FriApr2709:14:502018FriApr2709:14:502018\0\\#,OPT,ProcedureUnspecified,BasisUnspecified,\\0,3\N\C,1,1.39064\C,1,1.39615,2,120.443\C,3,1.40063,1,120.495,2,-175.884,0\H,4,1.08042,3,120.657,1,-4.32598,0\C,4,1.37933,3,120.796,1,174.941,0\H,6,1.08189,4,118.963,3,-179.189,0\C,6,1.38598,4,120.206,3,0.349322,0\H,8,1.08151,6,120.862,4,-179.184,0\C,8,1.38433,6,118.883,4,2.22266,0\H,10,1.08238,8,118.479,6,178.138,0\C,10,1.38963,8,122.518,6,-0.784399,0\C,1,1.41473,2,118.946,3,-178.191,0\C,13,1.37916,1,120.011,2,111.217,0\H,14,1.08176,13,117.591,1,0.508726,0\C,13,1.38875,1,120.513,2,-67.4638,0\H,16,1.08144,13,120.519,1,-1.47022,0\C,16,1.37714,13,118.332,1,177.613,0\H,18,1.08344,16,118.809,13,-177.553,0\C,14,1.39577,13,122.705,1,178.481,0\C,20,1.39721,14,117.753,13,5.14782,0\C,2,1.47056,1,118.566,3,-176.832,0\H,22,1.08347,2,119.847,1,-56.5363,0\C,22,1.35004,2,119.265,1,125.315,0\H,24,1.08344,22,120.132,2,179.515,0\C,24,1.42897,22,120.646,2,2.80464,0\H,26,1.08094,24,119.865,22,-177.306,0\C,26,1.41692,24,120.141,22,8.51835,0\H,28,1.08333,26,118.069,24,170.685,0\C,28,1.35974,26,121.152,24,-5.64346,0\C,30,1.49988,28,126.766,26,172.084,0\C,21,1.50124,20,124.481,14,172.65,0\H,32,1.09133,21,108.142,20,-160.24,0\H,32,1.0941,21,111.638,20,83.7708,0\C,32,1.52611,21,112.275,20,-39.6495,0\H,35,1.0908,32,109.863,21,-153.78,0\H,35,1.09306,32,109.555,21,-37.6628,0\C,35,1.49798,32,110.156,21,86.2428,0\C,38,1.3908,35,117.125,32,117.529,0\H,39,1.08214,38,119.049,35,4.85291,0\C,39,1.3838,38,122.348,35,-174.265,0\C,41,1.3956,39,118.366,38,0.311508,0\C,42,1.38602,41,119.465,39,-0.711459,0\H,43,1.07984,42,117.462,41,-179.584,0\C,43,1.39479,42,122.566,41,0.45128,0\C,41,1.4255,39,119.831,38,179.492,0\N,46,1.15089,41,178.496,39,-1.24485,0\C,42,1.42584,41,120.98,39,178.92,0\N,48,1.15075,42,179.215,41,-162.33,0\C,31,1.52828,30,111.412,28,14.08,0\H,50,1.08857,31,111.832,30,-176.703,0\H,50,1.0901,31,111.498,30,62.2202,0\H,50,1.09065,31,110.441,30,-58.3985,0\C,45,1.53607,43,116.848,42,-174.532,0\C,54,1.52787,45,109.978,43,-28.1475,0\C,55,1.38061,54,127.224,45,-69.8044,0\H,56,1.08356,55,120.806,54,0.0433417,0\C,56,1.38866,55,118.581,54,-179.891,0\H,58,1.08208,56,119.744,55,-179.548,0\C,58,1.39096,56,120.43,55,0.40867,0\H,60,1.08177,58,119.575,56,179.87,0\C,60,1.38711,58,120.801,56,0.0103058,0\H,62,1.08239,60,120.171,58,179.612,0\C,62,1.38662,60,118.799,58,-0.356866,0\C,64,1.45978,62,131.488,60,179.565,0\C,65,1.38551,64,130.878,62,0.755567,0\H,66,1.08243,65,120.851,64,0.957265,0\C,66,1.38691,65,118.777,64,-178.961,0\H,68,1.08171,66,119.685,65,-179.976,0\C,68,1.38992,66,120.702,65,0.158476,0\H,70,1.08174,68,119.73,66,179.734,0\C,70,1.38866,68,120.53,66,-0.267825,0\H,72,1.08266,70,120.225,68,179.976,0\C,72,1.37934,70,118.713,68,0.0716315,0\C,31,1.54271,30,107.339,28,-105.547,0\H,75,1.09012,31,111.159,30,-55.3728,0\H,75,1.09096,31,110.317,30,64.6482,0\H,75,1.09112,31,110.672,30,-175.381,0\\\@

 Total job time:  64351.99s(wall), 244385.98s(cpu) 
 Fri Apr 27 09:14:50 2018

        *************************************************************
        *                                                           *
        *  Thank you very much for using Q-Chem.  Have a nice day.  *
        *                                                           *
        *************************************************************


0 sent ACK to 0 
now end server 0 ... 
