
                                 *****************
                                 * O   R   C   A *
                                 *****************

           --- An Ab Initio, DFT and Semiempirical electronic structure package ---

                  #######################################################
                  #                        -***-                        #
                  #  Department of molecular theory and spectroscopy    #
                  #              Directorship: Frank Neese              #
                  # Max Planck Institute for Chemical Energy Conversion #
                  #                  D-45470 Muelheim/Ruhr              #
                  #                       Germany                       #
                  #                                                     #
                  #                  All rights reserved                #
                  #                        -***-                        #
                  #######################################################


                         Program Version 4.0.1 -  RELEASE  -


 With contributions from (in alphabetic order):
   Daniel Aravena         : Magnetic Properties
   Michael Atanasov       : Ab Initio Ligand Field Theory
   Ute Becker             : Parallelization
   Martin Brehm           : Molecular dynamics
   Dmytro Bykov           : SCF Hessian
   Vijay G. Chilkuri      : MRCI spin determinant printing
   Dipayan Datta          : RHF DLPNO-CCSD density
   Achintya Kumar Dutta   : EOM-CC, STEOM-CC
   Dmitry Ganyushin       : Spin-Orbit,Spin-Spin,Magnetic field MRCI
   Yang Guo               : DLPNO-NEVPT2, CIM, IAO-localization
   Andreas Hansen         : Spin unrestricted coupled pair/coupled cluster methods
   Lee Huntington         : MR-EOM, pCC
   Robert Izsak           : Overlap fitted RIJCOSX, COSX-SCS-MP3, EOM
   Christian Kollmar      : KDIIS, OOCD, Brueckner-CCSD(T), CCSD density
   Simone Kossmann        : Meta GGA functionals, TD-DFT gradient, OOMP2, MP2 Hessian
   Martin Krupicka        : AUTO-CI
   Dagmar Lenk            : GEPOL surface
   Dimitrios Liakos       : Extrapolation schemes; parallel MDCI
   Dimitrios Manganas     : ROCIS; embedding schemes
   Dimitrios Pantazis     : SARC Basis sets
   Taras Petrenko         : DFT Hessian,TD-DFT gradient, ASA, ECA, R-Raman, ABS, FL, XAS/XES, NRVS
   Peter Pinski           : DLPNO-MP2
   Christoph Reimann      : Effective Core Potentials
   Marius Retegan         : Local ZFS, SOC
   Christoph Riplinger    : Optimizer, TS searches, QM/MM, DLPNO-CCSD(T), (RO)-DLPNO pert. Triples
   Tobias Risthaus        : Range-separated hybrids, TD-DFT gradient, RPA, STAB
   Michael Roemelt        : Restricted open shell CIS
   Masaaki Saitow         : Open-shell DLPNO
   Barbara Sandhoefer     : DKH picture change effects
   Kantharuban Sivalingam : CASSCF convergence, NEVPT2, FIC-MRCI
   Georgi Stoychev        : AutoAux
   Boris Wezisla          : Elementary symmetry handling
   Frank Wennmohs         : Technical directorship


 We gratefully acknowledge several colleagues who have allowed us to
 interface, adapt or use parts of their codes:
   Stefan Grimme, W. Hujo, H. Kruse,             : VdW corrections, initial TS optimization,
                  C. Bannwarth                     DFT functionals, gCP, sTDA/sTD-DF
   Ed Valeev                                     : LibInt (2-el integral package), F12 methods
   Garnet Chan, S. Sharma, J. Yang, R. Olivares  : DMRG
   Ulf Ekstrom                                   : XCFun DFT Library
   Mihaly Kallay                                 : mrcc  (arbitrary order and MRCC methods)
   Andreas Klamt, Michael Diedenhofen            : otool_cosmo (COSMO solvation model)
   Jiri Pittner, Ondrej Demel                    : Mk-CCSD
   Frank Weinhold                                : gennbo (NPA and NBO analysis)
   Christopher J. Cramer and Donald G. Truhlar   : smd solvation model


 Your calculation uses the libint2 library for the computation of 2-el integrals
 For citations please refer to: http://libint.valeyev.net

 This ORCA versions uses:
   CBLAS   interface :  Fast vector & matrix operations
   LAPACKE interface :  Fast linear algebra routines
   SCALAPACK package :  Parallel linear algebra routines


Your calculation utilizes the geometrical counterpoise correction gCP
Please cite in your paper:
H.Kruse, S. Grimme J.Chem.Phys., 136, (2012), 154101 
   

Your calculation utilizes the atom-pairwise dispersion correction
with the Becke-Johnson damping scheme (D3BJ)
Cite in your paper:
S.Grimme, S.Ehrlich, L.Goerigk, J Comput Chem, (2011), 32, 1456–1465 
S.Grimme, J.Antony, S.Ehrlich and H.Krieg, J.Chem.Phys., 132, (2010), 154104 
   

Your calculation employs the composite approach PBEh-3c.
Please cite in your paper:
S. Grimme, J. G. Brandenburg, C. Bannwarth, A. Hansen J.Chem.Phys., 143, (2015), 054107 
   

Your calculation utilizes the basis: def2-mSVP

Your calculation utilizes the auxiliary basis: def2/J
   F. Weigend, Phys. Chem. Chem. Phys. 8, 1057 (2006).

================================================================================
                                        WARNINGS
                       Please study these warnings very carefully!
================================================================================

Warning: TCutStore was < 0. Adjusted to Thresh (uncritical)

WARNING: Split-RI-J cannot be used together with RIJONX
  ===> : Split-RI-J will be disabled
INFO   : Checking CIS options ...

WARNING: CIS/ROCIS methods need fully converged wavefunctions
  ===> : Setting SCFConvForced true
         You can overwrite this default with %scf ConvForced false 


INFO   : the flag for use of LIBINT has been found!

================================================================================
                                       INPUT FILE
================================================================================
NAME = orca_tda_gsopt.in
|  1> %maxcore 4250
|  2> %pal nprocs 16 end
|  3> !PBEh-3c RIJCOSX
|  4> 
|  5> %tddft nroots	8
|  6> 	maxdim 120
|  7> 	triplets	true
|  8> 	donto	true
|  9> end
| 10> 
| 11> *xyz 0 1
| 12>   C       0.142403     -4.598251      1.002259
| 13>   C       0.085793     -4.470315      2.524124
| 14>   C       1.581829     -4.164320      0.733878
| 15>   C       2.238118     -4.109797     -0.479289
| 16>   H       1.731926     -4.372829     -1.399862
| 17>   C       3.571272     -3.716664     -0.497119
| 18>   H       4.101888     -3.660706     -1.438370
| 19>   C       4.230561     -3.395007      0.684971
| 20>   H       5.269447     -3.094754      0.652581
| 21>   C       3.572291     -3.461715      1.904249
| 22>   H       4.093994     -3.220792      2.821521
| 23>   C       2.239708     -3.847061      1.922249
| 24>   C      -0.978668     -4.731219      3.362960
| 25>   H      -1.927127     -5.077807      2.971301
| 26>   C      -0.812311     -4.543006      4.729490
| 27>   H      -1.634244     -4.744719      5.403194
| 28>   C       0.402188     -4.097744      5.240078
| 29>   H       0.514252     -3.957941      6.306862
| 30>   C       1.470786     -3.832668      4.396143
| 31>   H       2.413875     -3.487091      4.800177
| 32>   C       1.305932     -4.021283      3.032122
| 33>   C      -2.133788     -3.788509      0.008498
| 34>   C      -2.964879     -2.715557     -0.302053
| 35>   H      -3.966134     -2.913890     -0.661933
| 36>   C      -2.552169     -1.400809     -0.172006
| 37>   C      -3.444243     -0.338316     -0.500430
| 38>   N      -4.181359      0.503182     -0.771334
| 39>   C      -0.836042     -3.545182      0.467043
| 40>   C      -0.422238     -2.216672      0.583197
| 41>   H       0.574969     -1.990581      0.933786
| 42>   C      -1.250965     -1.151334      0.274501
| 43>   C      -0.766015      0.182533      0.419770
| 44>   N      -0.360300      1.252706      0.540955
| 45>   H       5.680917     -6.302366      0.281614
| 46>   H       7.339204     -7.784594      1.395921
| 47>   C       5.362921     -7.205615      0.785554
| 48>   C       6.285783     -8.029784      1.404403
| 49>   C       4.013939     -7.513512      0.820067
| 50>   H       3.318534     -6.841961      0.337096
| 51>   C       5.845731     -9.191544      2.020079
| 52>   H       6.577984     -9.843395      2.476183
| 53>   C       3.570683     -8.663168      1.475031
| 54>   C       4.502827     -9.543151      2.044384
| 55>   N       2.208435     -8.972959      1.588062
| 56>   C       2.673413    -10.667152      3.237517
| 57>   C       1.776674     -9.757969      2.663105
| 58>   H       2.940615    -12.082312      4.821699
| 59>   C       2.260826    -11.386566      4.350613
| 60>   C       0.484701     -9.634191      3.174300
| 61>   C       0.982691    -11.256037      4.872337
| 62>   C       0.091958    -10.386858      4.267381
| 63>   H      -0.216213     -8.942352      2.729518
| 64>   H       0.687153    -11.836573      5.735758
| 65>   H      -0.913788    -10.277244      4.651237
| 66>   C       4.005425    -10.887278      2.546015
| 67>   C       5.019565    -11.583598      3.447707
| 68>   C       3.762981    -11.788645      1.316300
| 69>   C       1.249408     -8.194992      0.892093
| 70>   C       0.559946     -8.743374     -0.178354
| 71>   C      -0.382986     -7.972445     -0.825359
| 72>   C      -0.632373     -6.643653     -0.472726
| 73>   C       0.089314     -6.077001      0.578645
| 74>   C       0.988455     -6.893094      1.270657
| 75>   H       1.537431     -6.497711      2.115765
| 76>   H       0.751887     -9.764088     -0.481395
| 77>   H      -0.951479     -8.406358     -1.638928
| 78>   C      -1.727755     -5.925455     -1.205227
| 79>   C      -2.651221     -5.168896     -0.252024
| 80>   H      -2.308552     -6.660966     -1.764097
| 81>   H      -1.324303     -5.234223     -1.950930
| 82>   H      -2.761636     -5.735509      0.676636
| 83>   H      -3.650933     -5.094188     -0.682022
| 84>   H       3.061073    -11.334768      0.617112
| 85>   H       3.355225    -12.753087      1.624078
| 86>   H       4.700306    -11.963202      0.784653
| 87>   H       5.252519    -10.999715      4.338757
| 88>   H       5.947871    -11.775255      2.910409
| 89>   H       4.653569    -12.559727      3.764603
| 90> *
| 91> 
| 92> 
| 93> 
| 94>                          ****END OF INPUT****
================================================================================

                       ****************************
                       * Single Point Calculation *
                       ****************************

---------------------------------
CARTESIAN COORDINATES (ANGSTROEM)
---------------------------------
  C      0.142403   -4.598251    1.002259
  C      0.085793   -4.470315    2.524124
  C      1.581829   -4.164320    0.733878
  C      2.238118   -4.109797   -0.479289
  H      1.731926   -4.372829   -1.399862
  C      3.571272   -3.716664   -0.497119
  H      4.101888   -3.660706   -1.438370
  C      4.230561   -3.395007    0.684971
  H      5.269447   -3.094754    0.652581
  C      3.572291   -3.461715    1.904249
  H      4.093994   -3.220792    2.821521
  C      2.239708   -3.847061    1.922249
  C     -0.978668   -4.731219    3.362960
  H     -1.927127   -5.077807    2.971301
  C     -0.812311   -4.543006    4.729490
  H     -1.634244   -4.744719    5.403194
  C      0.402188   -4.097744    5.240078
  H      0.514252   -3.957941    6.306862
  C      1.470786   -3.832668    4.396143
  H      2.413875   -3.487091    4.800177
  C      1.305932   -4.021283    3.032122
  C     -2.133788   -3.788509    0.008498
  C     -2.964879   -2.715557   -0.302053
  H     -3.966134   -2.913890   -0.661933
  C     -2.552169   -1.400809   -0.172006
  C     -3.444243   -0.338316   -0.500430
  N     -4.181359    0.503182   -0.771334
  C     -0.836042   -3.545182    0.467043
  C     -0.422238   -2.216672    0.583197
  H      0.574969   -1.990581    0.933786
  C     -1.250965   -1.151334    0.274501
  C     -0.766015    0.182533    0.419770
  N     -0.360300    1.252706    0.540955
  H      5.680917   -6.302366    0.281614
  H      7.339204   -7.784594    1.395921
  C      5.362921   -7.205615    0.785554
  C      6.285783   -8.029784    1.404403
  C      4.013939   -7.513512    0.820067
  H      3.318534   -6.841961    0.337096
  C      5.845731   -9.191544    2.020079
  H      6.577984   -9.843395    2.476183
  C      3.570683   -8.663168    1.475031
  C      4.502827   -9.543151    2.044384
  N      2.208435   -8.972959    1.588062
  C      2.673413  -10.667152    3.237517
  C      1.776674   -9.757969    2.663105
  H      2.940615  -12.082312    4.821699
  C      2.260826  -11.386566    4.350613
  C      0.484701   -9.634191    3.174300
  C      0.982691  -11.256037    4.872337
  C      0.091958  -10.386858    4.267381
  H     -0.216213   -8.942352    2.729518
  H      0.687153  -11.836573    5.735758
  H     -0.913788  -10.277244    4.651237
  C      4.005425  -10.887278    2.546015
  C      5.019565  -11.583598    3.447707
  C      3.762981  -11.788645    1.316300
  C      1.249408   -8.194992    0.892093
  C      0.559946   -8.743374   -0.178354
  C     -0.382986   -7.972445   -0.825359
  C     -0.632373   -6.643653   -0.472726
  C      0.089314   -6.077001    0.578645
  C      0.988455   -6.893094    1.270657
  H      1.537431   -6.497711    2.115765
  H      0.751887   -9.764088   -0.481395
  H     -0.951479   -8.406358   -1.638928
  C     -1.727755   -5.925455   -1.205227
  C     -2.651221   -5.168896   -0.252024
  H     -2.308552   -6.660966   -1.764097
  H     -1.324303   -5.234223   -1.950930
  H     -2.761636   -5.735509    0.676636
  H     -3.650933   -5.094188   -0.682022
  H      3.061073  -11.334768    0.617112
  H      3.355225  -12.753087    1.624078
  H      4.700306  -11.963202    0.784653
  H      5.252519  -10.999715    4.338757
  H      5.947871  -11.775255    2.910409
  H      4.653569  -12.559727    3.764603

----------------------------
CARTESIAN COORDINATES (A.U.)
----------------------------
  NO LB      ZA    FRAG     MASS         X           Y           Z
   0 C     6.0000    0    12.011    0.269103   -8.689435    1.893995
   1 C     6.0000    0    12.011    0.162125   -8.447671    4.769903
   2 C     6.0000    0    12.011    2.989224   -7.869424    1.386828
   3 C     6.0000    0    12.011    4.229430   -7.766391   -0.905725
   4 H     1.0000    0     1.008    3.272866   -8.263449   -2.645356
   5 C     6.0000    0    12.011    6.748726   -7.023477   -0.939419
   6 H     1.0000    0     1.008    7.751445   -6.917732   -2.718125
   7 C     6.0000    0    12.011    7.994602   -6.415633    1.294408
   8 H     1.0000    0     1.008    9.957812   -5.848238    1.233199
   9 C     6.0000    0    12.011    6.750652   -6.541693    3.598509
  10 H     1.0000    0     1.008    7.736527   -6.086415    5.331902
  11 C     6.0000    0    12.011    4.232435   -7.269892    3.632524
  12 C     6.0000    0    12.011   -1.849414   -8.940708    6.355073
  13 H     1.0000    0     1.008   -3.641742   -9.595665    5.614945
  14 C     6.0000    0    12.011   -1.535045   -8.585037    8.937441
  15 H     1.0000    0     1.008   -3.088274   -8.966219   10.210557
  16 C     6.0000    0    12.011    0.760025   -7.743614    9.902312
  17 H     1.0000    0     1.008    0.971795   -7.479425   11.918242
  18 C     6.0000    0    12.011    2.779383   -7.242693    8.307506
  19 H     1.0000    0     1.008    4.561563   -6.589647    9.071020
  20 C     6.0000    0    12.011    2.467854   -7.599124    5.729880
  21 C     6.0000    0    12.011   -4.032275   -7.159244    0.016059
  22 C     6.0000    0    12.011   -5.602809   -5.131659   -0.570797
  23 H     1.0000    0     1.008   -7.494907   -5.506454   -1.250872
  24 C     6.0000    0    12.011   -4.822900   -2.647145   -0.325044
  25 C     6.0000    0    12.011   -6.508676   -0.639325   -0.945676
  26 N     7.0000    0    14.007   -7.901623    0.950876   -1.457610
  27 C     6.0000    0    12.011   -1.579890   -6.699423    0.882583
  28 C     6.0000    0    12.011   -0.797914   -4.188903    1.102083
  29 H     1.0000    0     1.008    1.086534   -3.761653    1.764600
  30 C     6.0000    0    12.011   -2.363981   -2.175706    0.518732
  31 C     6.0000    0    12.011   -1.447559    0.344937    0.793250
  32 N     7.0000    0    14.007   -0.680868    2.367271    1.022257
  33 H     1.0000    0     1.008   10.735377  -11.909746    0.532173
  34 H     1.0000    0     1.008   13.869086  -14.710751    2.637908
  35 C     6.0000    0    12.011   10.134452  -13.616639    1.484482
  36 C     6.0000    0    12.011   11.878408  -15.174093    2.653937
  37 C     6.0000    0    12.011    7.585245  -14.198480    1.549702
  38 H     1.0000    0     1.008    6.271120  -12.929433    0.637019
  39 C     6.0000    0    12.011   11.046831  -17.369501    3.817396
  40 H     1.0000    0     1.008   12.430588  -18.601321    4.679308
  41 C     6.0000    0    12.011    6.747613  -16.371015    2.787405
  42 C     6.0000    0    12.011    8.509110  -18.033942    3.863326
  43 N     7.0000    0    14.007    4.173337  -16.956435    3.001002
  44 C     6.0000    0    12.011    5.052018  -20.157996    6.118020
  45 C     6.0000    0    12.011    3.357427  -18.439889    5.032539
  46 H     1.0000    0     1.008    5.556957  -22.832261    9.111691
  47 C     6.0000    0    12.011    4.272342  -21.517491    8.221467
  48 C     6.0000    0    12.011    0.915952  -18.205983    5.998558
  49 C     6.0000    0    12.011    1.857017  -21.270827    9.207383
  50 C     6.0000    0    12.011    0.173775  -19.628317    8.064181
  51 H     1.0000    0     1.008   -0.408583  -16.898596    5.158041
  52 H     1.0000    0     1.008    1.298531  -22.367881   10.839012
  53 H     1.0000    0     1.008   -1.726809  -19.421177    8.789564
  54 C     6.0000    0    12.011    7.569156  -20.573974    4.811271
  55 C     6.0000    0    12.011    9.485603  -21.889828    6.515222
  56 C     6.0000    0    12.011    7.111004  -22.277311    2.487447
  57 C     6.0000    0    12.011    2.361039  -15.486291    1.685811
  58 C     6.0000    0    12.011    1.058145  -16.522582   -0.337040
  59 C     6.0000    0    12.011   -0.723739  -15.065738   -1.559702
  60 C     6.0000    0    12.011   -1.195012  -12.554685   -0.893323
  61 C     6.0000    0    12.011    0.168779  -11.483868    1.093481
  62 C     6.0000    0    12.011    1.867909  -13.026060    2.401194
  63 H     1.0000    0     1.008    2.905324  -12.278894    3.998216
  64 H     1.0000    0     1.008    1.420861  -18.451452   -0.909705
  65 H     1.0000    0     1.008   -1.798035  -15.885714   -3.097125
  66 C     6.0000    0    12.011   -3.264984  -11.197487   -2.277549
  67 C     6.0000    0    12.011   -5.010082   -9.767798   -0.476256
  68 H     1.0000    0     1.008   -4.362531  -12.587402   -3.333660
  69 H     1.0000    0     1.008   -2.502570   -9.891248   -3.686723
  70 H     1.0000    0     1.008   -5.218736  -10.838541    1.278657
  71 H     1.0000    0     1.008   -6.899264   -9.626620   -1.288835
  72 H     1.0000    0     1.008    5.784590  -21.419607    1.166173
  73 H     1.0000    0     1.008    6.340456  -24.099842    3.069063
  74 H     1.0000    0     1.008    8.882291  -22.607175    1.482779
  75 H     1.0000    0     1.008    9.925822  -20.786449    8.199062
  76 H     1.0000    0     1.008   11.239847  -22.252007    5.499876
  77 H     1.0000    0     1.008    8.793971  -23.734444    7.114069

--------------------------------
INTERNAL COORDINATES (ANGSTROEM)
--------------------------------
 C      0   0   0     0.000000000000     0.00000000     0.00000000
 C      1   0   0     1.528281842600     0.00000000     0.00000000
 C      1   2   0     1.527177685601   100.72678540     0.00000000
 C      3   1   2     1.380384793794   127.86416668   178.07110522
 H      4   3   1     1.082991607639   121.01366426     1.33503887
 C      4   3   1     1.390025558148   118.58300354   181.73082631
 H      6   4   3     1.081960296046   119.74509654   180.42454320
 C      6   4   3     1.391208819434   120.59720304     0.46570474
 H      8   6   4     1.081889595617   119.58983589   179.76024904
 C      8   6   4     1.387230403159   120.71859165     0.08804341
 H     10   8   6     1.082407425197   120.35941407   179.31646154
 C     10   8   6     1.387297009153   118.72246065   359.57217498
 C      2   1   3     1.380142729080   128.16886853   180.07263540
 H     13   2   1     1.083094865977   121.07130870     0.27928430
 C     13   2   1     1.389425430067   118.67375116   180.16362388
 H     15  13   2     1.081729666078   119.75582185   180.16257697
 C     15  13   2     1.390671124094   120.59969977     0.14036882
 H     17  15  13     1.081726084349   119.59949522   180.07689870
 C     17  15  13     1.387225019817   120.70035849     0.00000000
 H     19  17  15     1.082628190103   120.33024973   180.05339687
 C     19  17  15     1.386832992102   118.73760639   359.94064345
 C      1   2   3     2.612333918198   108.69863744   218.73130480
 C     22   1   2     1.392257220554   147.54989383    74.59162642
 H     23  22   1     1.082294400020   119.02463497   186.30103056
 C     23  22   1     1.384125742053   122.21376219     6.60029330
 C     25  23  22     1.425675180503   119.97905689   180.16374984
 N     26  25  23     1.151020355457   178.79645348     0.06559042
 C     22   1   2     1.397718221413    28.37679559    86.84180552
 C     28  22   1     1.396303807283   117.91018114   186.95773433
 H     29  28  22     1.080949391993   119.95914846   180.04743868
 C     29  28  22     1.384567338626   122.42190328     0.62111375
 C     31  29  28     1.426702757602   119.55224494   179.79978994
 N     32  31  29     1.150895614458   179.19618372     3.94139355
 H      9   8   6     3.255103503505    81.44942531   282.85690624
 H     34   9   8     2.487688828733   128.34149839   224.46157472
 C     34   9   8     1.082097840131   137.08126677   308.46840229
 C     35  34   9     1.081612631058    59.29332595   128.10514871
 C     36  34   9     1.384104095111   118.92803829    64.02148975
 H     38  36  34     1.080661763211   118.54107093     0.26798450
 C     37  35  34     1.386502433204   120.16799827   178.89036788
 H     40  37  35     1.081265481288   118.52312793   359.31710500
 C     38  36  34     1.395407697115   120.30293474   180.72406142
 C     40  37  35     1.388383725304   121.80021017   180.37889079
 N     42  38  36     1.401594122471   121.91697015   176.77629179
 C     44  42  38     2.409812494523    91.32106882   192.94726668
 C     44  42  38     1.399419777290   119.06525555   206.51220697
 H     45  44  42     2.140959444625   174.41671367   129.23630613
 C     47  45  46     1.080785640371    34.25625724     1.52614246
 C     46  44  42     1.394932096569   121.16483359   151.73171005
 C     48  47  45     1.386673296145   118.44711753   179.00377061
 C     50  48  47     1.383780753323   119.20614467   181.10776528
 H     49  46  44     1.080626052268   120.44543630     1.51706694
 H     50  48  47     1.081600933793   120.11098331     0.47862448
 H     51  50  48     1.082074708256   120.45314449   179.34010477
 C     45  44  42     1.516867311278    87.67469896   329.11171812
 C     55  45  44     1.525250780975   112.37207533   160.19876078
 C     55  45  44     1.543839545759   108.05584536   279.23543243
 C     44  42  38     1.417511301112   119.77951957     7.57630399
 C     58  44  42     1.386339585808   119.89943862   110.29245799
 C     59  58  44     1.379154722897   118.76016557   178.98972461
 C     60  59  58     1.397222991409   122.36031586     2.44554126
 C     61  60  59     1.395459635645   118.94843829   359.46130150
 C     58  44  42     1.380704737701   120.71393742   290.08703428
 H     63  58  44     1.082547872812   117.55415980   359.67543090
 H     59  58  44     1.081911394227   120.08146777     0.10963767
 H     60  59  58     1.083217106761   119.16011796   182.24614259
 C     61  60  59     1.500742418981   117.53013488   182.85426809
 C     22   1   2     1.497022675761    94.67760862   257.05161322
 H     67  61  60     1.091163261492   108.41593860    12.52619960
 H     67  61  60     1.093914145780   111.46461702   256.40880853
 H     68  22   1     1.093458348358   111.40235941    62.70874707
 H     68  22   1     1.090827047800   108.79719793   179.35712455
 H     57  55  45     1.089744479654   111.65628342    59.54102191
 H     57  55  45     1.091393890483   110.48611711   299.37508514
 H     57  55  45     1.091648677223   110.26970630   179.47247601
 H     56  55  45     1.090484766654   112.37433290   298.45978850
 H     56  55  45     1.089574952029   110.80981567   177.06012502
 H     56  55  45     1.089588900216   110.95196954    59.85768609

---------------------------
INTERNAL COORDINATES (A.U.)
---------------------------
 C      0   0   0     0.000000000000     0.00000000     0.00000000
 C      1   0   0     2.888034137959     0.00000000     0.00000000
 C      1   2   0     2.885947583622   100.72678540     0.00000000
 C      3   1   2     2.608549219701   127.86416668   178.07110522
 H      4   3   1     2.046557543773   121.01366426     1.33503887
 C      4   3   1     2.626767624051   118.58300354   181.73082631
 H      6   4   3     2.044608647304   119.74509654   180.42454320
 C      6   4   3     2.629003663826   120.59720304     0.46570474
 H      8   6   4     2.044475042856   119.58983589   179.76024904
 C      8   6   4     2.621485546619   120.71859165     0.08804341
 H     10   8   6     2.045453598946   120.35941407   179.31646154
 C     10   8   6     2.621611413707   118.72246065   359.57217498
 C      2   1   3     2.608091783684   128.16886853   180.07263540
 H     13   2   1     2.046752673753   121.07130870     0.27928430
 C     13   2   1     2.625633546333   118.67375116   180.16362388
 H     15  13   2     2.044172819826   119.75582185   180.16257697
 C     15  13   2     2.627987566890   120.59969977     0.14036882
 H     17  15  13     2.044166051339   119.59949522   180.07689870
 C     17  15  13     2.621475373577   120.70035849     0.00000000
 H     19  17  15     2.045870784158   120.33024973   180.05339687
 C     19  17  15     2.620734548559   118.73760639   359.94064345
 C      1   2   3     4.936595675747   108.69863744   218.73130480
 C     22   1   2     2.630984854822   147.54989383    74.59162642
 H     23  22   1     2.045240012314   119.02463497   186.30103056
 C     23  22   1     2.615618587390   122.21376219     6.60029330
 C     25  23  22     2.694135647079   119.97905689   180.16374984
 N     26  25  23     2.175113246382   178.79645348     0.06559042
 C     22   1   2     2.641304650862    28.37679559    86.84180552
 C     28  22   1     2.638631795516   117.91018114   186.95773433
 H     29  28  22     2.042698315496   119.95914846   180.04743868
 C     29  28  22     2.616453083975   122.42190328     0.62111375
 C     31  29  28     2.696077486379   119.55224494   179.79978994
 N     32  31  29     2.174877520057   179.19618372     3.94139355
 H      9   8   6     6.151254159193    81.44942531   282.85690624
 H     34   9   8     4.701050592720   128.34149839   224.46157472
 C     34   9   8     2.044868567956   137.08126677   308.46840229
 C     35  34   9     2.043951655690    59.29332595   128.10514871
 C     36  34   9     2.615577680598   118.92803829    64.02148975
 H     38  36  34     2.042154775870   118.54107093     0.26798450
 C     37  35  34     2.620109882771   120.16799827   178.89036788
 H     40  37  35     2.043295637698   118.52312793   359.31710500
 C     38  36  34     2.636938392713   120.30293474   180.72406142
 C     40  37  35     2.623665009619   121.80021017   180.37889079
 N     42  38  36     2.648629042384   121.91697015   176.77629179
 C     44  42  38     4.553885648750    91.32106882   192.94726668
 C     44  42  38     2.644520125471   119.06525555   206.51220697
 H     45  44  42     4.045827014173   174.41671367   129.23630613
 C     47  45  46     2.042388869777    34.25625724     1.52614246
 C     46  44  42     2.636039637932   121.16483359   151.73171005
 C     48  47  45     2.620432766936   118.44711753   179.00377061
 C     50  48  47     2.614966653171   119.20614467   181.10776528
 H     49  46  44     2.042087291968   120.44543630     1.51706694
 H     50  48  47     2.043929551061   120.11098331     0.47862448
 H     51  50  48     2.044824855047   120.45314449   179.34010477
 C     45  44  42     2.866463799813    87.67469896   329.11171812
 C     55  45  44     2.882306261592   112.37207533   160.19876078
 C     55  45  44     2.917433936202   108.05584536   279.23543243
 C     44  42  38     2.678708150839   119.77951957     7.57630399
 C     58  44  42     2.619802145790   119.89943862   110.29245799
 C     59  58  44     2.606224722580   118.76016557   178.98972461
 C     60  59  58     2.640368801781   122.36031586     2.44554126
 C     61  60  59     2.637036542310   118.94843829   359.46130150
 C     58  44  42     2.609153826062   120.71393742   290.08703428
 H     63  58  44     2.045719006473   117.55415980   359.67543090
 H     59  58  44     2.044516236258   120.08146777     0.10963767
 H     60  59  58     2.046983675356   119.16011796   182.24614259
 C     61  60  59     2.835992169433   117.53013488   182.85426809
 C     22   1   2     2.828962873458    94.67760862   257.05161322
 H     67  61  60     2.061999731616   108.41593860    12.52619960
 H     67  61  60     2.067198149546   111.46461702   256.40880853
 H     68  22   1     2.066336817247   111.40235941    62.70874707
 H     68  22   1     2.061364379816   108.79719793   179.35712455
 H     57  55  45     2.059318622499   111.65628342    59.54102191
 H     57  55  45     2.062435557248   110.48611711   299.37508514
 H     57  55  45     2.062917034409   110.26970630   179.47247601
 H     56  55  45     2.060717562190   112.37433290   298.45978850
 H     56  55  45     2.058998261715   110.80981567   177.06012502
 H     56  55  45     2.059024619968   110.95196954    59.85768609

---------------------
BASIS SET INFORMATION
---------------------
There are 3 groups of distinct atoms

 Group   1 Type C   : 8s4p1d contracted to 4s2p1d pattern {5111/31/1}
 Group   2 Type H   : 4s contracted to 2s pattern {31}
 Group   3 Type N   : 8s4p1d contracted to 4s2p1d pattern {5111/31/1}

Atom   0C    basis set group =>   1
Atom   1C    basis set group =>   1
Atom   2C    basis set group =>   1
Atom   3C    basis set group =>   1
Atom   4H    basis set group =>   2
Atom   5C    basis set group =>   1
Atom   6H    basis set group =>   2
Atom   7C    basis set group =>   1
Atom   8H    basis set group =>   2
Atom   9C    basis set group =>   1
Atom  10H    basis set group =>   2
Atom  11C    basis set group =>   1
Atom  12C    basis set group =>   1
Atom  13H    basis set group =>   2
Atom  14C    basis set group =>   1
Atom  15H    basis set group =>   2
Atom  16C    basis set group =>   1
Atom  17H    basis set group =>   2
Atom  18C    basis set group =>   1
Atom  19H    basis set group =>   2
Atom  20C    basis set group =>   1
Atom  21C    basis set group =>   1
Atom  22C    basis set group =>   1
Atom  23H    basis set group =>   2
Atom  24C    basis set group =>   1
Atom  25C    basis set group =>   1
Atom  26N    basis set group =>   3
Atom  27C    basis set group =>   1
Atom  28C    basis set group =>   1
Atom  29H    basis set group =>   2
Atom  30C    basis set group =>   1
Atom  31C    basis set group =>   1
Atom  32N    basis set group =>   3
Atom  33H    basis set group =>   2
Atom  34H    basis set group =>   2
Atom  35C    basis set group =>   1
Atom  36C    basis set group =>   1
Atom  37C    basis set group =>   1
Atom  38H    basis set group =>   2
Atom  39C    basis set group =>   1
Atom  40H    basis set group =>   2
Atom  41C    basis set group =>   1
Atom  42C    basis set group =>   1
Atom  43N    basis set group =>   3
Atom  44C    basis set group =>   1
Atom  45C    basis set group =>   1
Atom  46H    basis set group =>   2
Atom  47C    basis set group =>   1
Atom  48C    basis set group =>   1
Atom  49C    basis set group =>   1
Atom  50C    basis set group =>   1
Atom  51H    basis set group =>   2
Atom  52H    basis set group =>   2
Atom  53H    basis set group =>   2
Atom  54C    basis set group =>   1
Atom  55C    basis set group =>   1
Atom  56C    basis set group =>   1
Atom  57C    basis set group =>   1
Atom  58C    basis set group =>   1
Atom  59C    basis set group =>   1
Atom  60C    basis set group =>   1
Atom  61C    basis set group =>   1
Atom  62C    basis set group =>   1
Atom  63H    basis set group =>   2
Atom  64H    basis set group =>   2
Atom  65H    basis set group =>   2
Atom  66C    basis set group =>   1
Atom  67C    basis set group =>   1
Atom  68H    basis set group =>   2
Atom  69H    basis set group =>   2
Atom  70H    basis set group =>   2
Atom  71H    basis set group =>   2
Atom  72H    basis set group =>   2
Atom  73H    basis set group =>   2
Atom  74H    basis set group =>   2
Atom  75H    basis set group =>   2
Atom  76H    basis set group =>   2
Atom  77H    basis set group =>   2
-------------------------------
AUXILIARY BASIS SET INFORMATION
-------------------------------
There are 3 groups of distinct atoms

 Group   1 Type C   : 12s5p4d2f1g contracted to 6s4p3d1f1g pattern {711111/2111/211/2/1}
 Group   2 Type H   : 5s2p1d contracted to 3s1p1d pattern {311/2/1}
 Group   3 Type N   : 12s5p4d2f1g contracted to 6s4p3d1f1g pattern {711111/2111/211/2/1}

Atom   0C    basis set group =>   1
Atom   1C    basis set group =>   1
Atom   2C    basis set group =>   1
Atom   3C    basis set group =>   1
Atom   4H    basis set group =>   2
Atom   5C    basis set group =>   1
Atom   6H    basis set group =>   2
Atom   7C    basis set group =>   1
Atom   8H    basis set group =>   2
Atom   9C    basis set group =>   1
Atom  10H    basis set group =>   2
Atom  11C    basis set group =>   1
Atom  12C    basis set group =>   1
Atom  13H    basis set group =>   2
Atom  14C    basis set group =>   1
Atom  15H    basis set group =>   2
Atom  16C    basis set group =>   1
Atom  17H    basis set group =>   2
Atom  18C    basis set group =>   1
Atom  19H    basis set group =>   2
Atom  20C    basis set group =>   1
Atom  21C    basis set group =>   1
Atom  22C    basis set group =>   1
Atom  23H    basis set group =>   2
Atom  24C    basis set group =>   1
Atom  25C    basis set group =>   1
Atom  26N    basis set group =>   3
Atom  27C    basis set group =>   1
Atom  28C    basis set group =>   1
Atom  29H    basis set group =>   2
Atom  30C    basis set group =>   1
Atom  31C    basis set group =>   1
Atom  32N    basis set group =>   3
Atom  33H    basis set group =>   2
Atom  34H    basis set group =>   2
Atom  35C    basis set group =>   1
Atom  36C    basis set group =>   1
Atom  37C    basis set group =>   1
Atom  38H    basis set group =>   2
Atom  39C    basis set group =>   1
Atom  40H    basis set group =>   2
Atom  41C    basis set group =>   1
Atom  42C    basis set group =>   1
Atom  43N    basis set group =>   3
Atom  44C    basis set group =>   1
Atom  45C    basis set group =>   1
Atom  46H    basis set group =>   2
Atom  47C    basis set group =>   1
Atom  48C    basis set group =>   1
Atom  49C    basis set group =>   1
Atom  50C    basis set group =>   1
Atom  51H    basis set group =>   2
Atom  52H    basis set group =>   2
Atom  53H    basis set group =>   2
Atom  54C    basis set group =>   1
Atom  55C    basis set group =>   1
Atom  56C    basis set group =>   1
Atom  57C    basis set group =>   1
Atom  58C    basis set group =>   1
Atom  59C    basis set group =>   1
Atom  60C    basis set group =>   1
Atom  61C    basis set group =>   1
Atom  62C    basis set group =>   1
Atom  63H    basis set group =>   2
Atom  64H    basis set group =>   2
Atom  65H    basis set group =>   2
Atom  66C    basis set group =>   1
Atom  67C    basis set group =>   1
Atom  68H    basis set group =>   2
Atom  69H    basis set group =>   2
Atom  70H    basis set group =>   2
Atom  71H    basis set group =>   2
Atom  72H    basis set group =>   2
Atom  73H    basis set group =>   2
Atom  74H    basis set group =>   2
Atom  75H    basis set group =>   2
Atom  76H    basis set group =>   2
Atom  77H    basis set group =>   2


           ************************************************************
           *        Program running with 16 parallel MPI-processes    *
           *              working on a common directory               *
           ************************************************************
------------------------------------------------------------------------------
                           ORCA GTO INTEGRAL CALCULATION
                           -- RI-GTO INTEGRALS CHOSEN --
------------------------------------------------------------------------------

                         BASIS SET STATISTICS AND STARTUP INFO

Gaussian basis set:
 # of primitive gaussian shells          ...  735
 # of primitive gaussian functions       ... 1299
 # of contracted shells                  ...  391
 # of contracted basis functions         ...  767
 Highest angular momentum                ...    2
 Maximum contraction depth               ...    5
Auxiliary gaussian basis set:
 # of primitive gaussian shells          ... 1376
 # of primitive gaussian functions       ... 3786
 # of contracted shells                  ...  860
 # of contracted aux-basis functions     ... 2644
 Highest angular momentum                ...    4
 Maximum contraction depth               ...    7
Ratio of auxiliary to basis functions    ...  3.45
Integral package used                  ... LIBINT
 One Electron integrals                  ... done
 Ordering auxiliary basis shells         ... done
 Integral threshhold             Thresh  ...  1.000e-10
 Primitive cut-off               TCut    ...  1.000e-11
 Pre-screening matrix                    ... done
 Shell pair data                         ... 
 Ordering of the shell pairs             ... done (   0.008 sec) 39941 of 76636 pairs
 Determination of significant pairs      ... done (   0.000 sec)
 Creation of shell pair data             ... done (   0.008 sec)
 Storage of shell pair data              ... done (   0.007 sec)
 Shell pair data done in (   0.023 sec)
 Computing two index integrals           ... done
 Cholesky decomposition of the V-matrix  ... done


Timings:
 Total evaluation time                   ...   1.756 sec (  0.029 min)
 One electron matrix time                ...   0.524 sec (  0.009 min) = 29.9%
 Schwartz matrix evaluation time         ...   0.480 sec (  0.008 min) = 27.4%
 Two index repulsion integral time       ...   0.269 sec (  0.004 min) = 15.3%
 Cholesky decomposition of V             ...   0.437 sec (  0.007 min) = 24.9%
 Three index repulsion integral time     ...   0.000 sec (  0.000 min) =  0.0%



           ************************************************************
           *        Program running with 16 parallel MPI-processes    *
           *              working on a common directory               *
           ************************************************************
-------------------------------------------------------------------------------
                                 ORCA SCF
-------------------------------------------------------------------------------

------------
SCF SETTINGS
------------
Hamiltonian:
 Density Functional     Method          .... DFT(GTOs)
 Exchange Functional    Exchange        .... PBE
   PBE kappa parameter   XKappa         ....  1.024500
   PBE mue parameter    XMuePBE         ....  0.123457
 Correlation Functional Correlation     .... PBE
   PBE beta parameter  CBetaPBE         ....  0.030000
 LDA part of GGA corr.  LDAOpt          .... PW91-LDA
 Gradients option       PostSCFGGA      .... off
 Hybrid DFT is turned on
   Fraction HF Exchange ScalHFX         ....  0.420000
   Scaling of DF-GGA-X  ScalDFX         ....  0.580000
   Scaling of DF-GGA-C  ScalDFC         ....  1.000000
   Scaling of DF-LDA-C  ScalLDAC        ....  1.000000
   Perturbative correction              ....  0.000000
 RI-approximation to the Coulomb term is turned on
   Number of auxiliary basis functions  .... 2644
   RIJ-ON(X) (HFX calculated with O(N)) .... on


General Settings:
 Integral files         IntName         .... orca_tda_gsopt
 Hartree-Fock type      HFTyp           .... RHF
 Total Charge           Charge          ....    0
 Multiplicity           Mult            ....    1
 Number of Electrons    NEL             ....  316
 Basis Dimension        Dim             ....  767
 Nuclear Repulsion      ENuc            ....   5570.4552291394 Eh

Convergence Acceleration:
 DIIS                   CNVDIIS         .... on
   Start iteration      DIISMaxIt       ....    12
   Startup error        DIISStart       ....  0.200000
   # of expansion vecs  DIISMaxEq       ....     5
   Bias factor          DIISBfac        ....   1.050
   Max. coefficient     DIISMaxC        ....  10.000
 Newton-Raphson         CNVNR           .... off
 SOSCF                  CNVSOSCF        .... on
   Start iteration      SOSCFMaxIt      ....   150
   Startup grad/error   SOSCFStart      ....  0.003300
 Level Shifting         CNVShift        .... on
   Level shift para.    LevelShift      ....    0.2500
   Turn off err/grad.   ShiftErr        ....    0.0010
 Zerner damping         CNVZerner       .... off
 Static damping         CNVDamp         .... on
   Fraction old density DampFac         ....    0.7000
   Max. Damping (<1)    DampMax         ....    0.9800
   Min. Damping (>=0)   DampMin         ....    0.0000
   Turn off err/grad.   DampErr         ....    0.1000
 Fernandez-Rico         CNVRico         .... off

SCF Procedure:
 Maximum # iterations   MaxIter         ....   125
 SCF integral mode      SCFMode         .... Direct
   Integral package                     .... LIBINT
 Reset frequeny         DirectResetFreq ....    20
 Integral Threshold     Thresh          ....  1.000e-10 Eh
 Primitive CutOff       TCut            ....  1.000e-11 Eh

Convergence Tolerance:
 Convergence Check Mode ConvCheckMode   .... Total+1el-Energy
 Convergence forced     ConvForced      .... 1
 Energy Change          TolE            ....  1.000e-06 Eh
 1-El. energy change                    ....  1.000e-03 Eh
 Orbital Gradient       TolG            ....  5.000e-05
 Orbital Rotation angle TolX            ....  5.000e-05
 DIIS Error             TolErr          ....  1.000e-06


Diagonalization of the overlap matrix:
Smallest eigenvalue                        ... 2.534e-04
Time for diagonalization                   ...    0.205 sec
Threshold for overlap eigenvalues          ... 1.000e-08
Number of eigenvalues below threshold      ... 0
Time for construction of square roots      ...    0.110 sec
Total time needed                          ...    0.318 sec

--------------------------------
INITIAL GUESS: MINIMAL BASIS EHT
--------------------------------
The minimal basis has 266 functions
EHT matrix was diagonalized
Basis set overlap was calculated now projecting the orbitals
Using GuessMode=FMatrix for the initial guess
C*T matrix was formed
Effective Fockian was calculated
Effective Fockian was diagonalized
Initial density was built
                      ------------------
                      INITIAL GUESS DONE
                      ------------------
-------------------
DFT GRID GENERATION
-------------------

General Integration Accuracy     IntAcc      ...  4.340
Radial Grid Type                 RadialGrid  ... Gauss-Chebyshev
Angular Grid (max. acc.)         AngularGrid ... Lebedev-194
Angular grid pruning method      GridPruning ... 3 (G Style)
Weight generation scheme         WeightScheme... Becke
Basis function cutoff            BFCut       ...    1.0000e-10
Integration weight cutoff        WCut        ...    1.0000e-14
Grids for H and He will be reduced by one unit

# of grid points (after initial pruning)     ... 201488 (   0.0 sec)
# of grid points (after weights+screening)   ... 170347 (   0.9 sec)
nearest neighbour list constructed           ...    0.0 sec
Grid point re-assignment to atoms done       ...    0.0 sec
Grid point division into batches done        ...    0.3 sec
Reduced shell lists constructed in    0.6 sec

Total number of grid points                  ...   170347
Total number of batches                      ...     2705
Average number of points per batch           ...       62
Average number of grid points per atom       ...     2184
Average number of shells per batch           ...   142.29 (36.39%)
Average number of basis functions per batch  ...   299.98 (39.11%)
Average number of large shells per batch     ...    84.99 (59.73%)
Average number of large basis fcns per batch ...   185.45 (61.82%)
Maximum spatial batch extension              ...  14.97, 19.56, 15.58 au
Average spatial batch extension              ...   0.11,  0.11,  0.11 au

Time for grid setup =    1.556 sec

--------------
SCF ITERATIONS
--------------
ITER       Energy         Delta-E        Max-DP      RMS-DP      [F,P]     Damp
               ***  Starting incremental Fock matrix formation  ***
  0  -1850.0421875654   0.000000000000 0.37509776  0.00322796  0.6003039 0.7000
  1  -1851.8502107719  -1.808023206453 0.17539230  0.00197041  0.3439879 0.7000
  2  -1852.9247820317  -1.074571259793 0.10733143  0.00142298  0.2395993 0.7000
                               ***Turning on DIIS***
  3  -1853.6928070536  -0.768025021867 0.09859035  0.00108441  0.1667738 0.7000
  4  -1854.2454985456  -0.552691492051 0.07294727  0.00082784  0.1173089 0.7000
  5  -1854.6357164231  -0.390217877511 0.17812625  0.00202912  0.0826378 0.0000
                      *** Initiating the SOSCF procedure ***
                           *** Shutting down DIIS ***
                      *** Re-Reading the Fockian *** 
                      *** Removing any level shift *** 
ITER      Energy       Delta-E        Grad      Rot      Max-DP    RMS-DP
  6  -1855.56357174  -0.9278553162  0.001507  0.001507  0.005893  0.000077
               *** Restarting incremental Fock matrix formation ***
  7  -1855.56394447  -0.0003727273  0.002017  0.004492  0.004718  0.000047
  8  -1855.56389282   0.0000516423  0.003176  0.002765  0.003083  0.000029
  9  -1855.56405709  -0.0001642636  0.000222  0.000373  0.000517  0.000007
 10  -1855.56405684   0.0000002444  0.000200  0.000354  0.000332  0.000003
 11  -1855.56405928  -0.0000024337  0.000022  0.000066  0.000096  0.000001
 12  -1855.56405919   0.0000000833  0.000033  0.000045  0.000062  0.000001
                 **** Energy Check signals convergence ****
              ***Rediagonalizing the Fockian in SOSCF/NRSCF***

               *****************************************************
               *                     SUCCESS                       *
               *           SCF CONVERGED AFTER  13 CYCLES          *
               *****************************************************


----------------
TOTAL SCF ENERGY
----------------

Total Energy       :        -1855.56405930 Eh          -50492.46504 eV

Components:
Nuclear Repulsion  :         5570.45522914 Eh          151579.79295 eV
Electronic Energy  :        -7426.01928844 Eh         -202072.25799 eV
One Electron Energy:       -13600.67373544 Eh         -370093.14751 eV
Two Electron Energy:         6174.65444700 Eh          168020.88952 eV

Virial components:
Potential Energy   :        -3696.66322809 Eh         -100591.32040 eV
Kinetic Energy     :         1841.09916879 Eh           50098.85536 eV
Virial Ratio       :            2.00785666


DFT components:
N(Alpha)           :      158.001774266996 electrons
N(Beta)            :      158.001774266996 electrons
N(Total)           :      316.003548533993 electrons
E(X)               :     -144.555013037597 Eh       
E(C)               :      -13.859838299534 Eh       
E(XC)              :     -158.414851337131 Eh       

---------------
SCF CONVERGENCE
---------------

  Last Energy change         ...   -1.0544e-07  Tolerance :   1.0000e-06
  Last MAX-Density change    ...    2.5601e-05  Tolerance :   1.0000e-05
  Last RMS-Density change    ...    3.1903e-07  Tolerance :   1.0000e-06
  Last Orbital Gradient      ...    7.8741e-06  Tolerance :   5.0000e-05
  Last Orbital Rotation      ...    2.9948e-05  Tolerance :   5.0000e-05

             **** THE GBW FILE WAS UPDATED (orca_tda_gsopt.gbw) ****
             **** DENSITY FILE WAS UPDATED (orca_tda_gsopt.scfp.tmp) ****
             **** ENERGY FILE WAS UPDATED (orca_tda_gsopt.en.tmp) ****
----------------
ORBITAL ENERGIES
----------------

  NO   OCC          E(Eh)            E(eV) 
   0   2.0000     -14.679945      -399.4616 
   1   2.0000     -14.657028      -398.8380 
   2   2.0000     -14.654520      -398.7698 
   3   2.0000     -10.522244      -286.3248 
   4   2.0000     -10.520826      -286.2862 
   5   2.0000     -10.512170      -286.0507 
   6   2.0000     -10.507482      -285.9231 
   7   2.0000     -10.500381      -285.7299 
   8   2.0000     -10.500301      -285.7277 
   9   2.0000     -10.497935      -285.6633 
  10   2.0000     -10.497899      -285.6624 
  11   2.0000     -10.493624      -285.5460 
  12   2.0000     -10.491738      -285.4947 
  13   2.0000     -10.491273      -285.4821 
  14   2.0000     -10.491054      -285.4761 
  15   2.0000     -10.487815      -285.3879 
  16   2.0000     -10.480191      -285.1805 
  17   2.0000     -10.477626      -285.1107 
  18   2.0000     -10.477584      -285.1096 
  19   2.0000     -10.474609      -285.0286 
  20   2.0000     -10.474490      -285.0254 
  21   2.0000     -10.473806      -285.0068 
  22   2.0000     -10.469658      -284.8939 
  23   2.0000     -10.469323      -284.8848 
  24   2.0000     -10.468533      -284.8633 
  25   2.0000     -10.468129      -284.8523 
  26   2.0000     -10.467825      -284.8440 
  27   2.0000     -10.466831      -284.8170 
  28   2.0000     -10.466807      -284.8163 
  29   2.0000     -10.465985      -284.7939 
  30   2.0000     -10.465017      -284.7676 
  31   2.0000     -10.465000      -284.7671 
  32   2.0000     -10.464182      -284.7449 
  33   2.0000     -10.463484      -284.7259 
  34   2.0000     -10.463109      -284.7157 
  35   2.0000     -10.451711      -284.4055 
  36   2.0000     -10.451304      -284.3944 
  37   2.0000     -10.444316      -284.2043 
  38   2.0000     -10.444222      -284.2017 
  39   2.0000     -10.443236      -284.1749 
  40   2.0000     -10.442301      -284.1495 
  41   2.0000     -10.442023      -284.1419 
  42   2.0000     -10.439778      -284.0808 
  43   2.0000     -10.437728      -284.0250 
  44   2.0000     -10.436433      -283.9898 
  45   2.0000     -10.430689      -283.8335 
  46   2.0000     -10.426294      -283.7139 
  47   2.0000      -1.091267       -29.6949 
  48   2.0000      -1.042137       -28.3580 
  49   2.0000      -1.029878       -28.0244 
  50   2.0000      -1.019202       -27.7339 
  51   2.0000      -1.003510       -27.3069 
  52   2.0000      -0.987654       -26.8754 
  53   2.0000      -0.968854       -26.3639 
  54   2.0000      -0.960531       -26.1374 
  55   2.0000      -0.957330       -26.0503 
  56   2.0000      -0.938742       -25.5445 
  57   2.0000      -0.933567       -25.4036 
  58   2.0000      -0.910500       -24.7760 
  59   2.0000      -0.898171       -24.4405 
  60   2.0000      -0.890281       -24.2258 
  61   2.0000      -0.884803       -24.0767 
  62   2.0000      -0.857840       -23.3430 
  63   2.0000      -0.856737       -23.3130 
  64   2.0000      -0.848267       -23.0825 
  65   2.0000      -0.845896       -23.0180 
  66   2.0000      -0.833813       -22.6892 
  67   2.0000      -0.825839       -22.4722 
  68   2.0000      -0.818645       -22.2765 
  69   2.0000      -0.808276       -21.9943 
  70   2.0000      -0.795093       -21.6356 
  71   2.0000      -0.772754       -21.0277 
  72   2.0000      -0.771537       -20.9946 
  73   2.0000      -0.747829       -20.3495 
  74   2.0000      -0.731474       -19.9044 
  75   2.0000      -0.724959       -19.7271 
  76   2.0000      -0.713936       -19.4272 
  77   2.0000      -0.710876       -19.3439 
  78   2.0000      -0.702328       -19.1113 
  79   2.0000      -0.691132       -18.8067 
  80   2.0000      -0.682019       -18.5587 
  81   2.0000      -0.678790       -18.4708 
  82   2.0000      -0.672608       -18.3026 
  83   2.0000      -0.671151       -18.2629 
  84   2.0000      -0.666381       -18.1331 
  85   2.0000      -0.645231       -17.5576 
  86   2.0000      -0.618637       -16.8340 
  87   2.0000      -0.612763       -16.6741 
  88   2.0000      -0.611996       -16.6533 
  89   2.0000      -0.610778       -16.6201 
  90   2.0000      -0.598512       -16.2863 
  91   2.0000      -0.583875       -15.8880 
  92   2.0000      -0.582319       -15.8457 
  93   2.0000      -0.572996       -15.5920 
  94   2.0000      -0.566430       -15.4133 
  95   2.0000      -0.561298       -15.2737 
  96   2.0000      -0.539482       -14.6800 
  97   2.0000      -0.539246       -14.6736 
  98   2.0000      -0.537172       -14.6172 
  99   2.0000      -0.532769       -14.4974 
 100   2.0000      -0.529777       -14.4160 
 101   2.0000      -0.527223       -14.3465 
 102   2.0000      -0.523080       -14.2337 
 103   2.0000      -0.520663       -14.1680 
 104   2.0000      -0.516606       -14.0576 
 105   2.0000      -0.509852       -13.8738 
 106   2.0000      -0.507040       -13.7973 
 107   2.0000      -0.503489       -13.7006 
 108   2.0000      -0.501934       -13.6583 
 109   2.0000      -0.500744       -13.6259 
 110   2.0000      -0.497938       -13.5496 
 111   2.0000      -0.493809       -13.4372 
 112   2.0000      -0.491112       -13.3638 
 113   2.0000      -0.489658       -13.3243 
 114   2.0000      -0.486526       -13.2390 
 115   2.0000      -0.484713       -13.1897 
 116   2.0000      -0.474606       -12.9147 
 117   2.0000      -0.469512       -12.7761 
 118   2.0000      -0.460088       -12.5196 
 119   2.0000      -0.451177       -12.2772 
 120   2.0000      -0.447966       -12.1898 
 121   2.0000      -0.444002       -12.0819 
 122   2.0000      -0.440335       -11.9821 
 123   2.0000      -0.438672       -11.9369 
 124   2.0000      -0.437239       -11.8979 
 125   2.0000      -0.435983       -11.8637 
 126   2.0000      -0.435409       -11.8481 
 127   2.0000      -0.430689       -11.7196 
 128   2.0000      -0.427570       -11.6348 
 129   2.0000      -0.425382       -11.5752 
 130   2.0000      -0.424189       -11.5428 
 131   2.0000      -0.420500       -11.4424 
 132   2.0000      -0.420347       -11.4382 
 133   2.0000      -0.416327       -11.3288 
 134   2.0000      -0.415240       -11.2992 
 135   2.0000      -0.413468       -11.2510 
 136   2.0000      -0.411887       -11.2080 
 137   2.0000      -0.402955       -10.9650 
 138   2.0000      -0.400701       -10.9036 
 139   2.0000      -0.399107       -10.8602 
 140   2.0000      -0.397324       -10.8117 
 141   2.0000      -0.395465       -10.7611 
 142   2.0000      -0.392555       -10.6820 
 143   2.0000      -0.378102       -10.2887 
 144   2.0000      -0.373529       -10.1642 
 145   2.0000      -0.363994        -9.9048 
 146   2.0000      -0.349426        -9.5084 
 147   2.0000      -0.339283        -9.2324 
 148   2.0000      -0.321891        -8.7591 
 149   2.0000      -0.313978        -8.5438 
 150   2.0000      -0.305843        -8.3224 
 151   2.0000      -0.303474        -8.2579 
 152   2.0000      -0.299131        -8.1398 
 153   2.0000      -0.290880        -7.9152 
 154   2.0000      -0.286928        -7.8077 
 155   2.0000      -0.280744        -7.6394 
 156   2.0000      -0.270870        -7.3707 
 157   2.0000      -0.230253        -6.2655 
 158   0.0000      -0.062781        -1.7084 
 159   0.0000      -0.041272        -1.1231 
 160   0.0000      -0.029498        -0.8027 
 161   0.0000      -0.016874        -0.4592 
 162   0.0000      -0.009886        -0.2690 
 163   0.0000      -0.004114        -0.1120 
 164   0.0000       0.014663         0.3990 
 165   0.0000       0.017360         0.4724 
 166   0.0000       0.018944         0.5155 
 167   0.0000       0.033585         0.9139 
 168   0.0000       0.047934         1.3044 
 169   0.0000       0.048115         1.3093 
 170   0.0000       0.049605         1.3498 
 171   0.0000       0.070034         1.9057 
 172   0.0000       0.084154         2.2900 
 173   0.0000       0.110560         3.0085 
 174   0.0000       0.111500         3.0341 
 175   0.0000       0.120638         3.2827 
 176   0.0000       0.126695         3.4475 
 177   0.0000       0.129324         3.5191 
 178   0.0000       0.133328         3.6280 
 179   0.0000       0.136890         3.7250 
 180   0.0000       0.147651         4.0178 
 181   0.0000       0.148623         4.0442 
 182   0.0000       0.154813         4.2127 
 183   0.0000       0.155365         4.2277 
 184   0.0000       0.158473         4.3123 
 185   0.0000       0.161247         4.3877 
 186   0.0000       0.164500         4.4763 
 187   0.0000       0.176730         4.8091 
 188   0.0000       0.181203         4.9308 
 189   0.0000       0.182114         4.9556 
 190   0.0000       0.187169         5.0931 
 191   0.0000       0.192876         5.2484 
 192   0.0000       0.193813         5.2739 
 193   0.0000       0.195540         5.3209 
 194   0.0000       0.197355         5.3703 
 195   0.0000       0.197856         5.3839 
 196   0.0000       0.203167         5.5285 
 197   0.0000       0.206483         5.6187 
 198   0.0000       0.210917         5.7393 
 199   0.0000       0.216477         5.8907 
 200   0.0000       0.219162         5.9637 
 201   0.0000       0.221644         6.0312 
 202   0.0000       0.223322         6.0769 
 203   0.0000       0.227496         6.1905 
 204   0.0000       0.228822         6.2266 
 205   0.0000       0.230790         6.2801 
 206   0.0000       0.233925         6.3654 
 207   0.0000       0.235660         6.4126 
 208   0.0000       0.238524         6.4906 
 209   0.0000       0.240035         6.5317 
 210   0.0000       0.242719         6.6047 
 211   0.0000       0.246608         6.7106 
 212   0.0000       0.251169         6.8347 
 213   0.0000       0.252586         6.8732 
 214   0.0000       0.256589         6.9822 
 215   0.0000       0.259123         7.0511 
 216   0.0000       0.259976         7.0743 
 217   0.0000       0.261933         7.1276 
 218   0.0000       0.264940         7.2094 
 219   0.0000       0.271285         7.3821 
 220   0.0000       0.274832         7.4786 
 221   0.0000       0.278983         7.5915 
 222   0.0000       0.282216         7.6795 
 223   0.0000       0.290742         7.9115 
 224   0.0000       0.292337         7.9549 
 225   0.0000       0.295168         8.0319 
 226   0.0000       0.296665         8.0727 
 227   0.0000       0.303471         8.2579 
 228   0.0000       0.304882         8.2963 
 229   0.0000       0.310283         8.4432 
 230   0.0000       0.310611         8.4521 
 231   0.0000       0.315855         8.5949 
 232   0.0000       0.327835         8.9208 
 233   0.0000       0.331949         9.0328 
 234   0.0000       0.334441         9.1006 
 235   0.0000       0.343886         9.3576 
 236   0.0000       0.350769         9.5449 
 237   0.0000       0.360011         9.7964 
 238   0.0000       0.360832         9.8187 
 239   0.0000       0.364715         9.9244 
 240   0.0000       0.367670        10.0048 
 241   0.0000       0.375044        10.2055 
 242   0.0000       0.378901        10.3104 
 243   0.0000       0.385213        10.4822 
 244   0.0000       0.390191        10.6176 
 245   0.0000       0.396931        10.8010 
 246   0.0000       0.400306        10.8929 
 247   0.0000       0.414694        11.2844 
 248   0.0000       0.415375        11.3029 
 249   0.0000       0.419665        11.4197 
 250   0.0000       0.429351        11.6832 
 251   0.0000       0.432723        11.7750 
 252   0.0000       0.446777        12.1574 
 253   0.0000       0.455340        12.3904 
 254   0.0000       0.460386        12.5277 
 255   0.0000       0.466680        12.6990 
 256   0.0000       0.468468        12.7477 
 257   0.0000       0.472434        12.8556 
 258   0.0000       0.480551        13.0765 
 259   0.0000       0.482848        13.1390 
 260   0.0000       0.487586        13.2679 
 261   0.0000       0.497865        13.5476 
 262   0.0000       0.500989        13.6326 
 263   0.0000       0.502714        13.6795 
 264   0.0000       0.507721        13.8158 
 265   0.0000       0.511913        13.9299 
 266   0.0000       0.516662        14.0591 
 267   0.0000       0.520462        14.1625 
 268   0.0000       0.522812        14.2264 
 269   0.0000       0.526080        14.3154 
 270   0.0000       0.528550        14.3826 
 271   0.0000       0.532141        14.4803 
 272   0.0000       0.536785        14.6067 
 273   0.0000       0.537366        14.6225 
 274   0.0000       0.540683        14.7127 
 275   0.0000       0.541423        14.7329 
 276   0.0000       0.548430        14.9235 
 277   0.0000       0.549926        14.9642 
 278   0.0000       0.551639        15.0109 
 279   0.0000       0.553453        15.0602 
 280   0.0000       0.559280        15.2188 
 281   0.0000       0.563821        15.3424 
 282   0.0000       0.565376        15.3847 
 283   0.0000       0.566470        15.4144 
 284   0.0000       0.568338        15.4653 
 285   0.0000       0.572617        15.5817 
 286   0.0000       0.575673        15.6649 
 287   0.0000       0.578188        15.7333 
 288   0.0000       0.579999        15.7826 
 289   0.0000       0.585610        15.9353 
 290   0.0000       0.586571        15.9614 
 291   0.0000       0.592825        16.1316 
 292   0.0000       0.594134        16.1672 
 293   0.0000       0.597422        16.2567 
 294   0.0000       0.601201        16.3595 
 295   0.0000       0.603791        16.4300 
 296   0.0000       0.608087        16.5469 
 297   0.0000       0.610157        16.6032 
 298   0.0000       0.611524        16.6404 
 299   0.0000       0.617178        16.7943 
 300   0.0000       0.618086        16.8190 
 301   0.0000       0.619789        16.8653 
 302   0.0000       0.624354        16.9895 
 303   0.0000       0.626601        17.0507 
 304   0.0000       0.628209        17.0944 
 305   0.0000       0.629858        17.1393 
 306   0.0000       0.633727        17.2446 
 307   0.0000       0.635134        17.2829 
 308   0.0000       0.641318        17.4512 
 309   0.0000       0.643069        17.4988 
 310   0.0000       0.644030        17.5250 
 311   0.0000       0.646313        17.5871 
 312   0.0000       0.647804        17.6277 
 313   0.0000       0.651805        17.7365 
 314   0.0000       0.653116        17.7722 
 315   0.0000       0.659596        17.9485 
 316   0.0000       0.663776        18.0623 
 317   0.0000       0.666927        18.1480 
 318   0.0000       0.673191        18.3185 
 319   0.0000       0.675408        18.3788 
 320   0.0000       0.680305        18.5120 
 321   0.0000       0.681342        18.5403 
 322   0.0000       0.686939        18.6925 
 323   0.0000       0.689697        18.7676 
 324   0.0000       0.694537        18.8993 
 325   0.0000       0.697128        18.9698 
 326   0.0000       0.697894        18.9907 
 327   0.0000       0.702633        19.1196 
 328   0.0000       0.703491        19.1430 
 329   0.0000       0.711537        19.3619 
 330   0.0000       0.715526        19.4704 
 331   0.0000       0.716669        19.5016 
 332   0.0000       0.719872        19.5887 
 333   0.0000       0.720379        19.6025 
 334   0.0000       0.724920        19.7261 
 335   0.0000       0.732159        19.9231 
 336   0.0000       0.734746        19.9934 
 337   0.0000       0.738616        20.0988 
 338   0.0000       0.742067        20.1927 
 339   0.0000       0.744025        20.2459 
 340   0.0000       0.746979        20.3263 
 341   0.0000       0.752211        20.4687 
 342   0.0000       0.754916        20.5423 
 343   0.0000       0.759637        20.6708 
 344   0.0000       0.762645        20.7526 
 345   0.0000       0.775097        21.0915 
 346   0.0000       0.779518        21.2118 
 347   0.0000       0.780884        21.2489 
 348   0.0000       0.787524        21.4296 
 349   0.0000       0.791116        21.5274 
 350   0.0000       0.799968        21.7682 
 351   0.0000       0.805211        21.9109 
 352   0.0000       0.812163        22.1001 
 353   0.0000       0.817839        22.2545 
 354   0.0000       0.822884        22.3918 
 355   0.0000       0.825065        22.4511 
 356   0.0000       0.833779        22.6883 
 357   0.0000       0.838130        22.8067 
 358   0.0000       0.844487        22.9797 
 359   0.0000       0.861048        23.4303 
 360   0.0000       0.866634        23.5823 
 361   0.0000       0.877042        23.8655 
 362   0.0000       0.878913        23.9164 
 363   0.0000       0.885030        24.0829 
 364   0.0000       0.890165        24.2226 
 365   0.0000       0.901843        24.5404 
 366   0.0000       0.907452        24.6930 
 367   0.0000       0.910426        24.7739 
 368   0.0000       0.914162        24.8756 
 369   0.0000       0.922142        25.0928 
 370   0.0000       0.926671        25.2160 
 371   0.0000       0.931941        25.3594 
 372   0.0000       0.935552        25.4577 
 373   0.0000       0.939590        25.5675 
 374   0.0000       0.944474        25.7004 
 375   0.0000       0.945074        25.7168 
 376   0.0000       0.951539        25.8927 
 377   0.0000       0.953790        25.9539 
 378   0.0000       0.959250        26.1025 
 379   0.0000       0.960971        26.1493 
 380   0.0000       0.966096        26.2888 
 381   0.0000       0.967639        26.3308 
 382   0.0000       0.970619        26.4119 
 383   0.0000       0.975545        26.5459 
 384   0.0000       0.979473        26.6528 
 385   0.0000       0.982069        26.7235 
 386   0.0000       0.987483        26.8708 
 387   0.0000       0.992234        27.0001 
 388   0.0000       0.995425        27.0869 
 389   0.0000       0.997174        27.1345 
 390   0.0000       1.001965        27.2649 
 391   0.0000       1.002605        27.2823 
 392   0.0000       1.005184        27.3525 
 393   0.0000       1.010554        27.4986 
 394   0.0000       1.016561        27.6620 
 395   0.0000       1.018144        27.7051 
 396   0.0000       1.022575        27.8257 
 397   0.0000       1.025768        27.9126 
 398   0.0000       1.028580        27.9891 
 399   0.0000       1.036557        28.2062 
 400   0.0000       1.040567        28.3153 
 401   0.0000       1.044778        28.4299 
 402   0.0000       1.046744        28.4834 
 403   0.0000       1.051347        28.6086 
 404   0.0000       1.053052        28.6550 
 405   0.0000       1.055581        28.7238 
 406   0.0000       1.058818        28.8119 
 407   0.0000       1.064374        28.9631 
 408   0.0000       1.068416        29.0731 
 409   0.0000       1.071829        29.1659 
 410   0.0000       1.073685        29.2165 
 411   0.0000       1.078364        29.3438 
 412   0.0000       1.082539        29.4574 
 413   0.0000       1.087767        29.5996 
 414   0.0000       1.092781        29.7361 
 415   0.0000       1.094543        29.7840 
 416   0.0000       1.096519        29.8378 
 417   0.0000       1.103090        30.0166 
 418   0.0000       1.107055        30.1245 
 419   0.0000       1.111765        30.2527 
 420   0.0000       1.118594        30.4385 
 421   0.0000       1.122176        30.5360 
 422   0.0000       1.127840        30.6901 
 423   0.0000       1.128380        30.7048 
 424   0.0000       1.133957        30.8565 
 425   0.0000       1.139102        30.9965 
 426   0.0000       1.141586        31.0641 
 427   0.0000       1.144632        31.1470 
 428   0.0000       1.151271        31.3277 
 429   0.0000       1.156810        31.4784 
 430   0.0000       1.160273        31.5726 
 431   0.0000       1.168564        31.7983 
 432   0.0000       1.173224        31.9251 
 433   0.0000       1.178287        32.0628 
 434   0.0000       1.182843        32.1868 
 435   0.0000       1.192280        32.4436 
 436   0.0000       1.193063        32.4649 
 437   0.0000       1.198085        32.6016 
 438   0.0000       1.208542        32.8861 
 439   0.0000       1.213729        33.0273 
 440   0.0000       1.229242        33.4494 
 441   0.0000       1.239035        33.7159 
 442   0.0000       1.245125        33.8816 
 443   0.0000       1.247508        33.9464 
 444   0.0000       1.251050        34.0428 
 445   0.0000       1.258736        34.2519 
 446   0.0000       1.266609        34.4662 
 447   0.0000       1.271861        34.6091 
 448   0.0000       1.277615        34.7657 
 449   0.0000       1.286684        35.0124 
 450   0.0000       1.293790        35.2058 
 451   0.0000       1.294801        35.2333 
 452   0.0000       1.302430        35.4409 
 453   0.0000       1.310101        35.6497 
 454   0.0000       1.311119        35.6774 
 455   0.0000       1.316149        35.8142 
 456   0.0000       1.320977        35.9456 
 457   0.0000       1.327906        36.1342 
 458   0.0000       1.333116        36.2759 
 459   0.0000       1.339021        36.4366 
 460   0.0000       1.340859        36.4866 
 461   0.0000       1.344808        36.5941 
 462   0.0000       1.352959        36.8159 
 463   0.0000       1.359250        36.9871 
 464   0.0000       1.365572        37.1591 
 465   0.0000       1.374005        37.3886 
 466   0.0000       1.379540        37.5392 
 467   0.0000       1.383695        37.6523 
 468   0.0000       1.392053        37.8797 
 469   0.0000       1.400757        38.1165 
 470   0.0000       1.409700        38.3599 
 471   0.0000       1.414520        38.4911 
 472   0.0000       1.423232        38.7281 
 473   0.0000       1.433019        38.9944 
 474   0.0000       1.442845        39.2618 
 475   0.0000       1.449682        39.4479 
 476   0.0000       1.458794        39.6958 
 477   0.0000       1.473407        40.0934 
 478   0.0000       1.492020        40.5999 
 479   0.0000       1.494327        40.6627 
 480   0.0000       1.501940        40.8699 
 481   0.0000       1.505020        40.9537 
 482   0.0000       1.510792        41.1107 
 483   0.0000       1.515643        41.2428 
 484   0.0000       1.517703        41.2988 
 485   0.0000       1.523254        41.4499 
 486   0.0000       1.529207        41.6118 
 487   0.0000       1.534053        41.7437 
 488   0.0000       1.535088        41.7719 
 489   0.0000       1.541800        41.9545 
 490   0.0000       1.543218        41.9931 
 491   0.0000       1.552640        42.2495 
 492   0.0000       1.553762        42.2800 
 493   0.0000       1.556447        42.3531 
 494   0.0000       1.557106        42.3710 
 495   0.0000       1.563292        42.5393 
 496   0.0000       1.568681        42.6860 
 497   0.0000       1.575193        42.8632 
 498   0.0000       1.580096        42.9966 
 499   0.0000       1.581698        43.0402 
 500   0.0000       1.586658        43.1752 
 501   0.0000       1.595326        43.4110 
 502   0.0000       1.595710        43.4215 
 503   0.0000       1.603221        43.6259 
 504   0.0000       1.605449        43.6865 
 505   0.0000       1.615985        43.9732 
 506   0.0000       1.621004        44.1097 
 507   0.0000       1.629503        44.3410 
 508   0.0000       1.642558        44.6963 
 509   0.0000       1.646881        44.8139 
 510   0.0000       1.657632        45.1065 
 511   0.0000       1.665357        45.3167 
 512   0.0000       1.685002        45.8512 
 513   0.0000       1.692707        46.0609 
 514   0.0000       1.697681        46.1962 
 515   0.0000       1.710328        46.5404 
 516   0.0000       1.723446        46.8974 
 517   0.0000       1.734349        47.1940 
 518   0.0000       1.739489        47.3339 
 519   0.0000       1.746133        47.5147 
 520   0.0000       1.756199        47.7886 
 521   0.0000       1.762304        47.9547 
 522   0.0000       1.773685        48.2644 
 523   0.0000       1.779386        48.4196 
 524   0.0000       1.784227        48.5513 
 525   0.0000       1.789790        48.7027 
 526   0.0000       1.801675        49.0261 
 527   0.0000       1.807634        49.1882 
 528   0.0000       1.815992        49.4157 
 529   0.0000       1.825771        49.6818 
 530   0.0000       1.832477        49.8642 
 531   0.0000       1.834064        49.9074 
 532   0.0000       1.839391        50.0524 
 533   0.0000       1.842045        50.1246 
 534   0.0000       1.846360        50.2420 
 535   0.0000       1.852195        50.4008 
 536   0.0000       1.857697        50.5505 
 537   0.0000       1.864806        50.7439 
 538   0.0000       1.869092        50.8606 
 539   0.0000       1.875608        51.0379 
 540   0.0000       1.878575        51.1186 
 541   0.0000       1.888961        51.4013 
 542   0.0000       1.894400        51.5493 
 543   0.0000       1.903469        51.7960 
 544   0.0000       1.905780        51.8589 
 545   0.0000       1.919618        52.2355 
 546   0.0000       1.926158        52.4134 
 547   0.0000       1.928111        52.4666 
 548   0.0000       1.933318        52.6083 
 549   0.0000       1.943866        52.8953 
 550   0.0000       1.948872        53.0315 
 551   0.0000       1.959095        53.3097 
 552   0.0000       1.963583        53.4318 
 553   0.0000       1.971379        53.6439 
 554   0.0000       1.975483        53.7556 
 555   0.0000       1.985833        54.0373 
 556   0.0000       1.988259        54.1033 
 557   0.0000       1.998660        54.3863 
 558   0.0000       2.004047        54.5329 
 559   0.0000       2.005124        54.5622 
 560   0.0000       2.007690        54.6320 
 561   0.0000       2.018501        54.9262 
 562   0.0000       2.021834        55.0169 
 563   0.0000       2.025879        55.1270 
 564   0.0000       2.031011        55.2666 
 565   0.0000       2.034962        55.3741 
 566   0.0000       2.037763        55.4504 
 567   0.0000       2.043905        55.6175 
 568   0.0000       2.052134        55.8414 
 569   0.0000       2.059456        56.0407 
 570   0.0000       2.063811        56.1591 
 571   0.0000       2.066150        56.2228 
 572   0.0000       2.079071        56.5744 
 573   0.0000       2.084099        56.7112 
 574   0.0000       2.089560        56.8598 
 575   0.0000       2.096771        57.0560 
 576   0.0000       2.105757        57.3006 
 577   0.0000       2.113776        57.5188 
 578   0.0000       2.129084        57.9353 
 579   0.0000       2.134475        58.0820 
 580   0.0000       2.139559        58.2204 
 581   0.0000       2.143892        58.3383 
 582   0.0000       2.147739        58.4430 
 583   0.0000       2.156282        58.6754 
 584   0.0000       2.161952        58.8297 
 585   0.0000       2.163551        58.8732 
 586   0.0000       2.165544        58.9274 
 587   0.0000       2.169884        59.0455 
 588   0.0000       2.171583        59.0918 
 589   0.0000       2.184824        59.4521 
 590   0.0000       2.191767        59.6410 
 591   0.0000       2.194832        59.7244 
 592   0.0000       2.202855        59.9427 
 593   0.0000       2.209592        60.1261 
 594   0.0000       2.214705        60.2652 
 595   0.0000       2.218043        60.3560 
 596   0.0000       2.227936        60.6252 
 597   0.0000       2.235885        60.8415 
 598   0.0000       2.238141        60.9029 
 599   0.0000       2.243293        61.0431 
 600   0.0000       2.245835        61.1123 
 601   0.0000       2.257743        61.4363 
 602   0.0000       2.261033        61.5258 
 603   0.0000       2.262065        61.5539 
 604   0.0000       2.266755        61.6815 
 605   0.0000       2.274233        61.8850 
 606   0.0000       2.279702        62.0338 
 607   0.0000       2.286418        62.2166 
 608   0.0000       2.288083        62.2619 
 609   0.0000       2.295808        62.4721 
 610   0.0000       2.304410        62.7062 
 611   0.0000       2.310921        62.8834 
 612   0.0000       2.316429        63.0332 
 613   0.0000       2.320609        63.1470 
 614   0.0000       2.324312        63.2477 
 615   0.0000       2.330750        63.4229 
 616   0.0000       2.338684        63.6388 
 617   0.0000       2.343387        63.7668 
 618   0.0000       2.349783        63.9409 
 619   0.0000       2.354040        64.0567 
 620   0.0000       2.358150        64.1685 
 621   0.0000       2.360571        64.2344 
 622   0.0000       2.363020        64.3010 
 623   0.0000       2.371772        64.5392 
 624   0.0000       2.374237        64.6063 
 625   0.0000       2.380269        64.7704 
 626   0.0000       2.384516        64.8860 
 627   0.0000       2.389173        65.0127 
 628   0.0000       2.394091        65.1465 
 629   0.0000       2.396867        65.2221 
 630   0.0000       2.408264        65.5322 
 631   0.0000       2.421773        65.8998 
 632   0.0000       2.430469        66.1364 
 633   0.0000       2.433173        66.2100 
 634   0.0000       2.464591        67.0649 
 635   0.0000       2.468332        67.1667 
 636   0.0000       2.469938        67.2104 
 637   0.0000       2.483872        67.5896 
 638   0.0000       2.499537        68.0159 
 639   0.0000       2.509338        68.2825 
 640   0.0000       2.517460        68.5036 
 641   0.0000       2.533957        68.9525 
 642   0.0000       2.538200        69.0679 
 643   0.0000       2.546050        69.2815 
 644   0.0000       2.557844        69.6025 
 645   0.0000       2.575079        70.0715 
 646   0.0000       2.586996        70.3957 
 647   0.0000       2.591696        70.5236 
 648   0.0000       2.596159        70.6451 
 649   0.0000       2.602904        70.8286 
 650   0.0000       2.618672        71.2577 
 651   0.0000       2.624251        71.4095 
 652   0.0000       2.635686        71.7207 
 653   0.0000       2.650476        72.1231 
 654   0.0000       2.660349        72.3918 
 655   0.0000       2.677044        72.8461 
 656   0.0000       2.687527        73.1313 
 657   0.0000       2.692453        73.2654 
 658   0.0000       2.697716        73.4086 
 659   0.0000       2.703618        73.5692 
 660   0.0000       2.710923        73.7680 
 661   0.0000       2.716601        73.9225 
 662   0.0000       2.721354        74.0518 
 663   0.0000       2.730309        74.2955 
 664   0.0000       2.735980        74.4498 
 665   0.0000       2.736977        74.4769 
 666   0.0000       2.738358        74.5145 
 667   0.0000       2.743195        74.6461 
 668   0.0000       2.753726        74.9327 
 669   0.0000       2.758102        75.0518 
 670   0.0000       2.759924        75.1013 
 671   0.0000       2.766813        75.2888 
 672   0.0000       2.772168        75.4345 
 673   0.0000       2.773746        75.4775 
 674   0.0000       2.777332        75.5750 
 675   0.0000       2.787919        75.8631 
 676   0.0000       2.799225        76.1708 
 677   0.0000       2.811451        76.5035 
 678   0.0000       2.814937        76.5983 
 679   0.0000       2.820991        76.7631 
 680   0.0000       2.831961        77.0616 
 681   0.0000       2.834834        77.1398 
 682   0.0000       2.841790        77.3290 
 683   0.0000       2.848584        77.5139 
 684   0.0000       2.858726        77.7899 
 685   0.0000       2.864152        77.9375 
 686   0.0000       2.867352        78.0246 
 687   0.0000       2.885027        78.5056 
 688   0.0000       2.889403        78.6247 
 689   0.0000       2.896579        78.8199 
 690   0.0000       2.902000        78.9674 
[...]
   Time for K (Direct):    77.065
   Time for XC-Integration:     1.111
   Time for Sigma-Completion:     0.525
   Size of expansion space: 88
   Lowest Energy          :     0.123592628203
   Maximum Energy change  :     0.000459421619 (vector 5)
   Maximum residual norm  :     0.000024601202

                       ****Iteration    9****
   Time for densities:     0.792
   Using LibInt in JK Direct
   Time for K (Direct):    77.129
   Time for XC-Integration:     1.114
   Time for Sigma-Completion:     0.539
   Size of expansion space: 96
   Lowest Energy          :     0.123592627531
   Maximum Energy change  :     0.000076187145 (vector 5)
   Maximum residual norm  :     0.000004195852

                       ****Iteration   10****
   Time for densities:     0.792
   Using LibInt in JK Direct
   Time for K (Direct):    77.077
   Time for XC-Integration:     1.129
   Time for Sigma-Completion:     0.523
   Size of expansion space: 104
   Lowest Energy          :     0.123592627457
   Maximum Energy change  :     0.000014843562 (vector 5)
   Maximum residual norm  :     0.000000818251

      *** CONVERGENCE OF RESIDUAL NORM REACHED ***

Storing the converged CI vectors               ... orca_tda_gsopt.cis3

                 *** DAVIDSON DONE ***

------------------------------------
TD-DFT/TDA EXCITED STATES (TRIPLETS)
------------------------------------

the weight of the individual excitations are printed if larger than 0.01

STATE  1:  E=   0.123593 au      3.363 eV    27125.4 cm**-1
   146a -> 169a  :     0.027897 (c=  0.16702508)
   149a -> 158a  :     0.014937 (c= -0.12221504)
   149a -> 165a  :     0.013345 (c=  0.11552068)
   150a -> 158a  :     0.043502 (c=  0.20857095)
   152a -> 159a  :     0.016298 (c=  0.12766254)
   152a -> 160a  :     0.019176 (c= -0.13847577)
   152a -> 161a  :     0.016421 (c=  0.12814532)
   153a -> 159a  :     0.015923 (c=  0.12618786)
   153a -> 160a  :     0.013225 (c= -0.11499922)
   156a -> 158a  :     0.039984 (c=  0.19996099)
   156a -> 159a  :     0.328335 (c=  0.57300547)
   156a -> 160a  :     0.272357 (c= -0.52187859)
   156a -> 161a  :     0.014394 (c= -0.11997419)

STATE  2:  E=   0.127058 au      3.457 eV    27886.0 cm**-1
   147a -> 158a  :     0.073885 (c= -0.27181707)
   147a -> 159a  :     0.018640 (c= -0.13652663)
   147a -> 160a  :     0.012593 (c= -0.11221893)
   148a -> 158a  :     0.065642 (c= -0.25620647)
   148a -> 159a  :     0.056415 (c=  0.23751936)
   148a -> 160a  :     0.031736 (c=  0.17814716)
   149a -> 158a  :     0.186598 (c= -0.43196988)
   150a -> 158a  :     0.208625 (c=  0.45675491)
   151a -> 158a  :     0.051503 (c=  0.22694210)
   152a -> 158a  :     0.032129 (c= -0.17924528)
   152a -> 159a  :     0.012045 (c= -0.10975176)
   156a -> 158a  :     0.040348 (c=  0.20086903)
   156a -> 159a  :     0.025884 (c= -0.16088414)
   156a -> 160a  :     0.077594 (c=  0.27855629)

STATE  3:  E=   0.138066 au      3.757 eV    30302.0 cm**-1
   152a -> 168a  :     0.014624 (c=  0.12092898)
   153a -> 164a  :     0.014783 (c= -0.12158548)
   153a -> 168a  :     0.034467 (c= -0.18565297)
   154a -> 167a  :     0.057196 (c= -0.23915741)
   155a -> 164a  :     0.053183 (c=  0.23061522)
   155a -> 165a  :     0.010148 (c=  0.10073800)
   155a -> 168a  :     0.029377 (c= -0.17139689)
   157a -> 162a  :     0.023956 (c=  0.15477833)
   157a -> 164a  :     0.017451 (c= -0.13210041)
   157a -> 165a  :     0.047068 (c=  0.21695111)
   157a -> 166a  :     0.569194 (c= -0.75444967)

STATE  4:  E=   0.141807 au      3.859 eV    31122.9 cm**-1
   150a -> 162a  :     0.012742 (c=  0.11288006)
   151a -> 161a  :     0.013935 (c=  0.11804818)
   151a -> 163a  :     0.034053 (c=  0.18453576)
   152a -> 162a  :     0.013179 (c=  0.11479983)
   153a -> 162a  :     0.017529 (c=  0.13239775)
   156a -> 162a  :     0.018640 (c= -0.13652955)
   157a -> 158a  :     0.737087 (c=  0.85853751)
   157a -> 163a  :     0.026036 (c=  0.16135545)

STATE  5:  E=   0.142613 au      3.881 eV    31300.0 cm**-1
   147a -> 162a  :     0.025853 (c=  0.16078980)
   148a -> 162a  :     0.020844 (c=  0.14437569)
   149a -> 162a  :     0.028780 (c= -0.16964725)
   150a -> 162a  :     0.042777 (c=  0.20682709)
   150a -> 163a  :     0.024202 (c= -0.15557032)
   151a -> 161a  :     0.052245 (c=  0.22857108)
   151a -> 163a  :     0.107809 (c=  0.32834308)
   151a -> 165a  :     0.024492 (c= -0.15649902)
   152a -> 161a  :     0.015692 (c=  0.12526801)
   152a -> 162a  :     0.051128 (c=  0.22611414)
   153a -> 161a  :     0.033760 (c=  0.18373979)
   153a -> 162a  :     0.066636 (c=  0.25813910)
   156a -> 161a  :     0.025525 (c= -0.15976607)
   156a -> 162a  :     0.066935 (c= -0.25871892)
   157a -> 158a  :     0.237548 (c= -0.48738945)
   157a -> 161a  :     0.020134 (c=  0.14189347)
   157a -> 163a  :     0.018114 (c=  0.13458953)

STATE  6:  E=   0.148018 au      4.028 eV    32486.3 cm**-1
   152a -> 166a  :     0.036882 (c= -0.19204792)
   153a -> 166a  :     0.086997 (c=  0.29495235)
   153a -> 167a  :     0.023492 (c=  0.15327213)
   154a -> 164a  :     0.118917 (c=  0.34484371)
   154a -> 165a  :     0.026563 (c=  0.16298054)
   155a -> 162a  :     0.012362 (c= -0.11118272)
   155a -> 166a  :     0.053712 (c=  0.23175824)
   155a -> 167a  :     0.084765 (c= -0.29114346)
   157a -> 162a  :     0.017258 (c= -0.13136906)
   157a -> 163a  :     0.032922 (c=  0.18144325)
   157a -> 164a  :     0.011730 (c=  0.10830650)
   157a -> 168a  :     0.265973 (c=  0.51572532)
   157a -> 169a  :     0.060743 (c= -0.24646182)

STATE  7:  E=   0.149152 au      4.059 eV    32735.0 cm**-1
   147a -> 158a  :     0.041004 (c= -0.20249397)
   148a -> 158a  :     0.354222 (c=  0.59516587)
   148a -> 159a  :     0.039137 (c= -0.19783172)
   148a -> 160a  :     0.028283 (c= -0.16817610)
   149a -> 159a  :     0.012442 (c= -0.11154512)
   152a -> 158a  :     0.017753 (c= -0.13323940)
   156a -> 158a  :     0.291701 (c=  0.54009390)
   156a -> 159a  :     0.011249 (c= -0.10606172)
   156a -> 163a  :     0.021789 (c=  0.14761007)

STATE  8:  E=   0.151227 au      4.115 eV    33190.6 cm**-1
   153a -> 167a  :     0.026806 (c=  0.16372455)
   155a -> 167a  :     0.034012 (c=  0.18442343)
   157a -> 159a  :     0.059612 (c= -0.24415515)
   157a -> 161a  :     0.028174 (c=  0.16785197)
   157a -> 162a  :     0.125699 (c=  0.35454077)
   157a -> 164a  :     0.549866 (c=  0.74152938)
   157a -> 165a  :     0.073585 (c=  0.27126468)
   157a -> 167a  :     0.020319 (c=  0.14254398)


------------------------------------------
NATURAL TRANSITION ORBITALS FOR STATE    1
------------------------------------------

Making the (pseudo)densities                       ... done
Solving eigenvalue problem for the occupied space  ... done
Solving eigenvalue problem for the virtual space   ... done
Natural Transition Orbitals were saved in orca_tda_gsopt.s1.nto
Threshold for printing occupation numbers 0.001000

 E=   0.142066 au      3.866 eV    31179.8 cm**-1
   157a -> 158a  : n=  0.99980760


------------------------------------------
NATURAL TRANSITION ORBITALS FOR STATE    2
------------------------------------------

Making the (pseudo)densities                       ... done
Solving eigenvalue problem for the occupied space  ... done
Solving eigenvalue problem for the virtual space   ... done
Natural Transition Orbitals were saved in orca_tda_gsopt.s2.nto
Threshold for printing occupation numbers 0.001000

 E=   0.154655 au      4.208 eV    33942.8 cm**-1
   157a -> 158a  : n=  0.99677360
   156a -> 159a  : n=  0.00115208


------------------------------------------
NATURAL TRANSITION ORBITALS FOR STATE    3
------------------------------------------

Making the (pseudo)densities                       ... done
Solving eigenvalue problem for the occupied space  ... done
Solving eigenvalue problem for the virtual space   ... done
Natural Transition Orbitals were saved in orca_tda_gsopt.s3.nto
Threshold for printing occupation numbers 0.001000

 E=   0.161653 au      4.399 eV    35478.6 cm**-1
   157a -> 158a  : n=  0.97215182
   156a -> 159a  : n=  0.02373685
   155a -> 160a  : n=  0.00179902


------------------------------------------
NATURAL TRANSITION ORBITALS FOR STATE    4
------------------------------------------

Making the (pseudo)densities                       ... done
Solving eigenvalue problem for the occupied space  ... done
Solving eigenvalue problem for the virtual space   ... done
Natural Transition Orbitals were saved in orca_tda_gsopt.s4.nto
Threshold for printing occupation numbers 0.001000

 E=   0.162507 au      4.422 eV    35666.1 cm**-1
   157a -> 158a  : n=  0.95465232
   156a -> 159a  : n=  0.02425771
   155a -> 160a  : n=  0.01181368
   154a -> 161a  : n=  0.00662100


------------------------------------------
NATURAL TRANSITION ORBITALS FOR STATE    5
------------------------------------------

Making the (pseudo)densities                       ... done
Solving eigenvalue problem for the occupied space  ... done
Solving eigenvalue problem for the virtual space   ... done
Natural Transition Orbitals were saved in orca_tda_gsopt.s5.nto
Threshold for printing occupation numbers 0.001000

 E=   0.163582 au      4.451 eV    35902.1 cm**-1
   157a -> 158a  : n=  0.98960683
   156a -> 159a  : n=  0.00329958
   155a -> 160a  : n=  0.00248863
   154a -> 161a  : n=  0.00191767
   153a -> 162a  : n=  0.00105470


------------------------------------------
NATURAL TRANSITION ORBITALS FOR STATE    6
------------------------------------------

Making the (pseudo)densities                       ... done
Solving eigenvalue problem for the occupied space  ... done
Solving eigenvalue problem for the virtual space   ... done
Natural Transition Orbitals were saved in orca_tda_gsopt.s6.nto
Threshold for printing occupation numbers 0.001000

 E=   0.172600 au      4.697 eV    37881.3 cm**-1
   157a -> 158a  : n=  0.98926967
   156a -> 159a  : n=  0.00502863
   155a -> 160a  : n=  0.00188547
   154a -> 161a  : n=  0.00120074


------------------------------------------
NATURAL TRANSITION ORBITALS FOR STATE    7
------------------------------------------

Making the (pseudo)densities                       ... done
Solving eigenvalue problem for the occupied space  ... done
Solving eigenvalue problem for the virtual space   ... done
Natural Transition Orbitals were saved in orca_tda_gsopt.s7.nto
Threshold for printing occupation numbers 0.001000

 E=   0.175166 au      4.767 eV    38444.5 cm**-1
   157a -> 158a  : n=  0.85310095
   156a -> 159a  : n=  0.08400152
   155a -> 160a  : n=  0.02916492
   154a -> 161a  : n=  0.01419871
   153a -> 162a  : n=  0.00693984
   152a -> 163a  : n=  0.00423315
   151a -> 164a  : n=  0.00206753
   150a -> 165a  : n=  0.00107526


------------------------------------------
NATURAL TRANSITION ORBITALS FOR STATE    8
------------------------------------------

Making the (pseudo)densities                       ... done
Solving eigenvalue problem for the occupied space  ... done
Solving eigenvalue problem for the virtual space   ... done
Natural Transition Orbitals were saved in orca_tda_gsopt.s8.nto
Threshold for printing occupation numbers 0.001000

 E=   0.180093 au      4.901 eV    39525.8 cm**-1
   157a -> 158a  : n=  0.90005439
   156a -> 159a  : n=  0.06214503
   155a -> 160a  : n=  0.02454252
   154a -> 161a  : n=  0.00787575
   153a -> 162a  : n=  0.00133608


-----------------------------
TD-DFT/TDA-EXCITATION SPECTRA
-----------------------------

Center of mass = (  2.0630,-11.2678,  2.7765)
Calculating the Dipole integrals                  ... done
Transforming integrals                            ... done
Calculating the Linear Momentum integrals         ... done
Transforming integrals                            ... done
Calculating angular momentum integrals            ... done
Transforming integrals                            ... done

-----------------------------------------------------------------------------
         ABSORPTION SPECTRUM VIA TRANSITION ELECTRIC DIPOLE MOMENTS
-----------------------------------------------------------------------------
State   Energy  Wavelength   fosc         T2         TX        TY        TZ  
        (cm-1)    (nm)                  (au**2)     (au)      (au)      (au) 
-----------------------------------------------------------------------------
   1   31179.8    320.7   0.001251037   0.01321  -0.05058   0.09874  -0.03001
   2   33942.8    294.6   0.001747131   0.01695   0.00555   0.12900  -0.01652
   3   35478.6    281.9   0.004358422   0.04044  -0.08145   0.13571  -0.12406
   4   35666.1    280.4   0.068458016   0.63189  -0.59081   0.41806  -0.32874
   5   35902.1    278.5   0.003641023   0.03339  -0.02727   0.17150  -0.05685
   6   37881.3    264.0   0.002519643   0.02190   0.05874   0.08259  -0.10782
   7   38444.5    260.1   0.107883434   0.92384  -0.67417   0.12029   0.67444
   8   39525.8    253.0   0.032635346   0.27182  -0.37560   0.35954  -0.03844
   9   27125.4    368.7   spin forbidden (mult=3)
  10   27886.0    358.6   spin forbidden (mult=3)
  11   30302.0    330.0   spin forbidden (mult=3)
  12   31122.9    321.3   spin forbidden (mult=3)
  13   31300.0    319.5   spin forbidden (mult=3)
  14   32486.3    307.8   spin forbidden (mult=3)
  15   32735.0    305.5   spin forbidden (mult=3)
  16   33190.6    301.3   spin forbidden (mult=3)

-----------------------------------------------------------------------------
         ABSORPTION SPECTRUM VIA TRANSITION VELOCITY DIPOLE MOMENTS
-----------------------------------------------------------------------------
State   Energy  Wavelength   fosc         P2         PX        PY        PZ  
        (cm-1)    (nm)                  (au**2)     (au)      (au)      (au) 
-----------------------------------------------------------------------------
   1   31179.8    320.7   0.000474151   0.00010   0.00300  -0.00905   0.00319
   2   33942.8    294.6   0.000466117   0.00011   0.00061  -0.00634   0.00822
   3   35478.6    281.9   0.004532721   0.00110   0.01735  -0.02774   0.00534
   4   35666.1    280.4   0.014966053   0.00365   0.01419  -0.05097   0.02913
   5   35902.1    278.5   0.000772239   0.00019  -0.00326  -0.00831   0.01048
   6   37881.3    264.0   0.000488989   0.00013   0.00133  -0.00862   0.00711
   7   38444.5    260.1   0.005063994   0.00133   0.01323  -0.03299   0.00821
   8   39525.8    253.0   0.001173435   0.00032  -0.00512  -0.00098  -0.01702
   9   27125.4    368.7   spin forbidden (mult=3)
  10   27886.0    358.6   spin forbidden (mult=3)
  11   30302.0    330.0   spin forbidden (mult=3)
  12   31122.9    321.3   spin forbidden (mult=3)
  13   31300.0    319.5   spin forbidden (mult=3)
  14   32486.3    307.8   spin forbidden (mult=3)
  15   32735.0    305.5   spin forbidden (mult=3)
  16   33190.6    301.3   spin forbidden (mult=3)

-------------------------------------------------------------------
                             CD SPECTRUM
-------------------------------------------------------------------
State   Energy Wavelength       R         MX        MY        MZ   
        (cm-1)   (nm)       (1e40*cgs)   (au)      (au)      (au)  
-------------------------------------------------------------------
   1   31179.8    320.7      0.25555   0.01307  -0.00211  -0.04704
   2   33942.8    294.6     -3.58685  -0.00264  -0.07876  -0.15539
   3   35478.6    281.9     16.46304  -0.00385   0.09430  -0.17579
   4   35666.1    280.4    -33.13403   0.01921  -0.14568  -0.00599
   5   35902.1    278.5     -5.58196  -0.00651  -0.15758  -0.26397
   6   37881.3    264.0      7.51257  -0.01015  -0.05588  -0.19613
   7   38444.5    260.1    -83.00995   0.30888  -0.24008   0.09051
   8   39525.8    253.0     12.37733  -0.10754  -0.02765   0.10920
   9   27125.4    368.7 spin forbidden
  10   27886.0    358.6 spin forbidden
  11   30302.0    330.0 spin forbidden
  12   31122.9    321.3 spin forbidden
  13   31300.0    319.5 spin forbidden
  14   32486.3    307.8 spin forbidden
  15   32735.0    305.5 spin forbidden
  16   33190.6    301.3 spin forbidden

Total run time:     2372.043 sec

           *** ORCA-CIS/TD-DFT FINISHED WITHOUT ERROR ***

-----------------------
CIS/TD-DFT TOTAL ENERGY
-----------------------

    E(SCF)  =  -1855.564059299 Eh
    DE(CIS) =      0.142065689 Eh (Root  1)
    ----------------------------- ---------
    E(tot)  =  -1855.421993611 Eh



-------------------------------------------------------------------------------
                          DFT DISPERSION CORRECTION                            
                                                                               
                              DFTD3 V3.1  Rev 1                                
                          USING Becke-Johnson damping                          
-------------------------------------------------------------------------------
The PBEh-3c composite method is recognized
Using three-body term ABC
Active option DFTDOPT                   ...         4   

molecular C6(AA) [au] = 80160.348343 


            DFT-D V3
 parameters
 s6 scaling factor         :     1.0000 
 a1 scaling factor         :     0.4860 
 s8 scaling factor         :     0.0000 
 a2 scaling factor         :     4.5000 
 Damping factor alpha9(ATM):    16.0000 
 ad hoc parameters k1-k3   :    16.0000     1.3333    -4.0000 

 Edisp/kcal,au: -49.302096982225  -0.078567884249 
 E6   /kcal   : -50.137404015 
 E8   /kcal   :  -0.000000000 
 E6(ABC)      :   0.835307033 
 % E8         :   0.000000000 
 % E6(ABC)    :  -1.694262687 

-------------------------   ----------------
Dispersion correction           -0.078567884
-------------------------   ----------------

------------------   -----------------
gCP correction             0.109167912
------------------   -----------------

-------------------------   --------------------
FINAL SINGLE POINT ENERGY     -1855.533459271926
-------------------------   --------------------


                            ***************************************
                            *     ORCA property calculations      *
                            ***************************************

                                    ---------------------
                                    Active property flags
                                    ---------------------
   (+) Dipole Moment


------------------------------------------------------------------------------
                       ORCA ELECTRIC PROPERTIES CALCULATION
------------------------------------------------------------------------------

Dipole Moment Calculation                       ... on
Quadrupole Moment Calculation                   ... off
Polarizability Calculation                      ... off
GBWName                                         ... orca_tda_gsopt.gbw
Electron density file                           ... orca_tda_gsopt.scfp.tmp
The origin for moment calculation is the CENTER OF MASS  = ( 2.063028, -11.267762  2.776475)

-------------
DIPOLE MOMENT
-------------
                                X             Y             Z
Electronic contribution:    -19.12711      38.68874      -6.90213
Nuclear contribution   :     19.67767     -41.56698       7.10046
                        -----------------------------------------
Total Dipole Moment    :      0.55057      -2.87824       0.19833
                        -----------------------------------------
Magnitude (a.u.)       :      2.93713
Magnitude (Debye)      :      7.46558


Timings for individual modules:

Sum of individual times         ...     2616.261 sec (=  43.604 min)
GTO integral calculation        ...        2.499 sec (=   0.042 min)   0.1 %
SCF iterations                  ...      241.034 sec (=   4.017 min)   9.2 %
CIS module                      ...     2372.727 sec (=  39.545 min)  90.7 %
                             ****ORCA TERMINATED NORMALLY****
TOTAL RUN TIME: 0 days 0 hours 43 minutes 37 seconds 853 msec
