mFile = /cm/shared/apps/q-chem/intel/QCHEM_5.1.0_Trunk/bin/mpi/machines
Process 0 of 1 is on ctcp005 - thread support 0
initial socket setup ...start
initial socket setup ...done 
now start server 0 ... 
Q-Chem Developer Version!
                  Welcome to Q-Chem
     A Quantum Leap Into The Future Of Chemistry


 Q-Chem 5.1, Q-Chem, Inc., Pleasanton, CA (2018)

 Yihan Shao,  Zhengting Gan,  E. Epifanovsky,  A. T. B. Gilbert,  M. Wormit,  
 J. Kussmann,  A. W. Lange,  A. Behn,  Jia Deng,  Xintian Feng,  D. Ghosh,  
 M. Goldey,  P. R. Horn,  L. D. Jacobson,  I. Kaliman,  T. Kus,  A. Landau,  
 Jie Liu,  E. I. Proynov,  R. M. Richard,  R. P. Steele,  E. J. Sundstrom,  
 H. L. Woodcock III,  P. M. Zimmerman,  D. Zuev,  B. Albrecht,  E. Alguire,  
 S. A. Baeppler,  D. Barton,  Z. Benda,  Y. A. Bernard,  E. J. Berquist,  
 K. B. Bravaya,  H. Burton,  D. Casanova,  Chun-Min Chang,  Yunqing Chen,  
 A. Chien,  K. D. Closser,  M. P. Coons,  S. Coriani,  S. Dasgupta,  
 A. L. Dempwolff,  M. Diedenhofen,  Hainam Do,  R. G. Edgar,  Po-Tung Fang,  
 S. Faraji,  S. Fatehi,  Qingguo Feng,  K. D. Fenk,  J. Fosso-Tande,  
 Qinghui Ge,  A. Ghysels,  G. Gidofalvi,  J. Gomes,  J. Gonthier,  A. Gunina,  
 D. Hait,  M. W. D. Hanson-Heine,  P. H. P. Harbach,  A. W. Hauser,  
 J. E. Herr,  E. G. Hohenstein,  Z. C. Holden,  Kerwin Hui,  B. C. Huynh,  
 T.-C. Jagau,  Hyunjun Ji,  B. Kaduk,  K. Khistyaev,  Jaehoon Kim,  
 P. Klunzinger,  K. Koh,  D. Kosenkov,  L. Koulias,  T. Kowalczyk,  
 C. M. Krauter,  A. Kunitsa,  Ka Un Lao,  A. Laurent,  K. V. Lawler,  
 Joonho Lee,  D. Lefrancois,  S. Lehtola,  D. S. Levine,  Yi-Pei Li,  
 You-Sheng Lin,  Fenglai Liu,  E. Livshits,  A. Luenser,  P. Manohar,  
 E. Mansoor,  S. F. Manzer,  Shan-Ping Mao,  Yuezhi Mao,  N. Mardirossian,  
 A. V. Marenich,  T. Markovich,  L. A. Martinez-Martinez,  S. A. Maurer,  
 N. J. Mayhall,  S. C. McKenzie,  J.-M. Mewes,  A. F. Morrison,  
 J. W. Mullinax,  K. Nanda,  T. S. Nguyen-Beck,  R. Olivares-Amaya,  
 J. A. Parkhill,  T. M. Perrine,  F. Plasser,  P. Pokhilko,  S. Prager,  
 A. Prociuk,  E. Ramos,  D. R. Rehn,  F. Rob,  M. Schneider,  N. Sergueev,  
 S. M. Sharada,  S. Sharma,  D. W. Small,  T. Stauch,  T. Stein,  
 Yu-Chuan Su,  A. J. W. Thom,  A. Tkatchenko,  T. Tsuchimochi,  N. M. Tubman,  
 L. Vogt,  M. L. Vidal,  O. Vydrov,  M. A. Watson,  J. Wenzel,  
 M. de Wergifosse,  T. A. Wesolowski,  A. White,  J. Witte,  A. Yamada,  
 Jun Yang,  K. Yao,  S. Yeganeh,  S. R. Yost,  Zhi-Qiang You,  A. Zech,  
 Igor Ying Zhang,  Xing Zhang,  Yan Zhao,  Ying Zhu,  B. R. Brooks,  
 G. K. L. Chan,  C. J. Cramer,  M. S. Gordon,  W. J. Hehre,  A. Klamt,  
 M. W. Schmidt,  C. D. Sherrill,  D. G. Truhlar,  A. Aspuru-Guzik,  R. Baer,  
 A. T. Bell,  N. A. Besley,  Jeng-Da Chai,  A. E. DePrince, III,  
 R. A. DiStasio Jr.,  A. Dreuw,  B. D. Dunietz,  T. R. Furlani,  
 Chao-Ping Hsu,  Yousung Jung,  Jing Kong,  D. S. Lambrecht,  WanZhen Liang,  
 C. Ochsenfeld,  V. A. Rassolov,  L. V. Slipchenko,  J. E. Subotnik,  
 T. Van Voorhis,  J. M. Herbert,  A. I. Krylov,  P. M. W. Gill,  M. Head-Gordon

 Contributors to earlier versions of Q-Chem not listed above: 
 R. D. Adamson,  B. Austin,  J. Baker,  G. J. O. Beran,  K. Brandhorst,  
 S. T. Brown,  E. F. C. Byrd,  A. K. Chakraborty,  C.-L. Cheng,  
 Siu Hung Chien,  D. M. Chipman,  D. L. Crittenden,  H. Dachsel,  
 R. J. Doerksen,  A. D. Dutoi,  L. Fusti-Molnar,  W. A. Goddard III,  
 A. Golubeva-Zadorozhnaya,  S. R. Gwaltney,  G. Hawkins,  A. Heyden,  
 S. Hirata,  G. Kedziora,  F. J. Keil,  C. Kelley,  Jihan Kim,  R. A. King,  
 R. Z. Khaliullin,  P. P. Korambath,  W. Kurlancheek,  A. M. Lee,  M. S. Lee,  
 S. V. Levchenko,  Ching Yeh Lin,  D. Liotard,  R. C. Lochan,  I. Lotan,  
 P. E. Maslen,  N. Nair,  D. P. O'Neill,  D. Neuhauser,  E. Neuscamman,  
 C. M. Oana,  R. Olson,  B. Peters,  R. Peverati,  P. A. Pieniazek,  
 Y. M. Rhee,  J. Ritchie,  M. A. Rohrdanz,  E. Rosta,  N. J. Russ,  
 H. F. Schaefer III,  N. E. Schultz,  N. Shenvi,  A. C. Simmonett,  A. Sodt,  
 D. Stuck,  K. S. Thanthiriwatte,  V. Vanovschi,  Tao Wang,  A. Warshel,  
 C. F. Williams,  Q. Wu,  X. Xu,  W. Zhang

 Please cite Q-Chem as follows:
 Y. Shao et al., Mol. Phys. 113, 184-215 (2015)
 DOI: 10.1080/00268976.2014.952696

 Q-Chem 5.1.1 for Intel X86 EM64T Linux

 Parts of Q-Chem use Armadillo 8.300.2 (Tropical Shenanigans).
 http://arma.sourceforge.net/

 Q-Chem begins on Mon Dec  3 11:12:22 2018  

Host: ctcp005
0

     Scratch files written to /scratch/mewes1/141126/qchem6823//
 Parallel job on  1  processors
The previous job contains 0 fragments, simply inherited here
Symmetry turned off for PCM/SM12/SMD calculation
Input Ideriv = 2
Curr. Ideriv = -1
Max.  Ideriv = 2
Input Ideriv = 2
Curr. Ideriv = 2
Max.  Ideriv = 2

Checking the input file for inconsistencies... 	...done.

--------------------------------------------------------------
User input:
--------------------------------------------------------------
$rem
threads 4
jobtype opt
method PBEh-3c
basis def2-mSVP
mem_static      1024
mem_total       4000
sym_ignore      true
unrestricted true
scf_algorithm	diis
scf_max_cycles	250
solvent_method  pcm
geom_opt_tol_energy 25
geom_opt_tol_gradient 75
$end

$pcm
theory  iefpcm
$end

$solvent
dielectric      1.0001
$end

$molecule
read ACR_kat.mol
$end
--------------------------------------------------------------
 Adding empirical dispersion correction 
 ----------------------------------------------------------------
 Doing -D3(BJ) with
 s6 =   1.00000
 s8 =   0.00000
 a1 =   0.48600
 a2 =   4.50000
 -D3 energy including 3body term =     -0.0232197342 hartrees
 ----------------------------------------------------------------
 Adding gCP correction 
 ----------------------------------------------------------------
 gCP energy =      0.0419069612 hartrees
 ----------------------------------------------------------------
             Standard Nuclear Orientation (Angstroms)
    I     Atom           X                Y                Z
 ----------------------------------------------------------------
    1      H      -7.7388000000    -7.6905000000    -8.0313000000
    2      N      -8.3992000000    -8.0771000000    -8.7262000000
    3      C      -9.7943000000    -7.9003000000    -8.5259000000
    4      C     -10.7285000000    -8.4096000000    -9.4584000000
    5      C     -10.2830000000    -9.1665000000   -10.7167000000
    6      C     -12.1067000000    -8.2087000000    -9.2160000000
    7      H     -12.8501000000    -8.5826000000    -9.9056000000
    8      C     -12.5442000000    -7.5258000000    -8.0848000000
    9      H     -13.6049000000    -7.3851000000    -7.9197000000
   10      C     -11.6217000000    -7.0260000000    -7.1711000000
   11      H     -11.9708000000    -6.4954000000    -6.2944000000
   12      C     -10.2536000000    -7.2096000000    -7.3868000000
   13      H      -9.5509000000    -6.8127000000    -6.6640000000
   14      C      -7.8868000000    -8.7746000000    -9.8526000000
   15      C      -8.7594000000    -9.3116000000   -10.8284000000
   16      C      -8.2025000000    -9.9967000000   -11.9324000000
   17      H      -8.8368000000   -10.4196000000   -12.6983000000
   18      C      -6.8249000000   -10.1467000000   -12.0631000000
   19      H      -6.4214000000   -10.6769000000   -12.9165000000
   20      C      -5.9707000000    -9.6172000000   -11.1009000000
   21      H      -4.9006000000    -9.7383000000   -11.2108000000
   22      C      -6.4945000000    -8.9334000000   -10.0007000000
   23      H      -5.8131000000    -8.5277000000    -9.2625000000
   24      C     -10.7905000000    -8.3904000000   -11.9568000000
   25      C     -10.9103000000   -10.5834000000   -10.6857000000
   26      H     -10.3405000000    -7.3742000000   -11.9845000000
   27      H     -11.8940000000    -8.2803000000   -11.9523000000
   28      H     -10.5330000000    -8.9092000000   -12.9025000000
   29      H     -10.5499000000   -11.1470000000    -9.7982000000
   30      H     -10.6581000000   -11.1678000000   -11.5937000000
   31      H     -12.0178000000   -10.5452000000   -10.6461000000
 ----------------------------------------------------------------
 Nuclear Repulsion Energy =  1045.5284510487 hartrees
 There are       56 alpha and       55 beta electrons
 Requested basis set is def2-mSVP
 There are 142 shells and 270 basis functions

 Total QAlloc Memory Limit   4000 MB
 Mega-Array Size      1001 MB
 MEM_STATIC part      1024 MB
 Discretize the solute cavity surface with Lebedev spheres
	Using 302 Lebedev grid points for each H atom
	Using 302 Lebedev grid points for other atoms
	Atomic van der Waals radii will be scaled by 1.20
 Remove points where switching function is < 1.0e-08
 Keep 3463 surface tesserae and discard 5899 interior tesserae
 Molecular Surface Area = 254.433 Angst**2
 A cutoff of  1.0D-11 yielded   7804 shell pairs
 There are     29448 function pairs (     32822 Cartesian)
 
 -------------------------------------------------------
 OpenMP Integral Computing Module                       
 Release: version 1.0, May 2013, Q-Chem Inc. Pittsburgh 
 -------------------------------------------------------
 Integral Job Info:
 Integral job number is                      11
 Integral operator is                         1
 short-range coefficients                     0
 long-range coefficients              100000000
 Omega coefficients                           0
 if combine SR and LR in K                    0
 Integral screening is                        0
 Integral computing path is                   2
 max size of driver memory is            800000
 size of driver memory is                593474
 size of scratch memory is              1809772
 max col of scratch BK array               1296
 max len of scratch array in speh3          155
 max len of scratch index in speh4           18
 max int batch size is                      520
 min int batch size is                       52
 fixed nKL is                                52
 max L of basis functions is                  2
 order of int derivative is                   0
 number of shells is                        142
 number of basis is                         286
 number of cartesian basis is               286
 number of contracted shell pairs          7804
 number of primitive shell pairs          18093
 maxK2 (contraction) of shell pair           25
 max number of K2 of shell pair               1
 max number of CS2 of shell pair           1899
 max number of PS2 of shell pair           3375
 mem total for path MDJ                  587100
 -------------------------------------------------------
 Smallest overlap matrix eigenvalue = 3.72E-04

 Scale SEOQF with 1.000000e-02/1.000000e-02/1.000000e-02

 Standard Electronic Orientation quadrupole field applied
 Nucleus-field energy     =    -0.0000000210 hartrees
 Guess from superposition of atomic densities
 Warning:  Energy on first SCF cycle will be non-variational
 SAD guess density has 112.000000 electrons

 -----------------------------------------------------------------------
  General SCF calculation program by
  Eric Jon Sundstrom, Paul Horn, Yuezhi Mao, Dmitri Zuev, Alec White,
  David Stuck, Shaama M.S., Shane Yost, Joonho Lee, David Small,
  Daniel Levine, Susi Lehtola, Hugh Burton, Evgeny Epifanovsky
 -----------------------------------------------------------------------
 Exchange:     0.4200 Hartree-Fock + 0.5800 PBEh-3c
 Correlation:  1.0000 PBEh-3c
 Using SG-1 standard quadrature grid
 Dispersion:   Grimme D3
 using 4 threads for integral computing
 -------------------------------------------------------
 OpenMP Integral computing Module                
 Release: version 2.0, May 2017, Q-Chem Inc. Pleasanton 
 -------------------------------------------------------
 -------------------------------------------------------
 OpenMP BLAS3 based DFT computing Module                
 Release: version 1.0, May 2013, Q-Chem Inc. Pittsburgh 
 -------------------------------------------------------
 A unrestricted SCF calculation will be
 performed using DIIS
 SCF converges when DIIS error is below 1.0e-08
 ---------------------------------------
  Cycle       Energy         DIIS error
 ---------------------------------------
 Using non-symmetric K matrix
    1    -638.5899465534      2.49e-02  
    2    -633.5968015893      1.85e-03  
    3    -633.5300558200      2.34e-03  
    4    -633.7337483405      4.97e-04  
    5    -633.7427037128      1.79e-04  
    6    -633.7442024367      7.06e-05  
    7    -633.7444989477      3.24e-05  
    8    -633.7446948025      1.98e-05  
    9    -633.7448048255      1.29e-05  
   10    -633.7448507465      6.47e-06  
   11    -633.7448658381      4.38e-06  
   12    -633.7448703420      1.70e-06  
   13    -633.7448711425      9.19e-07  
   14    -633.7448712266      3.08e-07  
   15    -633.7448712417      8.93e-08  
   16    -633.7448712434      3.56e-08  
   17    -633.7448712436      1.64e-08  
   18    -633.7448712436      9.06e-09  Convergence criterion met
 ---------------------------------------
 SCF time:   CPU 681.10s  wall 180.00s 
<S^2> =          0.808858661

************** Final PCM Free Energy Summary **************
 G_electrostatic  =      -0.00000733 hartree =      -0.00459736 kcal/mol
 G_cavitation     =       0.00000000 hartree =       0.00000000 kcal/mol
 G_dispersion     =       0.00000000 hartree =       0.00000000 kcal/mol
 G_repulsion      =       0.00000000 hartree =       0.00000000 kcal/mol
 --------------------------------------------------
 Non-electrostatic Free Energy =       0.00000000 hartree =       0.00000000 kcal/mol
 Total                         =      -0.00000733 hartree =      -0.00459736 kcal/mol
 --------------------------------------------------
 SCF Energy (H0 + V/2)                       =    -633.74487124 
 Solute Internal Energy (H0)                 =    -633.74486392 
 Total Free Energy (H0 + V/2 + non-elec)     =    -633.74487124 hartree
                                             = -397680.90890304 kcal/mol
***********************************************************

 SCF   energy in the final basis set =     -633.7448712436
 Total energy in the final basis set =     -633.7448712436
 
 --------------------------------------------------------------
 
                    Orbital Energies (a.u.)
 --------------------------------------------------------------
 
 Alpha MOs
 -- Occupied --
-14.910 -10.674 -10.674 -10.632 -10.632 -10.626 -10.617 -10.617
-10.605 -10.605 -10.601 -10.601 -10.600 -10.600 -10.568 -10.568
 -1.257  -1.119  -1.113  -1.060  -1.014  -0.993  -0.976  -0.961
 -0.899  -0.881  -0.868  -0.832  -0.830  -0.771  -0.770  -0.769
 -0.697  -0.689  -0.680  -0.678  -0.674  -0.650  -0.646  -0.634
 -0.620  -0.612  -0.595  -0.588  -0.577  -0.571  -0.562  -0.560
 -0.548  -0.526  -0.526  -0.519  -0.462  -0.445  -0.439  -0.415
 -- Virtual --
 -0.151  -0.147  -0.135  -0.112  -0.047  -0.008   0.008   0.012
  0.030   0.034   0.035   0.058   0.060   0.074   0.079   0.084
  0.086   0.092   0.095   0.103   0.115   0.123   0.129   0.133
  0.149   0.160   0.167   0.184   0.190   0.191   0.218   0.222
  0.229   0.269   0.274   0.296   0.339   0.356   0.365   0.366
  0.373   0.392   0.403   0.403   0.423   0.427   0.435   0.442
  0.447   0.451   0.453   0.467   0.471   0.473   0.479   0.480
  0.486   0.487   0.501   0.514   0.520   0.521   0.544   0.569
  0.589   0.602   0.607   0.648   0.648   0.650   0.654   0.673
  0.675   0.700   0.740   0.757   0.771   0.776   0.800   0.813
  0.825   0.832   0.840   0.850   0.855   0.878   0.883   0.884
  0.906   0.907   0.913   0.914   0.919   0.928   0.945   0.964
  0.966   0.973   0.981   0.997   0.998   1.019   1.043   1.092
  1.102   1.107   1.139   1.146   1.149   1.166   1.186   1.207
  1.245   1.253   1.259   1.305   1.319   1.334   1.356   1.380
  1.399   1.399   1.401   1.406   1.414   1.449   1.481   1.498
  1.558   1.584   1.586   1.633   1.663   1.676   1.686   1.713
  1.736   1.740   1.743   1.766   1.772   1.813   1.814   1.824
  1.858   1.873   1.916   1.940   1.949   1.963   1.989   2.011
  2.015   2.023   2.024   2.051   2.078   2.093   2.097   2.100
  2.133   2.166   2.172   2.183   2.193   2.201   2.213   2.229
  2.230   2.233   2.252   2.269   2.315   2.406   2.418   2.444
  2.482   2.516   2.517   2.534   2.540   2.581   2.585   2.594
  2.600   2.625   2.625   2.672   2.688   2.717   2.776   2.787
  2.797   2.864   2.943   3.181   3.298   3.345  13.062  13.162
 13.471  13.520  13.556  13.582  13.717  13.728  13.960  13.979
 14.014  14.042  14.096  14.371  14.379  19.212
 
 Beta MOs
 -- Occupied --
-14.898 -10.675 -10.675 -10.629 -10.629 -10.626 -10.614 -10.614
-10.604 -10.603 -10.602 -10.602 -10.601 -10.601 -10.567 -10.567
 -1.237  -1.115  -1.106  -1.057  -1.010  -0.990  -0.970  -0.955
 -0.897  -0.879  -0.863  -0.830  -0.827  -0.768  -0.768  -0.766
 -0.693  -0.687  -0.679  -0.677  -0.649  -0.645  -0.642  -0.634
 -0.619  -0.595  -0.587  -0.586  -0.575  -0.569  -0.562  -0.555
 -0.529  -0.525  -0.517  -0.515  -0.442  -0.434  -0.433
 -- Virtual --
 -0.289  -0.139  -0.138  -0.127  -0.088  -0.042  -0.006   0.009
  0.013   0.036   0.036   0.045   0.060   0.061   0.075   0.081
  0.085   0.089   0.094   0.097   0.104   0.115   0.126   0.131
  0.135   0.150   0.162   0.169   0.185   0.191   0.192   0.219
  0.223   0.230   0.271   0.276   0.301   0.341   0.363   0.366
  0.367   0.375   0.393   0.405   0.408   0.425   0.429   0.442
  0.444   0.449   0.454   0.465   0.468   0.472   0.476   0.479
  0.483   0.489   0.490   0.502   0.513   0.522   0.529   0.548
  0.575   0.591   0.605   0.615   0.648   0.649   0.654   0.657
  0.676   0.679   0.707   0.743   0.760   0.771   0.780   0.811
  0.823   0.827   0.833   0.844   0.850   0.855   0.879   0.884
  0.885   0.905   0.907   0.914   0.915   0.923   0.930   0.946
  0.966   0.967   0.973   0.982   0.998   0.999   1.020   1.045
  1.095   1.107   1.107   1.145   1.151   1.154   1.168   1.189
  1.209   1.251   1.255   1.273   1.308   1.321   1.337   1.360
  1.385   1.401   1.402   1.404   1.408   1.418   1.452   1.486
  1.501   1.561   1.588   1.602   1.635   1.666   1.678   1.688
  1.716   1.740   1.747   1.751   1.768   1.783   1.815   1.816
  1.829   1.860   1.876   1.917   1.943   1.950   1.966   1.991
  2.016   2.018   2.026   2.026   2.054   2.082   2.096   2.100
  2.105   2.138   2.169   2.173   2.187   2.198   2.203   2.217
  2.231   2.234   2.246   2.253   2.276   2.324   2.407   2.420
  2.446   2.485   2.519   2.520   2.537   2.543   2.583   2.590
  2.596   2.600   2.625   2.627   2.674   2.691   2.719   2.778
  2.789   2.800   2.868   2.944   3.182   3.299   3.346  13.063
 13.163  13.472  13.521  13.558  13.583  13.717  13.727  13.961
 13.979  14.015  14.043  14.097  14.372  14.379  19.228
 --------------------------------------------------------------
 
          Ground-State Mulliken Net Atomic Charges

     Atom                 Charge (a.u.)    Spin (a.u.)
  --------------------------------------------------------
      1 H                     0.417733      -0.021078
      2 N                    -0.728932       0.454361
      3 C                     0.337791      -0.065911
      4 C                     0.174554       0.222682
      5 C                    -0.243012      -0.037804
      6 C                    -0.275009      -0.149568
      7 H                     0.260402       0.006919
      8 C                    -0.183230       0.239554
      9 H                     0.279737      -0.012616
     10 C                    -0.219535      -0.120285
     11 H                     0.279009       0.005327
     12 C                    -0.279983       0.164160
     13 H                     0.265175      -0.009368
     14 C                     0.337908      -0.065931
     15 C                     0.174369       0.222626
     16 C                    -0.274945      -0.149531
     17 H                     0.260467       0.006918
     18 C                    -0.183304       0.239539
     19 H                     0.279736      -0.012617
     20 C                    -0.219475      -0.120322
     21 H                     0.279016       0.005327
     22 C                    -0.279940       0.164205
     23 H                     0.265178      -0.009370
     24 C                    -0.595652       0.021814
     25 C                    -0.597378       0.021367
     26 H                     0.245549      -0.000806
     27 H                     0.244466       0.000328
     28 H                     0.244388       0.000334
     29 H                     0.246612      -0.000757
     30 H                     0.244142       0.000253
     31 H                     0.244163       0.000252
  --------------------------------------------------------
  Sum of atomic charges =     1.000000
  Sum of spin   charges =     1.000000

 -----------------------------------------------------------------
                    Cartesian Multipole Moments
 -----------------------------------------------------------------
    Charge (ESU x 10^10)
                 4.8032
    Dipole Moment (Debye)
         X     -44.1152      Y     -41.0054      Z     -45.8811
       Tot      75.7144
    Quadrupole Moments (Debye-Ang)
        XX     351.9631     XY     370.6640     YY     263.9599
        XZ     414.7760     YZ     409.6519     ZZ     371.0180
    Octopole Moments (Debye-Ang^2)
       XXX   -2178.4607    XXY   -2878.0842    XYY   -2292.9352
       YYY    -735.3166    XXZ   -3208.5124    XYZ   -3646.7387
       YYZ   -2799.9720    XZZ   -3249.6186    YZZ   -3496.3917
       ZZZ   -2173.2304
    Hexadecapole Moments (Debye-Ang^3)
      XXXX    2618.5750   XXXY   16747.1559   XXYY   15184.3766
      XYYY    4957.9231   YYYY  -14553.1641   XXXZ   18450.9634
      XXYZ   27635.2524   XYYZ   24014.8488   YYYZ    9864.0277
      XXZZ   22404.7676   XYZZ   30175.1233   YYZZ   23968.4068
      XZZZ   17516.5059   YZZZ   22823.3017   ZZZZ   -1490.9533
 -----------------------------------------------------------------
 Calculating analytic gradient of the SCF energy
 -1.436014286405492E-004 -1.436165750805414E-004
 -1.436047376269640E-004 -1.436132775202403E-004
 -1.436009288450017E-004 -1.436170798082092E-004
 -1.436126513703034E-004 -1.436053452239162E-004
 -1.436112468019803E-004 -1.436067798116975E-004
 -1.436127841716026E-004 -1.436052226324939E-004
 -1.436184921563681E-004 -1.435995208800356E-004
 -1.436102994651300E-004 -1.436077348072898E-004
 -1.436119262422644E-004 -1.436060875419068E-004
 -1.436093295923970E-004 -1.436086875559108E-004
 -1.436087856481292E-004 -1.436092523990527E-004
 -1.436087217298464E-004 -1.436093022807312E-004
 -1.436020509118219E-004 -1.436159602153949E-004
 -1.436051216233088E-004 -1.436129052124900E-004
 -1.436015697367797E-004 -1.436164483298252E-004
 -1.435999832061730E-004 -1.436180280000067E-004
 -1.436062162429604E-004 -1.436118108457386E-004
 -1.436037820984090E-004 -1.436142295799597E-004
 -1.436112846463551E-004 -1.436067150359144E-004
 -1.436062626351416E-004 -1.436117475588269E-004
 -1.436044866893583E-004 -1.436135159418967E-004
 -1.436135046263721E-004 -1.436044962474699E-004
 -1.436087638403201E-004 -1.436092676251839E-004
 -1.436090659068480E-004 -1.436089552068199E-004
 -1.436138597244534E-004 -1.436041549756057E-004
 -1.436038146897777E-004 -1.436142054315933E-004
 -1.436005888354981E-004 -1.436174260243957E-004
 -1.436087645193801E-004 -1.436092574260425E-004
 -1.436030126436179E-004 -1.436150173459684E-004
 -1.435989478433351E-004 -1.436190639425695E-004
 -1.436140436425310E-004 -1.436039744290523E-004
 -1.436064295678818E-004 -1.436115989925230E-004
 -1.436050171634448E-004 -1.436130107351111E-004
 -1.436159207578009E-004 -1.436020792390285E-004
 -1.436079600586452E-004 -1.436100685342022E-004
 -1.436078786896915E-004 -1.436101387278763E-004
 -1.436108127108207E-004 -1.436071892590869E-004
 -1.436037821642432E-004 -1.436142346168320E-004
 -1.436002532795804E-004 -1.436177595506325E-004
 -1.436103804738944E-004 -1.436076244777444E-004
 -1.436140320587872E-004 -1.436040042616148E-004
 -1.436175609727850E-004 -1.436004588289010E-004
 -1.436085827831313E-004 -1.436094329209950E-004
 -1.436091493221744E-004 -1.436088890000642E-004
 -1.436092229919966E-004 -1.436088021807677E-004
 -1.436048281337966E-004 -1.436131748124566E-004
 -1.436040369756131E-004 -1.436139921370765E-004
 -1.436003926771224E-004 -1.436176252338728E-004
 -1.436033961346842E-004 -1.436146035717138E-004
 -1.436098909073057E-004 -1.436081192419529E-004
 -1.436099641122294E-004 -1.436080385501459E-004
 -1.436081105888548E-004 -1.436099074785249E-004
 -1.436112470842398E-004 -1.436067795508957E-004
 -1.436128154783515E-004 -1.436051932820599E-004
 -1.435983977414198E-004 -1.436196169414196E-004
 -1.436108968691571E-004 -1.436071231263859E-004
 -1.436113432102257E-004 -1.436066717814559E-004
 -1.435975341752386E-004 -1.436204705691691E-004
 -1.436081606405264E-004 -1.436098736597643E-004
 -1.436067491259698E-004 -1.436112755409130E-004
 -1.436034262427060E-004 -1.436146051164341E-004
 -1.436112701230449E-004 -1.436067548502829E-004
 -1.436124196701293E-004 -1.436055985207904E-004
 -1.436062528200547E-004 -1.436117607621152E-004
 -1.436123884460805E-004 -1.436056363873327E-004
 -1.436145968414471E-004 -1.436034107695001E-004
 -1.435986592093409E-004 -1.436193499822540E-004
 -1.436093380090588E-004 -1.436086767869120E-004
 -1.436087152820023E-004 -1.436092923110771E-004
 -1.436093147621059E-004 -1.436086896339462E-004
 -1.436196496758747E-004 -1.435983672202210E-004
 -1.436024232053802E-004 -1.436155743065474E-004
 -1.436082453589912E-004 -1.436097577055797E-004
 -1.435981853086779E-004 -1.436198175824377E-004
 -1.436150404888729E-004 -1.436029726099116E-004
 -1.436157426569589E-004 -1.436022581876672E-004
 -1.436195120568278E-004 -1.435984716738548E-004
 -1.436117816395348E-004 -1.436062132428864E-004
 -1.436159833774884E-004 -1.436020258364752E-004
 -1.436127016524072E-004 -1.436053068323708E-004
 -1.436136713553268E-004 -1.436043237627896E-004
 -1.436135926030385E-004 -1.436044089029284E-004
 -1.436137694887750E-004 -1.436042396401766E-004
 -1.436153771796729E-004 -1.436026249919932E-004
 -1.436151714347088E-004 -1.436028293857871E-004
 -1.436059121269535E-004 -1.436120710747047E-004
 -1.436199125362752E-004 -1.435980827000341E-004
 -1.436134884545970E-004 -1.436045119069757E-004
 -1.436119155323733E-004 -1.436060856761073E-004
 -1.436164484563115E-004 -1.436015628543051E-004
 -1.436158933820586E-004 -1.436021150548321E-004
 -1.436108089118038E-004 -1.436071887882190E-004
 -1.436147910466434E-004 -1.436032157130809E-004
 Gradient of SCF Energy
            1           2           3           4           5           6
    1   0.0115663   0.0261009  -0.0224607   0.0055942   0.0003283  -0.0217618
    2   0.0068521   0.0155568   0.0009387   0.0056865   0.0007415  -0.0020106
    3   0.0121098   0.0274535   0.0003488   0.0094889  -0.0001532  -0.0051706
            7           8           9          10          11          12
    1  -0.0023914  -0.0035730  -0.0010230  -0.0207417  -0.0028650   0.0131569
    2   0.0011478   0.0041486   0.0000730   0.0017115   0.0004128  -0.0032768
    3   0.0017293   0.0070209   0.0000988   0.0014668   0.0004802  -0.0045651
           13          14          15          16          17          18
    1  -0.0006606   0.0050210   0.0098502  -0.0013900   0.0025514   0.0084666
    2   0.0003179  -0.0113520   0.0037311  -0.0114234  -0.0009630  -0.0014502
    3   0.0004602  -0.0184117   0.0066251  -0.0193950  -0.0015172  -0.0015709
           19          20          21          22          23          24
    1   0.0003523   0.0060263   0.0011201  -0.0078388   0.0007614   0.0015624
    2  -0.0005627  -0.0105121  -0.0014190   0.0065077  -0.0003286  -0.0086632
    3  -0.0008230  -0.0171033  -0.0023068   0.0102782  -0.0004769   0.0079900
           25          26          27          28          29          30
    1   0.0026999   0.0069336  -0.0128416   0.0015810   0.0057501   0.0010949
    2   0.0102779   0.0126173   0.0011888  -0.0054687  -0.0056477  -0.0075209
    3  -0.0029024   0.0016350  -0.0016878  -0.0117953   0.0119814  -0.0105052
           31
    1  -0.0129704
    2  -0.0013112
    3  -0.0007826
 Max gradient component =       2.745E-02
 RMS gradient           =       8.781E-03
 Computing fast IEFPCM-SWIG gradient.
 Updating gradient with PCM contributions...
 -- total gradient after adding PCM contribution --
---------------------------------------------------
  Atom         X              Y              Z     
---------------------------------------------------
   1       0.011563       0.006850       0.012106
   2       0.026102       0.015557       0.027455
   3      -0.022460       0.000939       0.000349
   4       0.005594       0.005688       0.009492
   5       0.000327       0.000741      -0.000154
   6      -0.021763      -0.002011      -0.005171
   7      -0.002389       0.001149       0.001731
   8      -0.003574       0.004149       0.007021
   9      -0.001020       0.000073       0.000098
  10      -0.020741       0.001712       0.001467
  11      -0.002864       0.000411       0.000478
  12       0.013157      -0.003276      -0.004563
  13      -0.000663       0.000317       0.000458
  14       0.005021      -0.011352      -0.018411
  15       0.009854       0.003731       0.006626
  16      -0.001390      -0.011424      -0.019396
  17       0.002553      -0.000962      -0.001515
  18       0.008467      -0.001451      -0.001572
  19       0.000351      -0.000561      -0.000820
  20       0.006027      -0.010512      -0.017103
  21       0.001117      -0.001419      -0.002306
  22      -0.007837       0.006508       0.010279
  23       0.000759      -0.000330      -0.000479
  24       0.001561      -0.008660       0.007986
  25       0.002698       0.010273      -0.002902
  26       0.006932       0.012615       0.001635
  27      -0.012839       0.001189      -0.001688
  28       0.001580      -0.005468      -0.011793
  29       0.005749      -0.005646       0.011979
  30       0.001094      -0.007519      -0.010503
  31      -0.012968      -0.001311      -0.000783
---------------------------------------------------
 Number of fixed atoms: 0
 Gradient time:  CPU 62.93 s  wall 23.06 s
 Geometry Optimization Parameters
   NAtoms,    NIC,     NZ,  NCons,   NDum,   NFix, NCnnct, MaxDiis
       31     238       0       0       0       0       0       0


** GEOMETRY OPTIMIZATION IN DELOCALIZED INTERNAL COORDINATES **
   Searching for a Minimum

   Optimization Cycle:   1

                       Coordinates (Angstroms)
     ATOM                X               Y               Z
      1  H        -7.7388000000   -7.6905000000   -8.0313000000
      2  N        -8.3992000000   -8.0771000000   -8.7262000000
      3  C        -9.7943000000   -7.9003000000   -8.5259000000
      4  C       -10.7285000000   -8.4096000000   -9.4584000000
      5  C       -10.2830000000   -9.1665000000  -10.7167000000
      6  C       -12.1067000000   -8.2087000000   -9.2160000000
      7  H       -12.8501000000   -8.5826000000   -9.9056000000
      8  C       -12.5442000000   -7.5258000000   -8.0848000000
      9  H       -13.6049000000   -7.3851000000   -7.9197000000
     10  C       -11.6217000000   -7.0260000000   -7.1711000000
     11  H       -11.9708000000   -6.4954000000   -6.2944000000
     12  C       -10.2536000000   -7.2096000000   -7.3868000000
     13  H        -9.5509000000   -6.8127000000   -6.6640000000
     14  C        -7.8868000000   -8.7746000000   -9.8526000000
     15  C        -8.7594000000   -9.3116000000  -10.8284000000
     16  C        -8.2025000000   -9.9967000000  -11.9324000000
     17  H        -8.8368000000  -10.4196000000  -12.6983000000
     18  C        -6.8249000000  -10.1467000000  -12.0631000000
     19  H        -6.4214000000  -10.6769000000  -12.9165000000
     20  C        -5.9707000000   -9.6172000000  -11.1009000000
     21  H        -4.9006000000   -9.7383000000  -11.2108000000
     22  C        -6.4945000000   -8.9334000000  -10.0007000000
     23  H        -5.8131000000   -8.5277000000   -9.2625000000
     24  C       -10.7905000000   -8.3904000000  -11.9568000000
     25  C       -10.9103000000  -10.5834000000  -10.6857000000
     26  H       -10.3405000000   -7.3742000000  -11.9845000000
     27  H       -11.8940000000   -8.2803000000  -11.9523000000
     28  H       -10.5330000000   -8.9092000000  -12.9025000000
     29  H       -10.5499000000  -11.1470000000   -9.7982000000
     30  H       -10.6581000000  -11.1678000000  -11.5937000000
     31  H       -12.0178000000  -10.5452000000  -10.6461000000
   Point Group: c1    Number of degrees of freedom:    87


   Energy is   -633.744871244


 Attempting to Generate Delocalized Internal Coordinates

 87 Hessian modes will be used to form the next step
  Hessian Eigenvalues:
     0.002583    0.002768    0.006089    0.012937    0.013063    0.013862
     0.016122    0.016435    0.018525    0.019012    0.021832    0.021844
     0.021934    0.021943    0.021992    0.021994    0.023128    0.023142
     0.023169    0.023179    0.023516    0.023520    0.051361    0.053460
     0.053484    0.053583    0.054025    0.054508    0.077542    0.134384
     0.159999    0.160000    0.160000    0.160000    0.160000    0.160000
     0.160000    0.160000    0.160000    0.160000    0.160000    0.160000
     0.160000    0.160000    0.160000    0.176051    0.220000    0.220000
     0.225789    0.225976    0.236348    0.244737    0.246057    0.249996
     0.276629    0.277823    0.283236    0.287928    0.324182    0.324532
     0.327074    0.327096    0.327200    0.327204    0.355821    0.355866
     0.356714    0.356756    0.356827    0.356911    0.359054    0.359171
     0.376822    0.400570    0.405500    0.407407    0.409171    0.421834
     0.422267    0.434152    0.436337    0.452310    0.452505    0.458742
     0.458812    0.468268    0.468362

 Minimum Search - Taking Simple RFO Step
 Searching for Lamda that Minimizes Along All modes
 Value Taken    Lamda =  -0.02760602
 Step Taken.  Stepsize is  0.272960

                             Maximum     Tolerance    Cnvgd?
         Gradient           0.065221      0.000075      NO
         Displacement       0.161578      0.001200      NO
         Energy change     *********      0.000000      NO


 New Cartesian Coordinates Obtained by Inverse Iteration

 Displacement from previous Coordinates is:  0.828495
 Adding empirical dispersion correction 
 ----------------------------------------------------------------
 Doing -D3(BJ) with
 s6 =   1.00000
 s8 =   0.00000
 a1 =   0.48600
 a2 =   4.50000
 -D3 energy including 3body term =     -0.0235084247 hartrees
 ----------------------------------------------------------------
 Adding gCP correction 
 ----------------------------------------------------------------
 gCP energy =      0.0435071294 hartrees
 ----------------------------------------------------------------
             Standard Nuclear Orientation (Angstroms)
    I     Atom           X                Y                Z
 ----------------------------------------------------------------
    1      H      -7.8182606841    -7.7407601309    -8.1141155011
    2      N      -8.4652934628    -8.1182937927    -8.7951122472
    3      C      -9.7966826446    -7.9309436909    -8.5747832480
    4      C     -10.7266333469    -8.4333560000    -9.4962229475
    5      C     -10.3074391448    -9.1811779939   -10.7424755111
    6      C     -12.0640973406    -8.2145309391    -9.2220524986
    7      H     -12.8177874144    -8.5826593706    -9.9032607687
    8      C     -12.4617125859    -7.5276113030    -8.0838058641
    9      H     -13.5157647596    -7.3737816879    -7.8982653705
   10      C     -11.5196151183    -7.0355357584    -7.1805169504
   11      H     -11.8315726817    -6.5007234590    -6.2949913937
   12      C     -10.1866391276    -7.2349394987    -7.4225828333
   13      H      -9.4490263871    -6.8555719612    -6.7256226750
   14      C      -7.9433396036    -8.7813207470    -9.8649652070
   15      C      -8.8035190002    -9.3150752577   -10.8352459788
   16      C      -8.2173451666    -9.9763529959   -11.8987968769
   17      H      -8.8389595662   -10.4042045726   -12.6723798331
   18      C      -6.8386473177   -10.1036101177   -11.9943856432
   19      H      -6.4117064195   -10.6274531886   -12.8384029615
   20      C      -6.0015042400    -9.5650361495   -11.0173346762
   21      H      -4.9284101566    -9.6652160144   -11.0937922010
   22      C      -6.5501681340    -8.9027802617    -9.9519308901
   23      H      -5.9070049486    -8.4807711742    -9.1890144847
   24      C     -10.8106314481    -8.4047761528   -11.9758454989
   25      C     -10.9299470928   -10.5902353017   -10.7073782533
   26      H     -10.3793086849    -7.4045503512   -12.0215234366
   27      H     -11.8955236635    -8.3030846704   -11.9607464414
   28      H     -10.5542051239    -8.9244753239   -12.8985623217
   29      H     -10.5865680855   -11.1570083657    -9.8420667119
   30      H     -10.6765822495   -11.1560478575   -11.6036312807
   31      H     -12.0176044003   -10.5382159112   -10.6670894939
 ----------------------------------------------------------------
 Nuclear Repulsion Energy =  1059.7170095487 hartrees
 There are       56 alpha and       55 beta electrons
 Discretize the solute cavity surface with Lebedev spheres
	Using 302 Lebedev grid points for each H atom
	Using 302 Lebedev grid points for other atoms
	Atomic van der Waals radii will be scaled by 1.20
 Remove points where switching function is < 1.0e-08
 Keep 3427 surface tesserae and discard 5935 interior tesserae
 Molecular Surface Area = 250.946 Angst**2
 Nucleus-field energy     =    -0.0000000210 hartrees
 Requested basis set is def2-mSVP
 There are 142 shells and 270 basis functions
 A cutoff of  1.0D-11 yielded   7874 shell pairs
 There are     29766 function pairs (     33205 Cartesian)
 Smallest overlap matrix eigenvalue = 3.47E-04
 Guess MOs from SCF MO coefficient file

 -----------------------------------------------------------------------
  General SCF calculation program by
  Eric Jon Sundstrom, Paul Horn, Yuezhi Mao, Dmitri Zuev, Alec White,
  David Stuck, Shaama M.S., Shane Yost, Joonho Lee, David Small,
  Daniel Levine, Susi Lehtola, Hugh Burton, Evgeny Epifanovsky
 -----------------------------------------------------------------------
 Exchange:     0.4200 Hartree-Fock + 0.5800 PBEh-3c
 Correlation:  1.0000 PBEh-3c
 Using SG-1 standard quadrature grid
 Dispersion:   Grimme D3
 using 4 threads for integral computing
 -------------------------------------------------------
 OpenMP Integral computing Module                
 Release: version 2.0, May 2017, Q-Chem Inc. Pleasanton 
 -------------------------------------------------------
 -------------------------------------------------------
 OpenMP BLAS3 based DFT computing Module                
 Release: version 1.0, May 2013, Q-Chem Inc. Pittsburgh 
 -------------------------------------------------------
 A unrestricted SCF calculation will be
 performed using DIIS
 SCF converges when DIIS error is below 1.0e-08
 ---------------------------------------
  Cycle       Energy         DIIS error
 ---------------------------------------
 Using non-symmetric K matrix
    1    -633.7525689996      4.38e-04  
    2    -633.7577805415      1.59e-04  
    3    -633.7577491245      1.64e-04  
    4    -633.7587531153      3.40e-05  
    5    -633.7588018491      8.37e-06  
    6    -633.7588083683      4.43e-06  
    7    -633.7588108959      2.68e-06  
    8    -633.7588120546      1.24e-06  
    9    -633.7588122662      6.88e-07  
   10    -633.7588123597      4.07e-07  
   11    -633.7588124163      2.72e-07  
   12    -633.7588124339      1.05e-07  
   13    -633.7588124368      5.64e-08  
   14    -633.7588124372      1.67e-08  
   15    -633.7588124372      4.67e-09  Convergence criterion met
 ---------------------------------------
 SCF time:   CPU 568.21s  wall 149.00s 
<S^2> =          0.809575686

************** Final PCM Free Energy Summary **************
 G_electrostatic  =      -0.00000733 hartree =      -0.00459710 kcal/mol
 G_cavitation     =       0.00000000 hartree =       0.00000000 kcal/mol
 G_dispersion     =       0.00000000 hartree =       0.00000000 kcal/mol
 G_repulsion      =       0.00000000 hartree =       0.00000000 kcal/mol
 --------------------------------------------------
 Non-electrostatic Free Energy =       0.00000000 hartree =       0.00000000 kcal/mol
 Total                         =      -0.00000733 hartree =      -0.00459710 kcal/mol
 --------------------------------------------------
 SCF Energy (H0 + V/2)                       =    -633.75881244 
 Solute Internal Energy (H0)                 =    -633.75880511 
 Total Free Energy (H0 + V/2 + non-elec)     =    -633.75881244 hartree
                                             = -397689.65713409 kcal/mol
***********************************************************

 SCF   energy in the final basis set =     -633.7588124372
 Total energy in the final basis set =     -633.7588124372
 
 --------------------------------------------------------------
 
                    Orbital Energies (a.u.)
 --------------------------------------------------------------
 
 Alpha MOs
 -- Occupied --
-14.900 -10.665 -10.665 -10.624 -10.624 -10.622 -10.612 -10.612
-10.605 -10.605 -10.597 -10.597 -10.597 -10.597 -10.563 -10.563
 -1.285  -1.130  -1.122  -1.069  -1.021  -1.002  -0.978  -0.967
 -0.907  -0.890  -0.881  -0.837  -0.833  -0.780  -0.776  -0.774
 -0.699  -0.692  -0.690  -0.686  -0.681  -0.652  -0.647  -0.638
 -0.628  -0.618  -0.601  -0.590  -0.578  -0.575  -0.567  -0.563
 -0.552  -0.533  -0.530  -0.521  -0.461  -0.452  -0.445  -0.407
 -- Virtual --
 -0.152  -0.144  -0.130  -0.105  -0.040  -0.003   0.011   0.017
  0.035   0.038   0.040   0.061   0.066   0.079   0.085   0.087
  0.092   0.098   0.107   0.114   0.122   0.131   0.139   0.148
  0.156   0.170   0.170   0.185   0.199   0.199   0.227   0.229
  0.235   0.259   0.290   0.318   0.340   0.353   0.362   0.366
  0.373   0.397   0.398   0.403   0.417   0.432   0.432   0.437
  0.449   0.453   0.467   0.473   0.477   0.479   0.480   0.482
  0.488   0.503   0.513   0.514   0.521   0.530   0.563   0.568
  0.602   0.609   0.611   0.647   0.647   0.652   0.662   0.672
  0.673   0.711   0.751   0.758   0.774   0.779   0.813   0.816
  0.827   0.833   0.848   0.852   0.856   0.880   0.882   0.891
  0.907   0.914   0.918   0.924   0.930   0.939   0.958   0.967
  0.981   0.982   0.986   1.002   1.007   1.027   1.062   1.097
  1.106   1.120   1.134   1.151   1.160   1.178   1.196   1.201
  1.244   1.264   1.266   1.311   1.323   1.334   1.359   1.381
  1.388   1.392   1.399   1.403   1.422   1.464   1.495   1.503
  1.555   1.581   1.585   1.663   1.664   1.688   1.689   1.727
  1.751   1.762   1.773   1.775   1.784   1.821   1.826   1.831
  1.893   1.911   1.949   1.973   1.975   1.985   1.994   2.026
  2.031   2.047   2.048   2.076   2.097   2.106   2.114   2.120
  2.141   2.175   2.195   2.199   2.201   2.220   2.252   2.256
  2.258   2.265   2.271   2.295   2.363   2.427   2.436   2.476
  2.483   2.531   2.542   2.548   2.551   2.599   2.608   2.628
  2.632   2.649   2.654   2.692   2.722   2.735   2.801   2.833
  2.834   2.888   2.998   3.256   3.374   3.400  13.072  13.173
 13.487  13.546  13.575  13.611  13.733  13.748  14.006  14.023
 14.052  14.085  14.149  14.420  14.431  19.241
 
 Beta MOs
 -- Occupied --
-14.889 -10.667 -10.666 -10.622 -10.621 -10.621 -10.610 -10.610
-10.601 -10.601 -10.599 -10.599 -10.599 -10.599 -10.563 -10.562
 -1.267  -1.125  -1.115  -1.066  -1.018  -0.999  -0.975  -0.958
 -0.905  -0.888  -0.875  -0.834  -0.830  -0.778  -0.774  -0.770
 -0.695  -0.689  -0.685  -0.680  -0.658  -0.651  -0.645  -0.637
 -0.627  -0.603  -0.592  -0.589  -0.576  -0.574  -0.563  -0.561
 -0.537  -0.529  -0.520  -0.519  -0.447  -0.439  -0.434
 -- Virtual --
 -0.283  -0.138  -0.135  -0.123  -0.081  -0.036  -0.002   0.012
  0.019   0.038   0.042   0.050   0.063   0.066   0.082   0.085
  0.088   0.095   0.099   0.108   0.117   0.123   0.134   0.141
  0.149   0.156   0.172   0.172   0.186   0.199   0.200   0.227
  0.230   0.237   0.261   0.292   0.323   0.341   0.359   0.363
  0.367   0.375   0.398   0.400   0.409   0.419   0.434   0.440
  0.440   0.451   0.466   0.469   0.474   0.480   0.481   0.482
  0.485   0.491   0.505   0.511   0.517   0.530   0.533   0.566
  0.575   0.604   0.613   0.616   0.647   0.648   0.661   0.662
  0.674   0.677   0.718   0.753   0.760   0.774   0.784   0.812
  0.829   0.834   0.837   0.852   0.853   0.857   0.881   0.884
  0.892   0.905   0.915   0.920   0.925   0.935   0.941   0.960
  0.968   0.981   0.982   0.987   1.002   1.009   1.028   1.064
  1.102   1.109   1.120   1.143   1.156   1.161   1.179   1.198
  1.203   1.250   1.266   1.279   1.314   1.325   1.338   1.363
  1.386   1.391   1.394   1.403   1.406   1.427   1.466   1.497
  1.508   1.558   1.585   1.597   1.665   1.670   1.689   1.691
  1.729   1.761   1.764   1.777   1.778   1.793   1.823   1.828
  1.836   1.895   1.914   1.950   1.975   1.975   1.988   1.995
  2.031   2.034   2.050   2.054   2.077   2.102   2.111   2.118
  2.124   2.146   2.179   2.200   2.201   2.204   2.223   2.257
  2.258   2.263   2.267   2.281   2.301   2.371   2.429   2.438
  2.478   2.486   2.535   2.545   2.551   2.555   2.600   2.609
  2.629   2.638   2.652   2.655   2.694   2.726   2.736   2.804
  2.835   2.836   2.891   2.999   3.258   3.376   3.401  13.074
 13.174  13.488  13.548  13.576  13.613  13.734  13.748  14.007
 14.024  14.053  14.086  14.150  14.421  14.432  19.255
 --------------------------------------------------------------
 
          Ground-State Mulliken Net Atomic Charges

     Atom                 Charge (a.u.)    Spin (a.u.)
  --------------------------------------------------------
      1 H                     0.411035      -0.018765
      2 N                    -0.712359       0.402090
      3 C                     0.346598      -0.067814
      4 C                     0.193428       0.223625
      5 C                    -0.249407      -0.037100
      6 C                    -0.291958      -0.150304
      7 H                     0.257862       0.006994
      8 C                    -0.188543       0.265664
      9 H                     0.277752      -0.014154
     10 C                    -0.225171      -0.125504
     11 H                     0.278140       0.005551
     12 C                    -0.285415       0.170111
     13 H                     0.265098      -0.009572
     14 C                     0.347326      -0.067734
     15 C                     0.193487       0.223178
     16 C                    -0.292186      -0.150078
     17 H                     0.257923       0.006985
     18 C                    -0.188598       0.265453
     19 H                     0.277758      -0.014147
     20 C                    -0.225139      -0.125461
     21 H                     0.278112       0.005549
     22 C                    -0.285727       0.170002
     23 H                     0.265036      -0.009568
     24 C                    -0.598208       0.023218
     25 C                    -0.599495       0.022571
     26 H                     0.250389      -0.000865
     27 H                     0.247901       0.000247
     28 H                     0.247905       0.000258
     29 H                     0.251131      -0.000812
     30 H                     0.247732       0.000195
     31 H                     0.247596       0.000187
  --------------------------------------------------------
  Sum of atomic charges =     1.000000
  Sum of spin   charges =     1.000000

 -----------------------------------------------------------------
                    Cartesian Multipole Moments
 -----------------------------------------------------------------
    Charge (ESU x 10^10)
                 4.8032
    Dipole Moment (Debye)
         X     -44.1627      Y     -41.0320      Z     -45.9324
       Tot      75.7876
    Quadrupole Moments (Debye-Ang)
        XX     351.4076     XY     371.7990     YY     264.7301
        XZ     416.3748     YZ     409.4281     ZZ     371.4576
    Octopole Moments (Debye-Ang^2)
       XXX   -2147.1196    XXY   -2885.0538    XYY   -2312.5724
       YYY    -748.8670    XXZ   -3220.7726    XYZ   -3659.9030
       YYZ   -2794.7395    XZZ   -3272.5939    YZZ   -3483.7020
       ZZZ   -2170.2063
    Hexadecapole Moments (Debye-Ang^3)
      XXXX    1931.0746   XXXY   16632.2862   XXYY   15398.3912
      XYYY    5222.1343   YYYY  -14339.3282   XXXZ   18374.2999
      XXYZ   27785.8133   XYYZ   24147.1154   YYYZ    9816.4998
      XXZZ   22682.9527   XYZZ   30283.7238   YYZZ   23738.8514
      XZZZ   17745.1512   YZZZ   22530.9120   ZZZZ   -1641.4686
 -----------------------------------------------------------------
 Calculating analytic gradient of the SCF energy
 -1.469686926472208E-004 -1.469831322925171E-004
 -1.469718699314956E-004 -1.469799677483111E-004
 -1.469682212929681E-004 -1.469836087560260E-004
 -1.469808819742944E-004 -1.469709357942438E-004
 -1.469789154661175E-004 -1.469729342686899E-004
 -1.469811042437185E-004 -1.469707246759707E-004
 -1.469853469367151E-004 -1.469664893674597E-004
 -1.469774940175193E-004 -1.469743630057510E-004
 -1.469793339410641E-004 -1.469725032399371E-004
 -1.469752185351553E-004 -1.469766223478721E-004
 -1.469756774895978E-004 -1.469761827840385E-004
 -1.469755628769286E-004 -1.469762836595346E-004
 -1.469685068073132E-004 -1.469833268878270E-004
 -1.469717679335757E-004 -1.469800812219257E-004
 -1.469680048494147E-004 -1.469838355807470E-004
 -1.469666193767395E-004 -1.469852144677942E-004
 -1.469734516596183E-004 -1.469783977902760E-004
 -1.469712370239891E-004 -1.469805970855664E-004
 -1.469783091001066E-004 -1.469735132206526E-004
 -1.469732588669600E-004 -1.469785740555317E-004
 -1.469715613042184E-004 -1.469802641657667E-004
 -1.469801935859890E-004 -1.469716310458731E-004
 -1.469752103351450E-004 -1.469766434524125E-004
 -1.469751429305403E-004 -1.469767005120011E-004
 -1.469813727469142E-004 -1.469704653132189E-004
 -1.469705211297852E-004 -1.469813211923078E-004
 -1.469671623908108E-004 -1.469846746768687E-004
 -1.469755397528100E-004 -1.469763042038459E-004
 -1.469697894788575E-004 -1.469820631733367E-004
 -1.469655750422628E-004 -1.469862603543950E-004
 -1.469809063652026E-004 -1.469709323745125E-004
 -1.469730263654246E-004 -1.469788248186717E-004
 -1.469713703248857E-004 -1.469804810584033E-004
 -1.469832476348052E-004 -1.469685736522980E-004
 -1.469745866931640E-004 -1.469772634904250E-004
 -1.469742926407505E-004 -1.469775453230617E-004
 -1.469772208651777E-004 -1.469746030951384E-004
 -1.469707381147771E-004 -1.469811011439594E-004
 -1.469671743296720E-004 -1.469846608766860E-004
 -1.469778741230664E-004 -1.469739543485385E-004
 -1.469809212040213E-004 -1.469709378318947E-004
 -1.469845341913876E-004 -1.469673087983845E-004
 -1.469756109035691E-004 -1.469762274041308E-004
 -1.469755008524852E-004 -1.469763600266886E-004
 -1.469752702400488E-004 -1.469765782812728E-004
 -1.469724253787299E-004 -1.469793998061651E-004
 -1.469708266177706E-004 -1.469810249693241E-004
 -1.469671878337954E-004 -1.469846527483065E-004
 -1.469704603517789E-004 -1.469813622659246E-004
 -1.469768673897835E-004 -1.469749654021233E-004
 -1.469770223433320E-004 -1.469748029151272E-004
 -1.469740999733790E-004 -1.469777401242874E-004
 -1.469779993349971E-004 -1.469738501143023E-004
 -1.469793745645535E-004 -1.469724577166710E-004
 -1.469648021049563E-004 -1.469870346931952E-004
 -1.469781117249300E-004 -1.469737308661590E-004
 -1.469786798760937E-004 -1.469731582598920E-004
 -1.469641522494719E-004 -1.469876770575582E-004
 -1.469749841593691E-004 -1.469768722029974E-004
 -1.469734628266628E-004 -1.469783835528308E-004
 -1.469697361168632E-004 -1.469821188841502E-004
 -1.469781399799360E-004 -1.469737068545295E-004
 -1.469791670514283E-004 -1.469726723980802E-004
 -1.469724989916746E-004 -1.469793337709593E-004
 -1.469794969754538E-004 -1.469723500174565E-004
 -1.469817606214386E-004 -1.469700690383433E-004
 -1.469657054799728E-004 -1.469861258151101E-004
 -1.469760110013518E-004 -1.469758262592573E-004
 -1.469751976604234E-004 -1.469766322009155E-004
 -1.469759788541723E-004 -1.469758478411711E-004
 -1.469863960484130E-004 -1.469654435053091E-004
 -1.469690909300702E-004 -1.469827283326673E-004
 -1.469749060137801E-004 -1.469769192834269E-004
 -1.469649984670311E-004 -1.469868264721713E-004
 -1.469816556771166E-004 -1.469701798274929E-004
 -1.469828166072342E-004 -1.469690069716923E-004
 -1.469868868081175E-004 -1.469649202273482E-004
 -1.469786232922752E-004 -1.469731936377975E-004
 -1.469833644511864E-004 -1.469684673366590E-004
 -1.469797425535880E-004 -1.469720884132788E-004
 -1.469809239492307E-004 -1.469708935709604E-004
 -1.469807784697774E-004 -1.469710454331274E-004
 -1.469808948148845E-004 -1.469709368388403E-004
 -1.469827779544578E-004 -1.469690467735925E-004
 -1.469821831231711E-004 -1.469696403412094E-004
 -1.469724561781966E-004 -1.469793492497458E-004
 -1.469871965499886E-004 -1.469646219672633E-004
 -1.469806784205963E-004 -1.469711443468507E-004
 -1.469791173278689E-004 -1.469727064227048E-004
 -1.469837859828538E-004 -1.469680478874364E-004
 -1.469832464413290E-004 -1.469685845716796E-004
 -1.469778875439343E-004 -1.469739326382322E-004
 -1.469819711796588E-004 -1.469698580248539E-004
 Gradient of SCF Energy
            1           2           3           4           5           6
    1  -0.0002390   0.0047471  -0.0079031   0.0007276  -0.0013913   0.0004940
    2  -0.0000466   0.0028323  -0.0009136   0.0021551  -0.0008237  -0.0016187
    3  -0.0002618   0.0048954  -0.0017916   0.0035425  -0.0013960  -0.0027720
            7           8           9          10          11          12
    1   0.0009365   0.0028834   0.0001053   0.0002209   0.0008834   0.0021081
    2  -0.0000629   0.0004528  -0.0001288  -0.0007357   0.0000607  -0.0020082
    3  -0.0000660   0.0010448  -0.0001699  -0.0012047   0.0001849  -0.0032026
           13          14          15          16          17          18
    1  -0.0010920  -0.0004760   0.0040049  -0.0031849  -0.0001307   0.0006000
    2   0.0005747  -0.0039911   0.0007079   0.0000793   0.0004505   0.0015294
    3   0.0008241  -0.0066528   0.0013893  -0.0002060   0.0007646   0.0026863
           19          20          21          22          23          24
    1  -0.0001713  -0.0014051   0.0000387  -0.0040097   0.0011704   0.0006732
    2   0.0000273   0.0001247   0.0004807   0.0008552  -0.0004959  -0.0006147
    3   0.0000945   0.0000918   0.0008018   0.0011555  -0.0007440   0.0013089
           25          26          27          28          29          30
    1   0.0009797   0.0002744  -0.0001690  -0.0002748   0.0002343  -0.0003919
    2   0.0012801   0.0005280   0.0000947   0.0001765  -0.0001832  -0.0003280
    3   0.0005399   0.0000447  -0.0004888  -0.0003947   0.0004391  -0.0001677
           31
    1  -0.0002430
    2  -0.0004585
    3  -0.0002892
 Max gradient component =       7.903E-03
 RMS gradient           =       1.851E-03
 Computing fast IEFPCM-SWIG gradient.
 Updating gradient with PCM contributions...
 -- total gradient after adding PCM contribution --
---------------------------------------------------
  Atom         X              Y              Z     
---------------------------------------------------
   1      -0.000242      -0.000048      -0.000265
   2       0.004748       0.002833       0.004897
   3      -0.007902      -0.000914      -0.001792
   4       0.000728       0.002157       0.003546
   5      -0.001392      -0.000824      -0.001397
   6       0.000493      -0.001619      -0.002773
   7       0.000939      -0.000062      -0.000064
   8       0.002882       0.000453       0.001045
   9       0.000108      -0.000129      -0.000170
  10       0.000222      -0.000735      -0.001204
  11       0.000884       0.000059       0.000182
  12       0.002108      -0.002007      -0.003201
  13      -0.001094       0.000573       0.000822
  14      -0.000477      -0.003991      -0.006652
  15       0.004009       0.000708       0.001390
  16      -0.003185       0.000079      -0.000207
  17      -0.000129       0.000452       0.000767
  18       0.000600       0.001529       0.002685
  19      -0.000173       0.000029       0.000097
  20      -0.001405       0.000125       0.000093
  21       0.000035       0.000481       0.000802
  22      -0.004008       0.000855       0.001156
  23       0.001168      -0.000497      -0.000746
  24       0.000671      -0.000612       0.001304
  25       0.000977       0.001275       0.000540
  26       0.000273       0.000525       0.000045
  27      -0.000166       0.000094      -0.000489
  28      -0.000275       0.000178      -0.000392
  29       0.000233      -0.000182       0.000437
  30      -0.000393      -0.000327      -0.000165
  31      -0.000240      -0.000459      -0.000289
---------------------------------------------------
 Number of fixed atoms: 0
 Gradient time:  CPU 63.69 s  wall 23.17 s
 Geometry Optimization Parameters
   NAtoms,    NIC,     NZ,  NCons,   NDum,   NFix, NCnnct, MaxDiis
       31     238       0       0       0       0       0       0

 Cartesian Hessian Update
 Hessian Updated using BFGS Update


** GEOMETRY OPTIMIZATION IN DELOCALIZED INTERNAL COORDINATES **
   Searching for a Minimum

   Optimization Cycle:   2

                       Coordinates (Angstroms)
     ATOM                X               Y               Z
      1  H        -7.8182606841   -7.7407601309   -8.1141155011
      2  N        -8.4652934628   -8.1182937927   -8.7951122472
      3  C        -9.7966826446   -7.9309436909   -8.5747832480
      4  C       -10.7266333469   -8.4333560000   -9.4962229475
      5  C       -10.3074391448   -9.1811779939  -10.7424755111
      6  C       -12.0640973406   -8.2145309391   -9.2220524986
      7  H       -12.8177874144   -8.5826593706   -9.9032607687
      8  C       -12.4617125859   -7.5276113030   -8.0838058641
      9  H       -13.5157647596   -7.3737816879   -7.8982653705
     10  C       -11.5196151183   -7.0355357584   -7.1805169504
     11  H       -11.8315726817   -6.5007234590   -6.2949913937
     12  C       -10.1866391276   -7.2349394987   -7.4225828333
     13  H        -9.4490263871   -6.8555719612   -6.7256226750
     14  C        -7.9433396036   -8.7813207470   -9.8649652070
     15  C        -8.8035190002   -9.3150752577  -10.8352459788
     16  C        -8.2173451666   -9.9763529959  -11.8987968769
     17  H        -8.8389595662  -10.4042045726  -12.6723798331
     18  C        -6.8386473177  -10.1036101177  -11.9943856432
     19  H        -6.4117064195  -10.6274531886  -12.8384029615
     20  C        -6.0015042400   -9.5650361495  -11.0173346762
     21  H        -4.9284101566   -9.6652160144  -11.0937922010
     22  C        -6.5501681340   -8.9027802617   -9.9519308901
     23  H        -5.9070049486   -8.4807711742   -9.1890144847
     24  C       -10.8106314481   -8.4047761528  -11.9758454989
     25  C       -10.9299470928  -10.5902353017  -10.7073782533
     26  H       -10.3793086849   -7.4045503512  -12.0215234366
     27  H       -11.8955236635   -8.3030846704  -11.9607464414
     28  H       -10.5542051239   -8.9244753239  -12.8985623217
     29  H       -10.5865680855  -11.1570083657   -9.8420667119
     30  H       -10.6765822495  -11.1560478575  -11.6036312807
     31  H       -12.0176044003  -10.5382159112  -10.6670894939
   Point Group: c1    Number of degrees of freedom:    87


   Energy is   -633.758812437

 Hessian Updated using BFGS Update

 78 Hessian modes will be used to form the next step
  Hessian Eigenvalues:
     0.002583    0.002768    0.006089    0.012937    0.013063    0.013862
     0.016122    0.016435    0.018525    0.019012    0.021832    0.021844
     0.021934    0.021943    0.021992    0.021994    0.023128    0.023142
     0.023169    0.023179    0.023516    0.023520    0.051362    0.053460
     0.053484    0.053586    0.054025    0.054508    0.078162    0.134384
     0.158757    0.159999    0.160000    0.160000    0.160000    0.161597
     0.176306    0.219999    0.220068    0.225976    0.226511    0.231739
     0.244737    0.249531    0.249994    0.276781    0.277929    0.285650
     0.287929    0.323885    0.324454    0.327083    0.327143    0.327201
     0.327469    0.355821    0.355866    0.356719    0.356764    0.356834
     0.356919    0.359020    0.359144    0.376820    0.389204    0.406039
     0.407407    0.415851    0.421830    0.422868    0.434152    0.440474
     0.452373    0.456846    0.458796    0.467206    0.468326    0.496525

 Minimum Search - Taking Simple RFO Step
 Searching for Lamda that Minimizes Along All modes
 Value Taken    Lamda =  -0.00060776
 Step Taken.  Stepsize is  0.054126

                             Maximum     Tolerance    Cnvgd?
         Gradient           0.008509      0.000075      NO
         Displacement       0.022886      0.001200      NO
         Energy change     -0.013941      0.000000      NO


 New Cartesian Coordinates Obtained by Inverse Iteration

 Displacement from previous Coordinates is:  0.117498
 Adding empirical dispersion correction 
 ----------------------------------------------------------------
 Doing -D3(BJ) with
 s6 =   1.00000
 s8 =   0.00000
 a1 =   0.48600
 a2 =   4.50000
 -D3 energy including 3body term =     -0.0234738241 hartrees
 ----------------------------------------------------------------
 Adding gCP correction 
 ----------------------------------------------------------------
 gCP energy =      0.0433816753 hartrees
 ----------------------------------------------------------------
             Standard Nuclear Orientation (Angstroms)
    I     Atom           X                Y                Z
 ----------------------------------------------------------------
    1      H      -7.8225453875    -7.7531080859    -8.1127806566
    2      N      -8.4695786642    -8.1277331240    -8.7952824816
    3      C      -9.7957432072    -7.9319200802    -8.5693728193
    4      C     -10.7292049421    -8.4337726116    -9.4933142211
    5      C     -10.3065666160    -9.1831579243   -10.7400260065
    6      C     -12.0681639323    -8.2071725526    -9.2145973563
    7      H     -12.8264898379    -8.5722494781    -9.8936987764
    8      C     -12.4689250354    -7.5174161150    -8.0794854037
    9      H     -13.5230394062    -7.3598450645    -7.8962116574
   10      C     -11.5253248987    -7.0267605793    -7.1748506184
   11      H     -11.8422855327    -6.4901724847    -6.2921200965
   12      C     -10.1904319934    -7.2317117890    -7.4151698260
   13      H      -9.4464715526    -6.8574421775    -6.7222343005
   14      C      -7.9399747387    -8.7848517523    -9.8613921815
   15      C      -8.8011221442    -9.3185061934   -10.8360583873
   16      C      -8.2066486531    -9.9754491911   -11.9022261444
   17      H      -8.8243001752   -10.4029896238   -12.6804011141
   18      C      -6.8283028527   -10.1010002944   -12.0026930450
   19      H      -6.4008977759   -10.6201015205   -12.8496158586
   20      C      -5.9912367734    -9.5639751549   -11.0227476367
   21      H      -4.9184729799    -9.6639328848   -11.1047638654
   22      C      -6.5421343966    -8.9060019680    -9.9528084039
   23      H      -5.9066202801    -8.4821890135    -9.1843970022
   24      C     -10.8137269910    -8.4123911743   -11.9761103819
   25      C     -10.9325826208   -10.5915781900   -10.7098847312
   26      H     -10.3858344054    -7.4126612108   -12.0295866172
   27      H     -11.8981449399    -8.3145789890   -11.9556812396
   28      H     -10.5572381269    -8.9387563686   -12.8941700038
   29      H     -10.5940843733   -11.1623511863    -9.8469391498
   30      H     -10.6762355079   -11.1529171564   -11.6071699035
   31      H     -12.0191712588   -10.5334060613   -10.6711101136
 ----------------------------------------------------------------
 Nuclear Repulsion Energy =  1058.1092176692 hartrees
 There are       56 alpha and       55 beta electrons
 Discretize the solute cavity surface with Lebedev spheres
	Using 302 Lebedev grid points for each H atom
	Using 302 Lebedev grid points for other atoms
	Atomic van der Waals radii will be scaled by 1.20
 Remove points where switching function is < 1.0e-08
 Keep 3428 surface tesserae and discard 5934 interior tesserae
 Molecular Surface Area = 251.358 Angst**2
 Nucleus-field energy     =    -0.0000000210 hartrees
 Requested basis set is def2-mSVP
 There are 142 shells and 270 basis functions
 A cutoff of  1.0D-11 yielded   7872 shell pairs
 There are     29740 function pairs (     33168 Cartesian)
 Smallest overlap matrix eigenvalue = 3.52E-04
 Guess MOs from SCF MO coefficient file

 -----------------------------------------------------------------------
  General SCF calculation program by
  Eric Jon Sundstrom, Paul Horn, Yuezhi Mao, Dmitri Zuev, Alec White,
  David Stuck, Shaama M.S., Shane Yost, Joonho Lee, David Small,
  Daniel Levine, Susi Lehtola, Hugh Burton, Evgeny Epifanovsky
 -----------------------------------------------------------------------
 Exchange:     0.4200 Hartree-Fock + 0.5800 PBEh-3c
 Correlation:  1.0000 PBEh-3c
 Using SG-1 standard quadrature grid
 Dispersion:   Grimme D3
 using 4 threads for integral computing
 -------------------------------------------------------
 OpenMP Integral computing Module                
 Release: version 2.0, May 2017, Q-Chem Inc. Pleasanton 
 -------------------------------------------------------
 -------------------------------------------------------
 OpenMP BLAS3 based DFT computing Module                
 Release: version 1.0, May 2013, Q-Chem Inc. Pittsburgh 
 -------------------------------------------------------
 A unrestricted SCF calculation will be
 performed using DIIS
 SCF converges when DIIS error is below 1.0e-08
 ---------------------------------------
  Cycle       Energy         DIIS error
 ---------------------------------------
 Using non-symmetric K matrix
    1    -633.7603880630      6.28e-05  
    2    -633.7591104658      1.94e-05  
    3    -633.7591140325      1.93e-05  
    4    -633.7591271084      3.15e-06  
    5    -633.7591275524      1.78e-06  
    6    -633.7591277679      7.46e-07  
    7    -633.7591278435      4.29e-07  
    8    -633.7591278929      2.56e-07  
    9    -633.7591279081      1.54e-07  
   10    -633.7591279133      8.20e-08  
   11    -633.7591279148      4.54e-08  
   12    -633.7591279153      2.07e-08  
   13    -633.7591279154      9.72e-09  Convergence criterion met
 ---------------------------------------
 SCF time:   CPU 512.88s  wall 135.00s 
<S^2> =          0.811252294

************** Final PCM Free Energy Summary **************
 G_electrostatic  =      -0.00000732 hartree =      -0.00459550 kcal/mol
 G_cavitation     =       0.00000000 hartree =       0.00000000 kcal/mol
 G_dispersion     =       0.00000000 hartree =       0.00000000 kcal/mol
 G_repulsion      =       0.00000000 hartree =       0.00000000 kcal/mol
 --------------------------------------------------
 Non-electrostatic Free Energy =       0.00000000 hartree =       0.00000000 kcal/mol
 Total                         =      -0.00000732 hartree =      -0.00459550 kcal/mol
 --------------------------------------------------
 SCF Energy (H0 + V/2)                       =    -633.75912792 
 Solute Internal Energy (H0)                 =    -633.75912059 
 Total Free Energy (H0 + V/2 + non-elec)     =    -633.75912792 hartree
                                             = -397689.85509960 kcal/mol
***********************************************************

 SCF   energy in the final basis set =     -633.7591279154
 Total energy in the final basis set =     -633.7591279154
 
 --------------------------------------------------------------
 
                    Orbital Energies (a.u.)
 --------------------------------------------------------------
 
 Alpha MOs
 -- Occupied --
-14.900 -10.666 -10.666 -10.625 -10.625 -10.623 -10.614 -10.613
-10.605 -10.605 -10.598 -10.598 -10.598 -10.598 -10.563 -10.563
 -1.286  -1.128  -1.121  -1.068  -1.021  -1.001  -0.978  -0.966
 -0.907  -0.890  -0.881  -0.836  -0.833  -0.780  -0.776  -0.773
 -0.700  -0.692  -0.690  -0.685  -0.680  -0.651  -0.646  -0.639
 -0.628  -0.617  -0.600  -0.590  -0.578  -0.576  -0.567  -0.563
 -0.551  -0.533  -0.531  -0.520  -0.461  -0.452  -0.444  -0.407
 -- Virtual --
 -0.153  -0.144  -0.131  -0.105  -0.040  -0.003   0.011   0.017
  0.034   0.038   0.039   0.060   0.066   0.079   0.084   0.087
  0.093   0.097   0.107   0.112   0.123   0.132   0.136   0.147
  0.155   0.169   0.169   0.186   0.198   0.198   0.226   0.227
  0.235   0.259   0.290   0.318   0.340   0.352   0.362   0.363
  0.372   0.395   0.398   0.403   0.419   0.432   0.433   0.437
  0.448   0.453   0.465   0.473   0.476   0.478   0.479   0.481
  0.488   0.502   0.512   0.513   0.521   0.527   0.559   0.568
  0.600   0.608   0.611   0.645   0.648   0.652   0.661   0.672
  0.673   0.710   0.752   0.758   0.774   0.780   0.813   0.817
  0.826   0.832   0.849   0.851   0.855   0.881   0.882   0.890
  0.906   0.914   0.919   0.926   0.929   0.938   0.955   0.968
  0.979   0.982   0.984   1.000   1.006   1.028   1.059   1.097
  1.105   1.118   1.134   1.150   1.157   1.176   1.193   1.202
  1.243   1.263   1.269   1.312   1.321   1.334   1.358   1.380
  1.384   1.393   1.399   1.404   1.423   1.461   1.494   1.503
  1.555   1.579   1.585   1.661   1.662   1.685   1.687   1.723
  1.751   1.760   1.772   1.774   1.784   1.819   1.823   1.828
  1.893   1.910   1.947   1.971   1.971   1.982   1.993   2.023
  2.029   2.045   2.047   2.073   2.095   2.102   2.112   2.121
  2.142   2.173   2.190   2.197   2.202   2.218   2.254   2.255
  2.258   2.263   2.271   2.291   2.366   2.421   2.434   2.478
  2.484   2.528   2.540   2.544   2.549   2.592   2.604   2.626
  2.627   2.647   2.651   2.687   2.720   2.732   2.795   2.827
  2.833   2.890   3.002   3.242   3.374   3.389  13.072  13.171
 13.487  13.545  13.573  13.608  13.734  13.745  14.001  14.019
 14.046  14.077  14.144  14.413  14.421  19.241
 
 Beta MOs
 -- Occupied --
-14.889 -10.667 -10.667 -10.623 -10.622 -10.622 -10.611 -10.611
-10.602 -10.601 -10.600 -10.600 -10.600 -10.600 -10.562 -10.562
 -1.269  -1.124  -1.114  -1.065  -1.018  -0.998  -0.974  -0.958
 -0.905  -0.888  -0.875  -0.833  -0.830  -0.778  -0.773  -0.769
 -0.696  -0.689  -0.684  -0.679  -0.658  -0.650  -0.645  -0.638
 -0.627  -0.603  -0.592  -0.589  -0.576  -0.575  -0.562  -0.561
 -0.537  -0.530  -0.520  -0.518  -0.447  -0.438  -0.434
 -- Virtual --
 -0.282  -0.139  -0.135  -0.123  -0.082  -0.036  -0.002   0.012
  0.019   0.039   0.041   0.049   0.062   0.067   0.081   0.085
  0.088   0.096   0.099   0.108   0.114   0.124   0.135   0.139
  0.149   0.156   0.171   0.171   0.187   0.198   0.199   0.227
  0.229   0.236   0.260   0.292   0.323   0.342   0.359   0.363
  0.364   0.375   0.397   0.400   0.409   0.420   0.435   0.439
  0.440   0.450   0.466   0.468   0.474   0.479   0.479   0.481
  0.485   0.491   0.504   0.511   0.516   0.529   0.529   0.563
  0.575   0.601   0.612   0.615   0.645   0.649   0.660   0.661
  0.674   0.677   0.717   0.753   0.760   0.774   0.784   0.812
  0.828   0.834   0.838   0.851   0.852   0.856   0.882   0.884
  0.891   0.905   0.916   0.921   0.927   0.934   0.940   0.957
  0.969   0.979   0.982   0.986   1.000   1.008   1.029   1.061
  1.102   1.108   1.119   1.142   1.155   1.158   1.178   1.196
  1.204   1.248   1.266   1.282   1.315   1.324   1.338   1.363
  1.386   1.387   1.395   1.402   1.407   1.427   1.463   1.497
  1.508   1.558   1.583   1.597   1.663   1.667   1.686   1.688
  1.725   1.761   1.762   1.775   1.777   1.793   1.821   1.825
  1.832   1.895   1.913   1.948   1.971   1.973   1.985   1.994
  2.028   2.032   2.047   2.053   2.074   2.101   2.107   2.116
  2.124   2.147   2.177   2.194   2.201   2.203   2.221   2.256
  2.259   2.262   2.264   2.281   2.297   2.374   2.423   2.436
  2.481   2.486   2.531   2.544   2.547   2.552   2.593   2.605
  2.628   2.632   2.650   2.652   2.690   2.724   2.733   2.798
  2.829   2.835   2.893   3.003   3.244   3.376   3.390  13.073
 13.172  13.488  13.547  13.573  13.610  13.735  13.745  14.002
 14.020  14.047  14.078  14.145  14.414  14.422  19.255
 --------------------------------------------------------------
 
          Ground-State Mulliken Net Atomic Charges

     Atom                 Charge (a.u.)    Spin (a.u.)
  --------------------------------------------------------
      1 H                     0.410123      -0.018537
      2 N                    -0.710525       0.396541
      3 C                     0.343738      -0.069819
      4 C                     0.190657       0.228827
      5 C                    -0.251457      -0.037943
      6 C                    -0.294275      -0.153740
      7 H                     0.257287       0.007161
      8 C                    -0.184650       0.267531
      9 H                     0.278496      -0.014228
     10 C                    -0.227436      -0.127209
     11 H                     0.278443       0.005629
     12 C                    -0.280119       0.172987
     13 H                     0.264760      -0.009731
     14 C                     0.344547      -0.069680
     15 C                     0.191179       0.227952
     16 C                    -0.294581      -0.153309
     17 H                     0.257331       0.007144
     18 C                    -0.184778       0.267094
     19 H                     0.278477      -0.014209
     20 C                    -0.227468      -0.127094
     21 H                     0.278395       0.005625
     22 C                    -0.280612       0.172758
     23 H                     0.264655      -0.009721
     24 C                    -0.596876       0.023661
     25 C                    -0.597929       0.023115
     26 H                     0.250965      -0.000861
     27 H                     0.247628       0.000235
     28 H                     0.247554       0.000251
     29 H                     0.251484      -0.000816
     30 H                     0.247586       0.000198
     31 H                     0.247402       0.000191
  --------------------------------------------------------
  Sum of atomic charges =     1.000000
  Sum of spin   charges =     1.000000

 -----------------------------------------------------------------
                    Cartesian Multipole Moments
 -----------------------------------------------------------------
    Charge (ESU x 10^10)
                 4.8032
    Dipole Moment (Debye)
         X     -44.1686      Y     -41.0334      Z     -45.9369
       Tot      75.7945
    Quadrupole Moments (Debye-Ang)
        XX     351.6928     XY     371.6898     YY     264.6799
        XZ     416.2554     YZ     409.5320     ZZ     371.6112
    Octopole Moments (Debye-Ang^2)
       XXX   -2154.0125    XXY   -2884.1631    XYY   -2309.9027
       YYY    -747.2012    XXZ   -3220.0749    XYZ   -3657.9219
       YYZ   -2795.4816    XZZ   -3270.0641    YZZ   -3486.2682
       ZZZ   -2173.9820
    Hexadecapole Moments (Debye-Ang^3)
      XXXX    2052.3547   XXXY   16640.2071   XXYY   15360.2285
      XYYY    5182.6774   YYYY  -14373.0727   XXXZ   18393.2237
      XXYZ   27755.1327   XYYZ   24118.6325   YYYZ    9812.4091
      XXZZ   22642.7369   XYZZ   30258.7412   YYZZ   23763.7136
      XZZZ   17717.2139   YZZZ   22581.1870   ZZZZ   -1570.5698
 -----------------------------------------------------------------
 Calculating analytic gradient of the SCF energy
 -1.455732466689733E-004 -1.455876330711588E-004
 -1.455763815767395E-004 -1.455845109958851E-004
 -1.455728007976883E-004 -1.455880840125085E-004
 -1.455853750867638E-004 -1.455754974904271E-004
 -1.455832859276915E-004 -1.455776187592705E-004
 -1.455856878029127E-004 -1.455751958343892E-004
 -1.455899215315311E-004 -1.455709695725265E-004
 -1.455818943943371E-004 -1.455790174503742E-004
 -1.455838045007017E-004 -1.455770873434214E-004
 -1.455798634007092E-004 -1.455810320714728E-004
 -1.455801000097999E-004 -1.455808151343301E-004
 -1.455800761973820E-004 -1.455808251729635E-004
 -1.455730816497887E-004 -1.455878068156445E-004
 -1.455762645863482E-004 -1.455846393559929E-004
 -1.455726205370547E-004 -1.455882746979156E-004
 -1.455711395375401E-004 -1.455897493038662E-004
 -1.455780005559411E-004 -1.455829037768840E-004
 -1.455757678478798E-004 -1.455851211437822E-004
 -1.455827545230955E-004 -1.455781224877051E-004
 -1.455777735865534E-004 -1.455831141776210E-004
 -1.455760761611274E-004 -1.455848040260949E-004
 -1.455847070203023E-004 -1.455761721769879E-004
 -1.455798108415000E-004 -1.455810977809764E-004
 -1.455797369842179E-004 -1.455811612902662E-004
 -1.455858128381203E-004 -1.455750799119256E-004
 -1.455750792999217E-004 -1.455858178824270E-004
 -1.455716745878882E-004 -1.455892173728843E-004
 -1.455800714575158E-004 -1.455808274181215E-004
 -1.455743310063133E-004 -1.455865764324036E-004
 -1.455700300856227E-004 -1.455908601215391E-004
 -1.455853655037779E-004 -1.455755282111851E-004
 -1.455776972704181E-004 -1.455832086822223E-004
 -1.455760256092660E-004 -1.455848805129597E-004
 -1.455877542569718E-004 -1.455731217523435E-004
 -1.455791371216231E-004 -1.455817678126831E-004
 -1.455788355537767E-004 -1.455820571589804E-004
 -1.455817318722916E-004 -1.455791468703663E-004
 -1.455753771351181E-004 -1.455855168163419E-004
 -1.455718175920321E-004 -1.455890722385686E-004
 -1.455822808625692E-004 -1.455786023055042E-004
 -1.455853559706174E-004 -1.455755579729421E-004
 -1.455891450046562E-004 -1.455717526834957E-004
 -1.455800442593816E-004 -1.455808488590991E-004
 -1.455799907520182E-004 -1.455809249979329E-004
 -1.455799379693188E-004 -1.455809651614298E-004
 -1.455769672122421E-004 -1.455839128461322E-004
 -1.455753656204824E-004 -1.455855409759917E-004
 -1.455717007953456E-004 -1.455891946522954E-004
 -1.455749879610619E-004 -1.455858893708570E-004
 -1.455813547304804E-004 -1.455795329445304E-004
 -1.455814805692409E-004 -1.455793993383139E-004
 -1.455787232707475E-004 -1.455821716119352E-004
 -1.455825382952981E-004 -1.455783661391665E-004
 -1.455838993995440E-004 -1.455769873479343E-004
 -1.455693510334874E-004 -1.455915407010515E-004
 -1.455826357623342E-004 -1.455782617265568E-004
 -1.455831090461132E-004 -1.455777837049414E-004
 -1.455686314348325E-004 -1.455922525223572E-004
 -1.455795370333515E-004 -1.455813743168793E-004
 -1.455779521692000E-004 -1.455829490749371E-004
 -1.455744549594078E-004 -1.455864546631380E-004
 -1.455827009576572E-004 -1.455782008151318E-004
 -1.455836373961120E-004 -1.455772569428039E-004
 -1.455770509496486E-004 -1.455838365920721E-004
 -1.455840095913660E-004 -1.455768922451143E-004
 -1.455862904412568E-004 -1.455745937899317E-004
 -1.455703912473267E-004 -1.455904945536915E-004
 -1.455805733014565E-004 -1.455803187840243E-004
 -1.455797110730798E-004 -1.455811735467538E-004
 -1.455804921258111E-004 -1.455803892391194E-004
 -1.455909370730983E-004 -1.455699572069870E-004
 -1.455735910086018E-004 -1.455872829812764E-004
 -1.455794481737159E-004 -1.455814318106926E-004
 -1.455695365737573E-004 -1.455913430451293E-004
 -1.455861944753941E-004 -1.455746956817158E-004
 -1.455873525256630E-004 -1.455735257705712E-004
 -1.455914107081788E-004 -1.455694511273032E-004
 -1.455831885929477E-004 -1.455776829922056E-004
 -1.455878656854640E-004 -1.455730208630369E-004
 -1.455842626992964E-004 -1.455766231529127E-004
 -1.455853495697077E-004 -1.455755226268092E-004
 -1.455852189643349E-004 -1.455756596129625E-004
[...]
    2   0.0000082   0.0000582  -0.0000558   0.0000400  -0.0000002   0.0000209
    3  -0.0000084   0.0000719  -0.0000259   0.0000419  -0.0000062   0.0000260
           19          20          21          22          23          24
    1   0.0000275  -0.0000321   0.0000205   0.0000117  -0.0000159   0.0000456
    2   0.0000148   0.0000184   0.0000357   0.0000033   0.0000337  -0.0000259
    3   0.0000278   0.0000356   0.0000411  -0.0000089   0.0000308   0.0000452
           25          26          27          28          29          30
    1   0.0000409   0.0000062  -0.0000106   0.0000347   0.0000146   0.0000125
    2   0.0000507   0.0000069  -0.0000117  -0.0000238  -0.0000232  -0.0000253
    3  -0.0000095  -0.0000165  -0.0000172  -0.0000273   0.0000095  -0.0000032
           31
    1   0.0000006
    2  -0.0000341
    3  -0.0000177
 Max gradient component =       7.191E-05
 RMS gradient           =       3.173E-05
 Computing fast IEFPCM-SWIG gradient.
 Updating gradient with PCM contributions...
 -- total gradient after adding PCM contribution --
---------------------------------------------------
  Atom         X              Y              Z     
---------------------------------------------------
   1      -0.000001       0.000032       0.000032
   2      -0.000053      -0.000018      -0.000041
   3       0.000038       0.000034       0.000049
   4      -0.000065      -0.000007       0.000009
   5      -0.000050      -0.000044      -0.000056
   6       0.000032      -0.000022      -0.000041
   7      -0.000010      -0.000019      -0.000026
   8      -0.000026       0.000004       0.000003
   9      -0.000022      -0.000024      -0.000038
  10      -0.000020      -0.000032      -0.000054
  11      -0.000038      -0.000002      -0.000018
  12      -0.000065       0.000008      -0.000008
  13      -0.000035       0.000007      -0.000011
  14       0.000045       0.000059       0.000072
  15       0.000035      -0.000056      -0.000025
  16      -0.000005       0.000039       0.000041
  17       0.000032       0.000001      -0.000004
  18       0.000057       0.000020       0.000025
  19       0.000026       0.000016       0.000030
  20      -0.000032       0.000019       0.000036
  21       0.000017       0.000036       0.000041
  22       0.000014       0.000003      -0.000009
  23      -0.000018       0.000032       0.000028
  24       0.000044      -0.000023       0.000041
  25       0.000039       0.000046      -0.000009
  26       0.000005       0.000004      -0.000016
  27      -0.000008      -0.000012      -0.000017
  28       0.000034      -0.000023      -0.000025
  29       0.000014      -0.000022       0.000007
  30       0.000012      -0.000024      -0.000001
  31       0.000003      -0.000034      -0.000018
---------------------------------------------------
 Number of fixed atoms: 0
 Gradient time:  CPU 66.30 s  wall 23.73 s
 Geometry Optimization Parameters
   NAtoms,    NIC,     NZ,  NCons,   NDum,   NFix, NCnnct, MaxDiis
       31     238       0       0       0       0       0       0

 Cartesian Hessian Update
 Hessian Updated using BFGS Update


** GEOMETRY OPTIMIZATION IN DELOCALIZED INTERNAL COORDINATES **
   Searching for a Minimum

   Optimization Cycle:   5

                       Coordinates (Angstroms)
     ATOM                X               Y               Z
      1  H        -7.8207884795   -7.7542687982   -8.1095065664
      2  N        -8.4683540920   -8.1276631486   -8.7935171620
      3  C        -9.7945747282   -7.9314966245   -8.5684215875
      4  C       -10.7284898092   -8.4332379258   -9.4937616530
      5  C       -10.3054197382   -9.1821782113  -10.7391177955
      6  C       -12.0672415528   -8.2070966720   -9.2157434873
      7  H       -12.8260065724   -8.5724752689   -9.8945502028
      8  C       -12.4680508862   -7.5176834031   -8.0810601618
      9  H       -13.5220426174   -7.3600224036   -7.8980618485
     10  C       -11.5245140872   -7.0267328975   -7.1755153877
     11  H       -11.8429146855   -6.4900906278   -6.2932698310
     12  C       -10.1904214364   -7.2314402128   -7.4144463548
     13  H        -9.4446200092   -6.8586440116   -6.7225627843
     14  C        -7.9391071476   -8.7842602090   -9.8601899541
     15  C        -8.8011992148   -9.3173273001  -10.8359247630
     16  C        -8.2075590019   -9.9740590646  -11.9021828726
     17  H        -8.8252987571  -10.4017666123  -12.6804975666
     18  C        -6.8297942463  -10.1000351950  -12.0026403195
     19  H        -6.4026132839  -10.6188307886  -12.8496787072
     20  C        -5.9918468375   -9.5636341443  -11.0222300093
     21  H        -4.9192102808   -9.6645195812  -11.1054165207
     22  C        -6.5413322814   -8.9064233585   -9.9523763542
     23  H        -5.9077260169   -8.4826145719   -9.1822694500
     24  C       -10.8150654221   -8.4133934883  -11.9768872889
     25  C       -10.9324376002  -10.5915271947  -10.7099778260
     26  H       -10.3882851703   -7.4127127010  -12.0323142493
     27  H       -11.8999869855   -8.3176967088  -11.9544774979
     28  H       -10.5581472346   -8.9419127832  -12.8939993341
     29  H       -10.5946701121  -11.1632561879   -9.8466151478
     30  H       -10.6744853211  -11.1517263160  -11.6079639455
     31  H       -12.0192963917  -10.5313735889  -10.6717233705
   Point Group: c1    Number of degrees of freedom:    87


   Energy is   -633.759134873

 Hessian Updated using BFGS Update

 80 Hessian modes will be used to form the next step
  Hessian Eigenvalues:
     0.002592    0.002774    0.006121    0.012933    0.013160    0.015021
     0.016120    0.017625    0.018574    0.019084    0.021832    0.021915
     0.021934    0.021944    0.021994    0.022427    0.023136    0.023168
     0.023178    0.023310    0.023515    0.023523    0.052085    0.053342
     0.053506    0.053853    0.054027    0.054526    0.068285    0.134390
     0.138969    0.156780    0.159999    0.160000    0.160000    0.160213
     0.160842    0.165054    0.176477    0.216872    0.220000    0.225931
     0.227479    0.235335    0.244667    0.245534    0.250040    0.256513
     0.277953    0.288007    0.293792    0.324308    0.325126    0.327084
     0.327192    0.327934    0.332075    0.355778    0.355845    0.356730
     0.356850    0.356887    0.356950    0.358993    0.359210    0.376816
     0.381840    0.407381    0.409629    0.414685    0.421743    0.426611
     0.434109    0.438891    0.452369    0.457526    0.458771    0.468210
     0.468997    0.533908

 Minimum Search - Taking Simple RFO Step
 Searching for Lamda that Minimizes Along All modes
 Value Taken    Lamda =   0.00000000
 Step Taken.  Stepsize is  0.002246

                             Maximum     Tolerance    Cnvgd?
         Gradient           0.000066      0.000075     YES
         Displacement       0.001175      0.001200     YES
         Energy change     -0.000000      0.000000     YES

 Final energy is   -633.759134873478     


 ******************************
 **  OPTIMIZATION CONVERGED  **
 ******************************

                       Coordinates (Angstroms)
     ATOM                X               Y               Z
      1  H        -7.8207884795   -7.7542687982   -8.1095065664
      2  N        -8.4683540920   -8.1276631486   -8.7935171620
      3  C        -9.7945747282   -7.9314966245   -8.5684215875
      4  C       -10.7284898092   -8.4332379258   -9.4937616530
      5  C       -10.3054197382   -9.1821782113  -10.7391177955
      6  C       -12.0672415528   -8.2070966720   -9.2157434873
      7  H       -12.8260065724   -8.5724752689   -9.8945502028
      8  C       -12.4680508862   -7.5176834031   -8.0810601618
      9  H       -13.5220426174   -7.3600224036   -7.8980618485
     10  C       -11.5245140872   -7.0267328975   -7.1755153877
     11  H       -11.8429146855   -6.4900906278   -6.2932698310
     12  C       -10.1904214364   -7.2314402128   -7.4144463548
     13  H        -9.4446200092   -6.8586440116   -6.7225627843
     14  C        -7.9391071476   -8.7842602090   -9.8601899541
     15  C        -8.8011992148   -9.3173273001  -10.8359247630
     16  C        -8.2075590019   -9.9740590646  -11.9021828726
     17  H        -8.8252987571  -10.4017666123  -12.6804975666
     18  C        -6.8297942463  -10.1000351950  -12.0026403195
     19  H        -6.4026132839  -10.6188307886  -12.8496787072
     20  C        -5.9918468375   -9.5636341443  -11.0222300093
     21  H        -4.9192102808   -9.6645195812  -11.1054165207
     22  C        -6.5413322814   -8.9064233585   -9.9523763542
     23  H        -5.9077260169   -8.4826145719   -9.1822694500
     24  C       -10.8150654221   -8.4133934883  -11.9768872889
     25  C       -10.9324376002  -10.5915271947  -10.7099778260
     26  H       -10.3882851703   -7.4127127010  -12.0323142493
     27  H       -11.8999869855   -8.3176967088  -11.9544774979
     28  H       -10.5581472346   -8.9419127832  -12.8939993341
     29  H       -10.5946701121  -11.1632561879   -9.8466151478
     30  H       -10.6744853211  -11.1517263160  -11.6079639455
     31  H       -12.0192963917  -10.5313735889  -10.6717233705

Z-matrix Print:
$molecule
1 2
N 
H  1 1.013230
C  1 1.359415 2 117.293235
C  1 1.359784 2 117.306904 3 -179.957845 0
C  4 1.406128 1 118.703778 2 0.005482 0
H  5 1.083575 4 120.045550 1 0.057311 0
C  5 1.370565 4 119.430897 1 -179.907247 0
H  7 1.080577 5 120.187720 4 179.989693 0
C  7 1.396813 5 119.440790 4 0.031021 0
H  9 1.081252 7 119.808270 5 179.939348 0
C  9 1.387154 7 120.672686 5 -0.035021 0
H  11 1.081809 9 118.629991 7 179.977826 0
C  11 1.385861 9 121.615055 7 0.014305 0
C  3 1.406568 1 118.830660 2 -0.029935 0
H  14 1.083466 3 120.095006 1 -0.000000 0
C  14 1.370692 3 119.423033 1 -180.000000 0
H  16 1.080611 14 120.216136 3 -179.964225 0
C  16 1.396891 14 119.467498 3 0.059234 0
H  18 1.081316 16 119.830318 14 179.965627 0
C  18 1.386883 16 120.655584 14 -0.038732 0
H  20 1.081667 18 118.595630 16 -179.988084 0
C  20 1.385890 18 121.628545 16 -0.039591 0
C  13 1.513379 11 121.151093 9 179.802320 0
C  23 1.542811 13 108.879791 11 59.445062 0
H  24 1.089194 23 110.839695 13 -178.235649 0
H  24 1.089200 23 111.619459 13 61.210821 0
H  24 1.089377 23 110.974381 13 -59.392895 0
C  23 1.543646 13 108.744142 11 -59.957718 0
H  28 1.089236 23 110.830764 13 59.747509 0
H  28 1.089300 23 111.651608 13 -60.813956 0
H  28 1.089364 23 110.858779 13 178.601427 0
$end

 
 --------------------------------------------------------------
 
                    Orbital Energies (a.u.)
 --------------------------------------------------------------
 
 Alpha MOs
 -- Occupied --
-14.900 -10.666 -10.666 -10.625 -10.625 -10.623 -10.613 -10.613
-10.605 -10.605 -10.598 -10.598 -10.598 -10.598 -10.563 -10.563
 -1.286  -1.128  -1.121  -1.068  -1.021  -1.001  -0.978  -0.966
 -0.907  -0.890  -0.882  -0.836  -0.832  -0.780  -0.776  -0.773
 -0.700  -0.692  -0.690  -0.685  -0.680  -0.651  -0.646  -0.639
 -0.627  -0.617  -0.600  -0.590  -0.578  -0.576  -0.567  -0.563
 -0.551  -0.533  -0.532  -0.520  -0.461  -0.452  -0.444  -0.406
 -- Virtual --
 -0.153  -0.144  -0.131  -0.105  -0.041  -0.003   0.011   0.017
  0.034   0.038   0.039   0.060   0.066   0.079   0.084   0.087
  0.093   0.098   0.107   0.112   0.123   0.132   0.136   0.147
  0.155   0.169   0.169   0.186   0.198   0.198   0.227   0.227
  0.235   0.259   0.290   0.318   0.340   0.352   0.362   0.363
  0.372   0.396   0.398   0.403   0.419   0.432   0.432   0.437
  0.448   0.453   0.465   0.473   0.476   0.478   0.478   0.481
  0.488   0.502   0.512   0.513   0.521   0.527   0.559   0.568
  0.600   0.608   0.611   0.645   0.647   0.652   0.660   0.672
  0.673   0.710   0.751   0.758   0.774   0.779   0.813   0.817
  0.826   0.833   0.849   0.851   0.855   0.881   0.883   0.890
  0.906   0.914   0.919   0.926   0.929   0.938   0.955   0.968
  0.979   0.981   0.985   1.000   1.006   1.028   1.059   1.097
  1.105   1.118   1.134   1.150   1.157   1.176   1.193   1.202
  1.243   1.263   1.269   1.312   1.321   1.334   1.358   1.380
  1.385   1.393   1.399   1.404   1.423   1.460   1.495   1.503
  1.555   1.579   1.586   1.662   1.662   1.685   1.687   1.723
  1.751   1.760   1.772   1.773   1.783   1.819   1.824   1.828
  1.893   1.910   1.948   1.970   1.971   1.982   1.993   2.023
  2.029   2.045   2.048   2.073   2.095   2.103   2.113   2.121
  2.142   2.173   2.190   2.196   2.201   2.219   2.253   2.254
  2.258   2.263   2.270   2.291   2.365   2.421   2.433   2.478
  2.485   2.527   2.539   2.544   2.549   2.592   2.603   2.626
  2.627   2.648   2.651   2.687   2.719   2.732   2.795   2.827
  2.834   2.890   3.001   3.242   3.374   3.390  13.072  13.171
 13.487  13.545  13.573  13.608  13.734  13.745  14.002  14.020
 14.045  14.076  14.145  14.413  14.421  19.241
 
 Beta MOs
 -- Occupied --
-14.889 -10.667 -10.667 -10.623 -10.622 -10.622 -10.611 -10.611
-10.601 -10.601 -10.600 -10.600 -10.600 -10.600 -10.563 -10.562
 -1.269  -1.124  -1.114  -1.065  -1.018  -0.998  -0.975  -0.957
 -0.904  -0.888  -0.876  -0.833  -0.830  -0.778  -0.773  -0.769
 -0.696  -0.689  -0.684  -0.679  -0.658  -0.650  -0.645  -0.638
 -0.627  -0.602  -0.592  -0.589  -0.576  -0.575  -0.562  -0.561
 -0.537  -0.530  -0.520  -0.518  -0.447  -0.438  -0.434
 -- Virtual --
 -0.282  -0.139  -0.135  -0.123  -0.082  -0.037  -0.002   0.012
  0.019   0.038   0.041   0.049   0.062   0.067   0.081   0.085
  0.087   0.096   0.099   0.108   0.115   0.124   0.135   0.139
  0.149   0.156   0.171   0.171   0.187   0.198   0.199   0.227
  0.229   0.237   0.260   0.292   0.323   0.342   0.359   0.363
  0.364   0.375   0.397   0.400   0.409   0.420   0.435   0.439
  0.440   0.450   0.466   0.468   0.474   0.479   0.479   0.480
  0.485   0.491   0.504   0.511   0.516   0.529   0.529   0.563
  0.575   0.602   0.612   0.615   0.646   0.649   0.660   0.661
  0.674   0.677   0.717   0.753   0.761   0.774   0.784   0.812
  0.828   0.834   0.838   0.852   0.852   0.856   0.882   0.884
  0.891   0.905   0.915   0.920   0.927   0.934   0.940   0.957
  0.969   0.979   0.982   0.986   1.000   1.008   1.029   1.061
  1.102   1.108   1.119   1.142   1.155   1.158   1.178   1.196
  1.204   1.248   1.266   1.282   1.316   1.323   1.338   1.363
  1.386   1.388   1.395   1.402   1.407   1.428   1.463   1.497
  1.508   1.558   1.583   1.598   1.664   1.668   1.686   1.688
  1.725   1.761   1.762   1.775   1.776   1.793   1.822   1.826
  1.832   1.895   1.913   1.948   1.971   1.973   1.985   1.994
  2.028   2.032   2.047   2.053   2.074   2.100   2.108   2.117
  2.125   2.147   2.177   2.194   2.201   2.202   2.222   2.255
  2.259   2.262   2.264   2.280   2.297   2.373   2.423   2.435
  2.481   2.487   2.531   2.543   2.547   2.552   2.594   2.605
  2.628   2.632   2.650   2.652   2.690   2.724   2.734   2.798
  2.829   2.835   2.893   3.003   3.244   3.375   3.391  13.073
 13.173  13.488  13.547  13.573  13.611  13.735  13.745  14.003
 14.020  14.046  14.077  14.146  14.414  14.422  19.255
 --------------------------------------------------------------
 
          Ground-State Mulliken Net Atomic Charges

     Atom                 Charge (a.u.)    Spin (a.u.)
  --------------------------------------------------------
      1 H                     0.410129      -0.018527
      2 N                    -0.710873       0.395761
      3 C                     0.343881      -0.069742
      4 C                     0.191204       0.229521
      5 C                    -0.252663      -0.038183
      6 C                    -0.294287      -0.153712
      7 H                     0.257239       0.007156
      8 C                    -0.184757       0.267646
      9 H                     0.278524      -0.014237
     10 C                    -0.227851      -0.126675
     11 H                     0.278375       0.005605
     12 C                    -0.279445       0.171785
     13 H                     0.264538      -0.009679
     14 C                     0.344569      -0.069644
     15 C                     0.191726       0.228526
     16 C                    -0.294582      -0.153205
     17 H                     0.257272       0.007136
     18 C                    -0.184888       0.267016
     19 H                     0.278488      -0.014207
     20 C                    -0.227884      -0.126527
     21 H                     0.278324       0.005600
     22 C                    -0.279932       0.171522
     23 H                     0.264431      -0.009666
     24 C                    -0.596284       0.024034
     25 C                    -0.597189       0.023543
     26 H                     0.251005      -0.000866
     27 H                     0.247450       0.000224
     28 H                     0.247402       0.000242
     29 H                     0.251443      -0.000827
     30 H                     0.247421       0.000194
     31 H                     0.247216       0.000188
  --------------------------------------------------------
  Sum of atomic charges =     1.000000
  Sum of spin   charges =     1.000000

 -----------------------------------------------------------------
                    Cartesian Multipole Moments
 -----------------------------------------------------------------
    Charge (ESU x 10^10)
                 4.8032
    Dipole Moment (Debye)
         X     -44.1708      Y     -41.0369      Z     -45.9356
       Tot      75.7969
    Quadrupole Moments (Debye-Ang)
        XX     351.7161     XY     371.7449     YY     264.7263
        XZ     416.2901     YZ     409.5457     ZZ     371.5863
    Octopole Moments (Debye-Ang^2)
       XXX   -2154.2216    XXY   -2884.7272    XYY   -2310.5585
       YYY    -747.6609    XXZ   -3220.6377    XYZ   -3658.4715
       YYZ   -2795.6805    XZZ   -3270.4820    YZZ   -3486.2606
       ZZZ   -2173.6766
    Hexadecapole Moments (Debye-Ang^3)
      XXXX    2055.2348   XXXY   16645.5746   XXYY   15367.2895
      XYYY    5189.0680   YYYY  -14368.4476   XXXZ   18399.8295
      XXYZ   27762.4971   XYYZ   24124.2297   YYYZ    9814.1657
      XXZZ   22650.5585   XYZZ   30264.3979   YYZZ   23764.1295
      XZZZ   17721.5708   YZZZ   22580.6598   ZZZZ   -1573.5142
 -----------------------------------------------------------------
Archival summary:
1\1\ctcp005\OPT\ProcedureUnspecified\BasisUnspecified\11515(1+,2)\mewes1\MonDec311:25:242018MonDec311:25:242018\0\\#,OPT,ProcedureUnspecified,BasisUnspecified,\\1,2\N\H,1,1.01323\C,1,1.35942,2,117.293\C,1,1.35978,2,117.307,3,-179.958,0\C,4,1.40613,1,118.704,2,0.00548195,0\H,5,1.08358,4,120.046,1,0.0573114,0\C,5,1.37056,4,119.431,1,-179.907,0\H,7,1.08058,5,120.188,4,179.99,0\C,7,1.39681,5,119.441,4,0.0310212,0\H,9,1.08125,7,119.808,5,179.939,0\C,9,1.38715,7,120.673,5,-0.035021,0\H,11,1.08181,9,118.63,7,179.978,0\C,11,1.38586,9,121.615,7,0.0143048,0\C,3,1.40657,1,118.831,2,-0.0299355,0\H,14,1.08347,3,120.095,1,-0,0\C,14,1.37069,3,119.423,1,-180,0\H,16,1.08061,14,120.216,3,-179.964,0\C,16,1.39689,14,119.467,3,0.0592335,0\H,18,1.08132,16,119.83,14,179.966,0\C,18,1.38688,16,120.656,14,-0.0387321,0\H,20,1.08167,18,118.596,16,-179.988,0\C,20,1.38589,18,121.629,16,-0.0395915,0\C,13,1.51338,11,121.151,9,179.802,0\C,23,1.54281,13,108.88,11,59.4451,0\H,24,1.08919,23,110.84,13,-178.236,0\H,24,1.0892,23,111.619,13,61.2108,0\H,24,1.08938,23,110.974,13,-59.3929,0\C,23,1.54365,13,108.744,11,-59.9577,0\H,28,1.08924,23,110.831,13,59.7475,0\H,28,1.0893,23,111.652,13,-60.814,0\H,28,1.08936,23,110.859,13,178.601,0\\\@

 Total job time:  782.81s(wall), 2855.34s(cpu) 
 Mon Dec  3 11:25:24 2018

        *************************************************************
        *                                                           *
        *  Thank you very much for using Q-Chem.  Have a nice day.  *
        *                                                           *
        *************************************************************


0 sent ACK to 0 
now end server 0 ... 
