mFile = /cm/shared/apps/q-chem/intel/QCHEM_5.1.0_Trunk/bin/mpi/machines
Process 0 of 1 is on ctcp005 - thread support 0
initial socket setup ...start
initial socket setup ...done 
now start server 0 ... 
Q-Chem Developer Version!
                  Welcome to Q-Chem
     A Quantum Leap Into The Future Of Chemistry


 Q-Chem 5.1, Q-Chem, Inc., Pleasanton, CA (2018)

 Yihan Shao,  Zhengting Gan,  E. Epifanovsky,  A. T. B. Gilbert,  M. Wormit,  
 J. Kussmann,  A. W. Lange,  A. Behn,  Jia Deng,  Xintian Feng,  D. Ghosh,  
 M. Goldey,  P. R. Horn,  L. D. Jacobson,  I. Kaliman,  T. Kus,  A. Landau,  
 Jie Liu,  E. I. Proynov,  R. M. Richard,  R. P. Steele,  E. J. Sundstrom,  
 H. L. Woodcock III,  P. M. Zimmerman,  D. Zuev,  B. Albrecht,  E. Alguire,  
 S. A. Baeppler,  D. Barton,  Z. Benda,  Y. A. Bernard,  E. J. Berquist,  
 K. B. Bravaya,  H. Burton,  D. Casanova,  Chun-Min Chang,  Yunqing Chen,  
 A. Chien,  K. D. Closser,  M. P. Coons,  S. Coriani,  S. Dasgupta,  
 A. L. Dempwolff,  M. Diedenhofen,  Hainam Do,  R. G. Edgar,  Po-Tung Fang,  
 S. Faraji,  S. Fatehi,  Qingguo Feng,  K. D. Fenk,  J. Fosso-Tande,  
 Qinghui Ge,  A. Ghysels,  G. Gidofalvi,  J. Gomes,  J. Gonthier,  A. Gunina,  
 D. Hait,  M. W. D. Hanson-Heine,  P. H. P. Harbach,  A. W. Hauser,  
 J. E. Herr,  E. G. Hohenstein,  Z. C. Holden,  Kerwin Hui,  B. C. Huynh,  
 T.-C. Jagau,  Hyunjun Ji,  B. Kaduk,  K. Khistyaev,  Jaehoon Kim,  
 P. Klunzinger,  K. Koh,  D. Kosenkov,  L. Koulias,  T. Kowalczyk,  
 C. M. Krauter,  A. Kunitsa,  Ka Un Lao,  A. Laurent,  K. V. Lawler,  
 Joonho Lee,  D. Lefrancois,  S. Lehtola,  D. S. Levine,  Yi-Pei Li,  
 You-Sheng Lin,  Fenglai Liu,  E. Livshits,  A. Luenser,  P. Manohar,  
 E. Mansoor,  S. F. Manzer,  Shan-Ping Mao,  Yuezhi Mao,  N. Mardirossian,  
 A. V. Marenich,  T. Markovich,  L. A. Martinez-Martinez,  S. A. Maurer,  
 N. J. Mayhall,  S. C. McKenzie,  J.-M. Mewes,  A. F. Morrison,  
 J. W. Mullinax,  K. Nanda,  T. S. Nguyen-Beck,  R. Olivares-Amaya,  
 J. A. Parkhill,  T. M. Perrine,  F. Plasser,  P. Pokhilko,  S. Prager,  
 A. Prociuk,  E. Ramos,  D. R. Rehn,  F. Rob,  M. Schneider,  N. Sergueev,  
 S. M. Sharada,  S. Sharma,  D. W. Small,  T. Stauch,  T. Stein,  
 Yu-Chuan Su,  A. J. W. Thom,  A. Tkatchenko,  T. Tsuchimochi,  N. M. Tubman,  
 L. Vogt,  M. L. Vidal,  O. Vydrov,  M. A. Watson,  J. Wenzel,  
 M. de Wergifosse,  T. A. Wesolowski,  A. White,  J. Witte,  A. Yamada,  
 Jun Yang,  K. Yao,  S. Yeganeh,  S. R. Yost,  Zhi-Qiang You,  A. Zech,  
 Igor Ying Zhang,  Xing Zhang,  Yan Zhao,  Ying Zhu,  B. R. Brooks,  
 G. K. L. Chan,  C. J. Cramer,  M. S. Gordon,  W. J. Hehre,  A. Klamt,  
 M. W. Schmidt,  C. D. Sherrill,  D. G. Truhlar,  A. Aspuru-Guzik,  R. Baer,  
 A. T. Bell,  N. A. Besley,  Jeng-Da Chai,  A. E. DePrince, III,  
 R. A. DiStasio Jr.,  A. Dreuw,  B. D. Dunietz,  T. R. Furlani,  
 Chao-Ping Hsu,  Yousung Jung,  Jing Kong,  D. S. Lambrecht,  WanZhen Liang,  
 C. Ochsenfeld,  V. A. Rassolov,  L. V. Slipchenko,  J. E. Subotnik,  
 T. Van Voorhis,  J. M. Herbert,  A. I. Krylov,  P. M. W. Gill,  M. Head-Gordon

 Contributors to earlier versions of Q-Chem not listed above: 
 R. D. Adamson,  B. Austin,  J. Baker,  G. J. O. Beran,  K. Brandhorst,  
 S. T. Brown,  E. F. C. Byrd,  A. K. Chakraborty,  C.-L. Cheng,  
 Siu Hung Chien,  D. M. Chipman,  D. L. Crittenden,  H. Dachsel,  
 R. J. Doerksen,  A. D. Dutoi,  L. Fusti-Molnar,  W. A. Goddard III,  
 A. Golubeva-Zadorozhnaya,  S. R. Gwaltney,  G. Hawkins,  A. Heyden,  
 S. Hirata,  G. Kedziora,  F. J. Keil,  C. Kelley,  Jihan Kim,  R. A. King,  
 R. Z. Khaliullin,  P. P. Korambath,  W. Kurlancheek,  A. M. Lee,  M. S. Lee,  
 S. V. Levchenko,  Ching Yeh Lin,  D. Liotard,  R. C. Lochan,  I. Lotan,  
 P. E. Maslen,  N. Nair,  D. P. O'Neill,  D. Neuhauser,  E. Neuscamman,  
 C. M. Oana,  R. Olson,  B. Peters,  R. Peverati,  P. A. Pieniazek,  
 Y. M. Rhee,  J. Ritchie,  M. A. Rohrdanz,  E. Rosta,  N. J. Russ,  
 H. F. Schaefer III,  N. E. Schultz,  N. Shenvi,  A. C. Simmonett,  A. Sodt,  
 D. Stuck,  K. S. Thanthiriwatte,  V. Vanovschi,  Tao Wang,  A. Warshel,  
 C. F. Williams,  Q. Wu,  X. Xu,  W. Zhang

 Please cite Q-Chem as follows:
 Y. Shao et al., Mol. Phys. 113, 184-215 (2015)
 DOI: 10.1080/00268976.2014.952696

 Q-Chem 5.1.1 for Intel X86 EM64T Linux

 Parts of Q-Chem use Armadillo 8.300.2 (Tropical Shenanigans).
 http://arma.sourceforge.net/

 Q-Chem begins on Mon Dec  3 10:45:20 2018  

Host: ctcp005
0

     Scratch files written to /scratch/mewes1/141122/qchem5164//
 Parallel job on  1  processors
The previous job contains 0 fragments, simply inherited here
Symmetry turned off for PCM/SM12/SMD calculation
Input Ideriv = 2
Curr. Ideriv = -1
Max.  Ideriv = 2
Input Ideriv = 2
Curr. Ideriv = 2
Max.  Ideriv = 2

Checking the input file for inconsistencies... 	...done.

--------------------------------------------------------------
User input:
--------------------------------------------------------------
$rem
threads 4
jobtype opt
method PBEh-3c
basis def2-mSVP
mem_static      1024
mem_total       4000
sym_ignore      true
unrestricted true
scf_algorithm	diis
scf_max_cycles	250
solvent_method  pcm
geom_opt_tol_energy 25
geom_opt_tol_gradient 75
$end

$pcm
theory  iefpcm
$end

$solvent
dielectric      2.38
$end

$molecule
read ACR_kat.mol
$end
--------------------------------------------------------------
 Adding empirical dispersion correction 
 ----------------------------------------------------------------
 Doing -D3(BJ) with
 s6 =   1.00000
 s8 =   0.00000
 a1 =   0.48600
 a2 =   4.50000
 -D3 energy including 3body term =     -0.0232197342 hartrees
 ----------------------------------------------------------------
 Adding gCP correction 
 ----------------------------------------------------------------
 gCP energy =      0.0419069612 hartrees
 ----------------------------------------------------------------
             Standard Nuclear Orientation (Angstroms)
    I     Atom           X                Y                Z
 ----------------------------------------------------------------
    1      H      -7.7388000000    -7.6905000000    -8.0313000000
    2      N      -8.3992000000    -8.0771000000    -8.7262000000
    3      C      -9.7943000000    -7.9003000000    -8.5259000000
    4      C     -10.7285000000    -8.4096000000    -9.4584000000
    5      C     -10.2830000000    -9.1665000000   -10.7167000000
    6      C     -12.1067000000    -8.2087000000    -9.2160000000
    7      H     -12.8501000000    -8.5826000000    -9.9056000000
    8      C     -12.5442000000    -7.5258000000    -8.0848000000
    9      H     -13.6049000000    -7.3851000000    -7.9197000000
   10      C     -11.6217000000    -7.0260000000    -7.1711000000
   11      H     -11.9708000000    -6.4954000000    -6.2944000000
   12      C     -10.2536000000    -7.2096000000    -7.3868000000
   13      H      -9.5509000000    -6.8127000000    -6.6640000000
   14      C      -7.8868000000    -8.7746000000    -9.8526000000
   15      C      -8.7594000000    -9.3116000000   -10.8284000000
   16      C      -8.2025000000    -9.9967000000   -11.9324000000
   17      H      -8.8368000000   -10.4196000000   -12.6983000000
   18      C      -6.8249000000   -10.1467000000   -12.0631000000
   19      H      -6.4214000000   -10.6769000000   -12.9165000000
   20      C      -5.9707000000    -9.6172000000   -11.1009000000
   21      H      -4.9006000000    -9.7383000000   -11.2108000000
   22      C      -6.4945000000    -8.9334000000   -10.0007000000
   23      H      -5.8131000000    -8.5277000000    -9.2625000000
   24      C     -10.7905000000    -8.3904000000   -11.9568000000
   25      C     -10.9103000000   -10.5834000000   -10.6857000000
   26      H     -10.3405000000    -7.3742000000   -11.9845000000
   27      H     -11.8940000000    -8.2803000000   -11.9523000000
   28      H     -10.5330000000    -8.9092000000   -12.9025000000
   29      H     -10.5499000000   -11.1470000000    -9.7982000000
   30      H     -10.6581000000   -11.1678000000   -11.5937000000
   31      H     -12.0178000000   -10.5452000000   -10.6461000000
 ----------------------------------------------------------------
 Nuclear Repulsion Energy =  1045.5284510487 hartrees
 There are       56 alpha and       55 beta electrons
 Requested basis set is def2-mSVP
 There are 142 shells and 270 basis functions

 Total QAlloc Memory Limit   4000 MB
 Mega-Array Size      1001 MB
 MEM_STATIC part      1024 MB
 Discretize the solute cavity surface with Lebedev spheres
	Using 302 Lebedev grid points for each H atom
	Using 302 Lebedev grid points for other atoms
	Atomic van der Waals radii will be scaled by 1.20
 Remove points where switching function is < 1.0e-08
 Keep 3463 surface tesserae and discard 5899 interior tesserae
 Molecular Surface Area = 254.433 Angst**2
 A cutoff of  1.0D-11 yielded   7804 shell pairs
 There are     29448 function pairs (     32822 Cartesian)
 
 -------------------------------------------------------
 OpenMP Integral Computing Module                       
 Release: version 1.0, May 2013, Q-Chem Inc. Pittsburgh 
 -------------------------------------------------------
 Integral Job Info:
 Integral job number is                      11
 Integral operator is                         1
 short-range coefficients                     0
 long-range coefficients              100000000
 Omega coefficients                           0
 if combine SR and LR in K                    0
 Integral screening is                        0
 Integral computing path is                   2
 max size of driver memory is            800000
 size of driver memory is                593474
 size of scratch memory is              1809772
 max col of scratch BK array               1296
 max len of scratch array in speh3          155
 max len of scratch index in speh4           18
 max int batch size is                      520
 min int batch size is                       52
 fixed nKL is                                52
 max L of basis functions is                  2
 order of int derivative is                   0
 number of shells is                        142
 number of basis is                         286
 number of cartesian basis is               286
 number of contracted shell pairs          7804
 number of primitive shell pairs          18093
 maxK2 (contraction) of shell pair           25
 max number of K2 of shell pair               1
 max number of CS2 of shell pair           1899
 max number of PS2 of shell pair           3375
 mem total for path MDJ                  587100
 -------------------------------------------------------
 Smallest overlap matrix eigenvalue = 3.72E-04

 Scale SEOQF with 1.000000e-02/1.000000e-02/1.000000e-02

 Standard Electronic Orientation quadrupole field applied
 Nucleus-field energy     =    -0.0000000210 hartrees
 Guess from superposition of atomic densities
 Warning:  Energy on first SCF cycle will be non-variational
 SAD guess density has 112.000000 electrons

 -----------------------------------------------------------------------
  General SCF calculation program by
  Eric Jon Sundstrom, Paul Horn, Yuezhi Mao, Dmitri Zuev, Alec White,
  David Stuck, Shaama M.S., Shane Yost, Joonho Lee, David Small,
  Daniel Levine, Susi Lehtola, Hugh Burton, Evgeny Epifanovsky
 -----------------------------------------------------------------------
 Exchange:     0.4200 Hartree-Fock + 0.5800 PBEh-3c
 Correlation:  1.0000 PBEh-3c
 Using SG-1 standard quadrature grid
 Dispersion:   Grimme D3
 using 4 threads for integral computing
 -------------------------------------------------------
 OpenMP Integral computing Module                
 Release: version 2.0, May 2017, Q-Chem Inc. Pleasanton 
 -------------------------------------------------------
 -------------------------------------------------------
 OpenMP BLAS3 based DFT computing Module                
 Release: version 1.0, May 2013, Q-Chem Inc. Pittsburgh 
 -------------------------------------------------------
 A unrestricted SCF calculation will be
 performed using DIIS
 SCF converges when DIIS error is below 1.0e-08
 ---------------------------------------
  Cycle       Energy         DIIS error
 ---------------------------------------
 Using non-symmetric K matrix
    1    -638.5899465534      2.49e-02  
    2    -633.6500915937      1.79e-03  
    3    -633.6237129894      2.07e-03  
    4    -633.7808796980      4.11e-04  
    5    -633.7869402379      1.54e-04  
    6    -633.7881480368      5.57e-05  
    7    -633.7883846052      3.16e-05  
    8    -633.7885917334      1.83e-05  
    9    -633.7886903329      1.12e-05  
   10    -633.7887280851      5.77e-06  
   11    -633.7887405608      3.45e-06  
   12    -633.7887437975      1.46e-06  
   13    -633.7887442736      7.82e-07  
   14    -633.7887443249      2.85e-07  
   15    -633.7887443357      7.75e-08  
   16    -633.7887443368      2.73e-08  
   17    -633.7887443369      1.33e-08  
   18    -633.7887443369      4.93e-09  Convergence criterion met
 ---------------------------------------
 SCF time:   CPU 679.34s  wall 178.00s 
<S^2> =          0.811068156

************** Final PCM Free Energy Summary **************
 G_electrostatic  =      -0.04437393 hartree =     -27.84505851 kcal/mol
 G_cavitation     =       0.00000000 hartree =       0.00000000 kcal/mol
 G_dispersion     =       0.00000000 hartree =       0.00000000 kcal/mol
 G_repulsion      =       0.00000000 hartree =       0.00000000 kcal/mol
 --------------------------------------------------
 Non-electrostatic Free Energy =       0.00000000 hartree =       0.00000000 kcal/mol
 Total                         =      -0.04437393 hartree =     -27.84505851 kcal/mol
 --------------------------------------------------
 SCF Energy (H0 + V/2)                       =    -633.78874434 
 Solute Internal Energy (H0)                 =    -633.74437041 
 Total Free Energy (H0 + V/2 + non-elec)     =    -633.78874434 hartree
                                             = -397708.43968460 kcal/mol
***********************************************************

 SCF   energy in the final basis set =     -633.7887443369
 Total energy in the final basis set =     -633.7887443369
 
 --------------------------------------------------------------
 
                    Orbital Energies (a.u.)
 --------------------------------------------------------------
 
 Alpha MOs
 -- Occupied --
-14.832 -10.598 -10.598 -10.558 -10.558 -10.552 -10.542 -10.541
-10.531 -10.531 -10.527 -10.527 -10.526 -10.526 -10.496 -10.496
 -1.180  -1.045  -1.039  -0.987  -0.939  -0.919  -0.901  -0.886
 -0.827  -0.805  -0.793  -0.757  -0.755  -0.697  -0.696  -0.693
 -0.622  -0.615  -0.606  -0.603  -0.598  -0.575  -0.571  -0.560
 -0.547  -0.539  -0.521  -0.514  -0.503  -0.497  -0.488  -0.487
 -0.475  -0.454  -0.453  -0.445  -0.388  -0.372  -0.365  -0.341
 -- Virtual --
 -0.077  -0.074  -0.062  -0.038   0.041   0.068   0.084   0.086
  0.103   0.108   0.110   0.131   0.133   0.150   0.153   0.157
  0.158   0.167   0.170   0.178   0.186   0.195   0.203   0.208
  0.224   0.234   0.239   0.260   0.265   0.266   0.293   0.297
  0.304   0.345   0.349   0.371   0.413   0.430   0.438   0.439
  0.447   0.465   0.475   0.475   0.497   0.501   0.507   0.517
  0.521   0.525   0.527   0.541   0.545   0.545   0.551   0.553
  0.558   0.561   0.574   0.586   0.593   0.594   0.618   0.642
  0.663   0.677   0.680   0.720   0.721   0.724   0.727   0.745
  0.748   0.774   0.815   0.834   0.845   0.854   0.876   0.886
  0.900   0.906   0.916   0.923   0.928   0.952   0.957   0.957
  0.977   0.980   0.985   0.987   0.993   1.003   1.019   1.038
  1.038   1.047   1.055   1.072   1.072   1.092   1.118   1.167
  1.176   1.180   1.214   1.221   1.224   1.240   1.260   1.281
  1.319   1.326   1.335   1.378   1.393   1.408   1.430   1.454
  1.473   1.473   1.477   1.481   1.487   1.522   1.556   1.571
  1.631   1.657   1.663   1.707   1.737   1.751   1.760   1.788
  1.811   1.814   1.818   1.839   1.847   1.888   1.889   1.898
  1.933   1.948   1.990   2.016   2.023   2.036   2.063   2.085
  2.089   2.097   2.098   2.126   2.151   2.166   2.171   2.174
  2.207   2.240   2.244   2.257   2.267   2.275   2.288   2.301
  2.305   2.310   2.327   2.344   2.390   2.481   2.491   2.518
  2.556   2.590   2.591   2.607   2.613   2.656   2.659   2.669
  2.674   2.698   2.699   2.746   2.762   2.791   2.850   2.862
  2.872   2.938   3.018   3.256   3.373   3.420  13.136  13.236
 13.544  13.594  13.631  13.656  13.789  13.801  14.035  14.053
 14.088  14.116  14.170  14.445  14.453  19.290
 
 Beta MOs
 -- Occupied --
-14.820 -10.599 -10.599 -10.555 -10.555 -10.553 -10.539 -10.539
-10.529 -10.529 -10.528 -10.528 -10.527 -10.527 -10.495 -10.495
 -1.160  -1.041  -1.031  -0.983  -0.935  -0.916  -0.895  -0.880
 -0.824  -0.804  -0.788  -0.755  -0.751  -0.694  -0.693  -0.689
 -0.619  -0.612  -0.605  -0.602  -0.573  -0.570  -0.567  -0.560
 -0.546  -0.520  -0.513  -0.513  -0.501  -0.496  -0.487  -0.482
 -0.456  -0.451  -0.443  -0.442  -0.368  -0.362  -0.359
 -- Virtual --
 -0.213  -0.065  -0.065  -0.054  -0.014   0.047   0.069   0.085
  0.087   0.109   0.111   0.118   0.133   0.134   0.151   0.155
  0.158   0.161   0.169   0.172   0.180   0.187   0.198   0.205
  0.210   0.224   0.236   0.240   0.261   0.265   0.267   0.294
  0.298   0.305   0.346   0.351   0.375   0.415   0.436   0.439
  0.440   0.449   0.466   0.477   0.480   0.498   0.504   0.515
  0.519   0.523   0.529   0.537   0.542   0.545   0.549   0.550
  0.556   0.563   0.564   0.575   0.585   0.596   0.601   0.622
  0.649   0.664   0.679   0.689   0.720   0.722   0.728   0.730
  0.749   0.751   0.780   0.817   0.836   0.845   0.858   0.885
  0.901   0.902   0.908   0.920   0.923   0.929   0.953   0.958
  0.958   0.979   0.979   0.986   0.988   0.997   1.005   1.020
  1.039   1.039   1.047   1.056   1.073   1.074   1.093   1.120
  1.170   1.181   1.181   1.219   1.226   1.228   1.241   1.263
  1.282   1.325   1.328   1.349   1.381   1.394   1.412   1.434
  1.458   1.475   1.476   1.479   1.483   1.492   1.526   1.560
  1.573   1.634   1.661   1.679   1.709   1.740   1.753   1.762
  1.791   1.815   1.821   1.825   1.841   1.857   1.890   1.891
  1.903   1.934   1.951   1.990   2.019   2.024   2.040   2.064
  2.089   2.093   2.100   2.101   2.128   2.156   2.170   2.174
  2.179   2.211   2.243   2.245   2.261   2.272   2.278   2.292
  2.303   2.308   2.323   2.327   2.350   2.399   2.483   2.493
  2.520   2.559   2.593   2.594   2.610   2.617   2.657   2.664
  2.671   2.675   2.700   2.701   2.748   2.765   2.794   2.852
  2.863   2.875   2.942   3.020   3.257   3.374   3.421  13.137
 13.237  13.546  13.596  13.632  13.657  13.790  13.800  14.036
 14.054  14.089  14.117  14.170  14.446  14.454  19.306
 --------------------------------------------------------------
 
          Ground-State Mulliken Net Atomic Charges

     Atom                 Charge (a.u.)    Spin (a.u.)
  --------------------------------------------------------
      1 H                     0.439578      -0.021139
      2 N                    -0.720465       0.471261
      3 C                     0.333744      -0.076994
      4 C                     0.170082       0.225471
      5 C                    -0.230581      -0.038389
      6 C                    -0.283366      -0.150639
      7 H                     0.269844       0.006956
      8 C                    -0.193138       0.238512
      9 H                     0.282550      -0.012581
     10 C                    -0.231022      -0.124672
     11 H                     0.281338       0.005562
     12 C                    -0.284026       0.171152
     13 H                     0.279222      -0.009611
     14 C                     0.333669      -0.076932
     15 C                     0.170217       0.225508
     16 C                    -0.283594      -0.150654
     17 H                     0.270213       0.006956
     18 C                    -0.193256       0.238551
     19 H                     0.282533      -0.012585
     20 C                    -0.230759      -0.124707
     21 H                     0.281328       0.005562
     22 C                    -0.284062       0.171178
     23 H                     0.279366      -0.009612
     24 C                    -0.606259       0.021320
     25 C                    -0.607944       0.020891
     26 H                     0.244779      -0.000809
     27 H                     0.246156       0.000338
     28 H                     0.246135       0.000343
     29 H                     0.245451      -0.000762
     30 H                     0.246066       0.000264
     31 H                     0.246200       0.000265
  --------------------------------------------------------
  Sum of atomic charges =     1.000000
  Sum of spin   charges =     1.000000

 -----------------------------------------------------------------
                    Cartesian Multipole Moments
 -----------------------------------------------------------------
    Charge (ESU x 10^10)
                 4.8032
    Dipole Moment (Debye)
         X     -43.8096      Y     -40.8271      Z     -45.5616
       Tot      75.2462
    Quadrupole Moments (Debye-Ang)
        XX     345.4945     XY     367.1039     YY     260.5298
        XZ     410.0305     YZ     405.1799     ZZ     364.5933
    Octopole Moments (Debye-Ang^2)
       XXX   -2075.9770    XXY   -2820.0031    XYY   -2250.2803
       YYY    -685.4990    XXZ   -3139.3913    XYZ   -3596.6550
       YYZ   -2742.6333    XZZ   -3183.1437    YZZ   -3424.1573
       ZZZ   -2074.8310
    Hexadecapole Moments (Debye-Ang^3)
      XXXX    1171.5393   XXXY   15902.0359   XXYY   14616.6270
      XYYY    4446.8010   YYYY  -15201.8880   XXXZ   17494.4005
      XXYZ   27009.8621   XYYZ   23462.5613   YYYZ    9164.2374
      XXZZ   21627.6446   XYZZ   29511.3544   YYZZ   23156.3692
      XZZZ   16633.1210   YZZZ   21807.9123   ZZZZ   -2850.6564
 -----------------------------------------------------------------
 Calculating analytic gradient of the SCF energy
 -1.436014286405492E-004 -1.436165750805414E-004
 -1.436047376269640E-004 -1.436132775202403E-004
 -1.436009288450017E-004 -1.436170798082092E-004
 -1.436126513703034E-004 -1.436053452239162E-004
 -1.436112468019803E-004 -1.436067798116975E-004
 -1.436127841716026E-004 -1.436052226324939E-004
 -1.436184921563681E-004 -1.435995208800356E-004
 -1.436102994651300E-004 -1.436077348072898E-004
 -1.436119262422644E-004 -1.436060875419068E-004
 -1.436093295923970E-004 -1.436086875559108E-004
 -1.436087856481292E-004 -1.436092523990527E-004
 -1.436087217298464E-004 -1.436093022807312E-004
 -1.436020509118219E-004 -1.436159602153949E-004
 -1.436051216233088E-004 -1.436129052124900E-004
 -1.436015697367797E-004 -1.436164483298252E-004
 -1.435999832061730E-004 -1.436180280000067E-004
 -1.436062162429604E-004 -1.436118108457386E-004
 -1.436037820984090E-004 -1.436142295799597E-004
 -1.436112846463551E-004 -1.436067150359144E-004
 -1.436062626351416E-004 -1.436117475588269E-004
 -1.436044866893583E-004 -1.436135159418967E-004
 -1.436135046263721E-004 -1.436044962474699E-004
 -1.436087638403201E-004 -1.436092676251839E-004
 -1.436090659068480E-004 -1.436089552068199E-004
 -1.436138597244534E-004 -1.436041549756057E-004
 -1.436038146897777E-004 -1.436142054315933E-004
 -1.436005888354981E-004 -1.436174260243957E-004
 -1.436087645193801E-004 -1.436092574260425E-004
 -1.436030126436179E-004 -1.436150173459684E-004
 -1.435989478433351E-004 -1.436190639425695E-004
 -1.436140436425310E-004 -1.436039744290523E-004
 -1.436064295678818E-004 -1.436115989925230E-004
 -1.436050171634448E-004 -1.436130107351111E-004
 -1.436159207578009E-004 -1.436020792390285E-004
 -1.436079600586452E-004 -1.436100685342022E-004
 -1.436078786896915E-004 -1.436101387278763E-004
 -1.436108127108207E-004 -1.436071892590869E-004
 -1.436037821642432E-004 -1.436142346168320E-004
 -1.436002532795804E-004 -1.436177595506325E-004
 -1.436103804738944E-004 -1.436076244777444E-004
 -1.436140320587872E-004 -1.436040042616148E-004
 -1.436175609727850E-004 -1.436004588289010E-004
 -1.436085827831313E-004 -1.436094329209950E-004
 -1.436091493221744E-004 -1.436088890000642E-004
 -1.436092229919966E-004 -1.436088021807677E-004
 -1.436048281337966E-004 -1.436131748124566E-004
 -1.436040369756131E-004 -1.436139921370765E-004
 -1.436003926771224E-004 -1.436176252338728E-004
 -1.436033961346842E-004 -1.436146035717138E-004
 -1.436098909073057E-004 -1.436081192419529E-004
 -1.436099641122294E-004 -1.436080385501459E-004
 -1.436081105888548E-004 -1.436099074785249E-004
 -1.436112470842398E-004 -1.436067795508957E-004
 -1.436128154783515E-004 -1.436051932820599E-004
 -1.435983977414198E-004 -1.436196169414196E-004
 -1.436108968691571E-004 -1.436071231263859E-004
 -1.436113432102257E-004 -1.436066717814559E-004
 -1.435975341752386E-004 -1.436204705691691E-004
 -1.436081606405264E-004 -1.436098736597643E-004
 -1.436067491259698E-004 -1.436112755409130E-004
 -1.436034262427060E-004 -1.436146051164341E-004
 -1.436112701230449E-004 -1.436067548502829E-004
 -1.436124196701293E-004 -1.436055985207904E-004
 -1.436062528200547E-004 -1.436117607621152E-004
 -1.436123884460805E-004 -1.436056363873327E-004
 -1.436145968414471E-004 -1.436034107695001E-004
 -1.435986592093409E-004 -1.436193499822540E-004
 -1.436093380090588E-004 -1.436086767869120E-004
 -1.436087152820023E-004 -1.436092923110771E-004
 -1.436093147621059E-004 -1.436086896339462E-004
 -1.436196496758747E-004 -1.435983672202210E-004
 -1.436024232053802E-004 -1.436155743065474E-004
 -1.436082453589912E-004 -1.436097577055797E-004
 -1.435981853086779E-004 -1.436198175824377E-004
 -1.436150404888729E-004 -1.436029726099116E-004
 -1.436157426569589E-004 -1.436022581876672E-004
 -1.436195120568278E-004 -1.435984716738548E-004
 -1.436117816395348E-004 -1.436062132428864E-004
 -1.436159833774884E-004 -1.436020258364752E-004
 -1.436127016524072E-004 -1.436053068323708E-004
 -1.436136713553268E-004 -1.436043237627896E-004
 -1.436135926030385E-004 -1.436044089029284E-004
 -1.436137694887750E-004 -1.436042396401766E-004
 -1.436153771796729E-004 -1.436026249919932E-004
 -1.436151714347088E-004 -1.436028293857871E-004
 -1.436059121269535E-004 -1.436120710747047E-004
 -1.436199125362752E-004 -1.435980827000341E-004
 -1.436134884545970E-004 -1.436045119069757E-004
 -1.436119155323733E-004 -1.436060856761073E-004
 -1.436164484563115E-004 -1.436015628543051E-004
 -1.436158933820586E-004 -1.436021150548321E-004
 -1.436108089118038E-004 -1.436071887882190E-004
 -1.436147910466434E-004 -1.436032157130809E-004
 Gradient of SCF Energy
            1           2           3           4           5           6
    1   0.0306278   0.0182811  -0.0268877   0.0060606   0.0064999  -0.0151881
    2   0.0180331   0.0110354   0.0019559  -0.0057768   0.0043176  -0.0002589
    3   0.0321547   0.0191929   0.0018695  -0.0104035   0.0063718  -0.0016094
            7           8           9          10          11          12
    1  -0.0168843   0.0019432  -0.0190620  -0.0233388  -0.0091157   0.0106621
    2  -0.0049980   0.0039297   0.0024925  -0.0002287   0.0095354  -0.0094812
    3  -0.0097788   0.0070395   0.0029525  -0.0019644   0.0155317  -0.0153853
           13          14          15          16          17          18
    1   0.0129671   0.0076209  -0.0128518   0.0013715  -0.0076277   0.0073477
    2   0.0084334  -0.0135820   0.0028338  -0.0078864  -0.0090848   0.0013590
    3   0.0151616  -0.0217787   0.0028350  -0.0131665  -0.0160622   0.0030262
           19          20          21          22          23          24
    1   0.0072655   0.0026305   0.0195596  -0.0196441   0.0147732   0.0115366
    2  -0.0095766  -0.0120846  -0.0036321   0.0045805   0.0075980  -0.0245328
    3  -0.0153170  -0.0199686  -0.0044097   0.0059128   0.0139917   0.0328098
           25          26          27          28          29          30
    1   0.0152437   0.0134547  -0.0281312   0.0044832   0.0110352   0.0037449
    2   0.0387512   0.0265537   0.0026982  -0.0124020  -0.0130262  -0.0160153
    3  -0.0036546   0.0017412  -0.0024181  -0.0252454   0.0244142  -0.0230731
           31
    1  -0.0283774
    2  -0.0015410
    3  -0.0007698
 Max gradient component =       3.875E-02
 RMS gradient           =       1.448E-02
 Computing fast IEFPCM-SWIG gradient.
 Updating gradient with PCM contributions...
 -- total gradient after adding PCM contribution --
---------------------------------------------------
  Atom         X              Y              Z     
---------------------------------------------------
   1       0.010789       0.006173       0.011092
   2       0.026654       0.015912       0.028003
   3      -0.023272       0.001583       0.001256
   4       0.005363       0.005456       0.009035
   5       0.000399       0.000769      -0.000043
   6      -0.021458      -0.001797      -0.004839
   7      -0.002152       0.001201       0.001913
   8      -0.003662       0.003980       0.006710
   9      -0.000963       0.000117       0.000177
  10      -0.020075       0.001904       0.001843
  11      -0.002854       0.000387       0.000432
  12       0.012706      -0.003448      -0.004925
  13      -0.001108       0.000613       0.000863
  14       0.006257      -0.011798      -0.018895
  15       0.009389       0.003577       0.006391
  16      -0.001049      -0.011255      -0.019077
  17       0.002559      -0.000833      -0.001394
  18       0.008136      -0.001488      -0.001667
  19       0.000419      -0.000530      -0.000776
  20       0.006333      -0.010157      -0.016481
  21       0.001066      -0.001429      -0.002310
  22      -0.008155       0.006298       0.009794
  23       0.001204      -0.000452      -0.000605
  24       0.001831      -0.008620       0.008302
  25       0.002973       0.010545      -0.002633
  26       0.006640       0.012612       0.001278
  27      -0.012642       0.001228      -0.002072
  28       0.001410      -0.005239      -0.011844
  29       0.005484      -0.005919       0.011768
  30       0.000761      -0.007725      -0.010361
  31      -0.012984      -0.001664      -0.000937
---------------------------------------------------
 Number of fixed atoms: 0
 Gradient time:  CPU 63.86 s  wall 23.15 s
 Geometry Optimization Parameters
   NAtoms,    NIC,     NZ,  NCons,   NDum,   NFix, NCnnct, MaxDiis
       31     238       0       0       0       0       0       0


** GEOMETRY OPTIMIZATION IN DELOCALIZED INTERNAL COORDINATES **
   Searching for a Minimum

   Optimization Cycle:   1

                       Coordinates (Angstroms)
     ATOM                X               Y               Z
      1  H        -7.7388000000   -7.6905000000   -8.0313000000
      2  N        -8.3992000000   -8.0771000000   -8.7262000000
      3  C        -9.7943000000   -7.9003000000   -8.5259000000
      4  C       -10.7285000000   -8.4096000000   -9.4584000000
      5  C       -10.2830000000   -9.1665000000  -10.7167000000
      6  C       -12.1067000000   -8.2087000000   -9.2160000000
      7  H       -12.8501000000   -8.5826000000   -9.9056000000
      8  C       -12.5442000000   -7.5258000000   -8.0848000000
      9  H       -13.6049000000   -7.3851000000   -7.9197000000
     10  C       -11.6217000000   -7.0260000000   -7.1711000000
     11  H       -11.9708000000   -6.4954000000   -6.2944000000
     12  C       -10.2536000000   -7.2096000000   -7.3868000000
     13  H        -9.5509000000   -6.8127000000   -6.6640000000
     14  C        -7.8868000000   -8.7746000000   -9.8526000000
     15  C        -8.7594000000   -9.3116000000  -10.8284000000
     16  C        -8.2025000000   -9.9967000000  -11.9324000000
     17  H        -8.8368000000  -10.4196000000  -12.6983000000
     18  C        -6.8249000000  -10.1467000000  -12.0631000000
     19  H        -6.4214000000  -10.6769000000  -12.9165000000
     20  C        -5.9707000000   -9.6172000000  -11.1009000000
     21  H        -4.9006000000   -9.7383000000  -11.2108000000
     22  C        -6.4945000000   -8.9334000000  -10.0007000000
     23  H        -5.8131000000   -8.5277000000   -9.2625000000
     24  C       -10.7905000000   -8.3904000000  -11.9568000000
     25  C       -10.9103000000  -10.5834000000  -10.6857000000
     26  H       -10.3405000000   -7.3742000000  -11.9845000000
     27  H       -11.8940000000   -8.2803000000  -11.9523000000
     28  H       -10.5330000000   -8.9092000000  -12.9025000000
     29  H       -10.5499000000  -11.1470000000   -9.7982000000
     30  H       -10.6581000000  -11.1678000000  -11.5937000000
     31  H       -12.0178000000  -10.5452000000  -10.6461000000
   Point Group: c1    Number of degrees of freedom:    87


   Energy is   -633.788744337


 Attempting to Generate Delocalized Internal Coordinates

 87 Hessian modes will be used to form the next step
  Hessian Eigenvalues:
     0.002583    0.002768    0.006089    0.012937    0.013063    0.013862
     0.016122    0.016435    0.018525    0.019012    0.021832    0.021844
     0.021934    0.021943    0.021992    0.021994    0.023128    0.023142
     0.023169    0.023179    0.023516    0.023520    0.051361    0.053460
     0.053484    0.053583    0.054025    0.054508    0.077542    0.134384
     0.159999    0.160000    0.160000    0.160000    0.160000    0.160000
     0.160000    0.160000    0.160000    0.160000    0.160000    0.160000
     0.160000    0.160000    0.160000    0.176051    0.220000    0.220000
     0.225789    0.225976    0.236348    0.244737    0.246057    0.249996
     0.276629    0.277823    0.283236    0.287928    0.324182    0.324532
     0.327074    0.327096    0.327200    0.327204    0.355821    0.355866
     0.356714    0.356756    0.356827    0.356911    0.359054    0.359171
     0.376822    0.400570    0.405500    0.407407    0.409171    0.421834
     0.422267    0.434152    0.436337    0.452310    0.452505    0.458742
     0.458812    0.468268    0.468362

 Minimum Search - Taking Simple RFO Step
 Searching for Lamda that Minimizes Along All modes
 Value Taken    Lamda =  -0.02753427
 Step Taken.  Stepsize is  0.272515

                             Maximum     Tolerance    Cnvgd?
         Gradient           0.066499      0.000075      NO
         Displacement       0.166262      0.001200      NO
         Energy change     *********      0.000000      NO


 New Cartesian Coordinates Obtained by Inverse Iteration

 Displacement from previous Coordinates is:  0.833931
 Adding empirical dispersion correction 
 ----------------------------------------------------------------
 Doing -D3(BJ) with
 s6 =   1.00000
 s8 =   0.00000
 a1 =   0.48600
 a2 =   4.50000
 -D3 energy including 3body term =     -0.0235209066 hartrees
 ----------------------------------------------------------------
 Adding gCP correction 
 ----------------------------------------------------------------
 gCP energy =      0.0435802136 hartrees
 ----------------------------------------------------------------
             Standard Nuclear Orientation (Angstroms)
    I     Atom           X                Y                Z
 ----------------------------------------------------------------
    1      H      -7.8179134553    -7.7378913676    -8.1126999722
    2      N      -8.4650750170    -8.1170900768    -8.7951458331
    3      C      -9.7959488145    -7.9317421021    -8.5763852233
    4      C     -10.7264248304    -8.4335996471    -9.4970555951
    5      C     -10.3072723699    -9.1805383300   -10.7428911948
    6      C     -12.0645497670    -8.2153797264    -9.2239414360
    7      H     -12.8184572607    -8.5830290651    -9.9058102012
    8      C     -12.4617165269    -7.5286137784    -8.0852871506
    9      H     -13.5158388501    -7.3746430730    -7.8999638523
   10      C     -11.5191585351    -7.0372226290    -7.1820853675
   11      H     -11.8309701859    -6.5026271226    -6.2962900487
   12      C     -10.1853578773    -7.2365115675    -7.4240797084
   13      H      -9.4449240356    -6.8590124195    -6.7292912061
   14      C      -7.9447338676    -8.7799431514    -9.8649094924
   15      C      -8.8038628361    -9.3142367277   -10.8356376322
   16      C      -8.2185312781    -9.9770532858   -11.8991301484
   17      H      -8.8400578227   -10.4059954898   -12.6724470307
   18      C      -6.8397767581   -10.1049823820   -11.9939103240
   19      H      -6.4129548310   -10.6300795630   -12.8372532481
   20      C      -6.0032401274    -9.5657531385   -11.0168231227
   21      H      -4.9300942655    -9.6665692671   -11.0926591556
   22      C      -6.5517885637    -8.9020018439    -9.9513553816
   23      H      -5.9108166792    -8.4791254507    -9.1873680689
   24      C     -10.8117101054    -8.4040306392   -11.9745392716
   25      C     -10.9281714431   -10.5890530458   -10.7075618308
   26      H     -10.3786288457    -7.4042564864   -12.0174450159
   27      H     -11.8968244604    -8.3023012486   -11.9558241678
   28      H     -10.5557070439    -8.9237821626   -12.8975222030
   29      H     -10.5820884165   -11.1533036675    -9.8414717078
   30      H     -10.6731668617   -11.1534889419   -11.6043621372
   31      H     -12.0157382678   -10.5362426029   -10.6657532719
 ----------------------------------------------------------------
 Nuclear Repulsion Energy =  1060.0159014093 hartrees
 There are       56 alpha and       55 beta electrons
 Discretize the solute cavity surface with Lebedev spheres
	Using 302 Lebedev grid points for each H atom
	Using 302 Lebedev grid points for other atoms
	Atomic van der Waals radii will be scaled by 1.20
 Remove points where switching function is < 1.0e-08
 Keep 3427 surface tesserae and discard 5935 interior tesserae
 Molecular Surface Area = 250.847 Angst**2
 Nucleus-field energy     =    -0.0000000210 hartrees
 Requested basis set is def2-mSVP
 There are 142 shells and 270 basis functions
 A cutoff of  1.0D-11 yielded   7877 shell pairs
 There are     29793 function pairs (     33243 Cartesian)
 Smallest overlap matrix eigenvalue = 3.47E-04
 Guess MOs from SCF MO coefficient file

 -----------------------------------------------------------------------
  General SCF calculation program by
  Eric Jon Sundstrom, Paul Horn, Yuezhi Mao, Dmitri Zuev, Alec White,
  David Stuck, Shaama M.S., Shane Yost, Joonho Lee, David Small,
  Daniel Levine, Susi Lehtola, Hugh Burton, Evgeny Epifanovsky
 -----------------------------------------------------------------------
 Exchange:     0.4200 Hartree-Fock + 0.5800 PBEh-3c
 Correlation:  1.0000 PBEh-3c
 Using SG-1 standard quadrature grid
 Dispersion:   Grimme D3
 using 4 threads for integral computing
 -------------------------------------------------------
 OpenMP Integral computing Module                
 Release: version 2.0, May 2017, Q-Chem Inc. Pleasanton 
 -------------------------------------------------------
 -------------------------------------------------------
 OpenMP BLAS3 based DFT computing Module                
 Release: version 1.0, May 2013, Q-Chem Inc. Pittsburgh 
 -------------------------------------------------------
 A unrestricted SCF calculation will be
 performed using DIIS
 SCF converges when DIIS error is below 1.0e-08
 ---------------------------------------
  Cycle       Energy         DIIS error
 ---------------------------------------
 Using non-symmetric K matrix
    1    -642.0632168046      4.52e-04  
    2    -633.7996831286      2.45e-04  
    3    -633.8010749633      2.01e-04  
    4    -633.8025957231      2.45e-05  
    5    -633.8026187816      1.45e-05  
    6    -633.8026282671      4.86e-06  
    7    -633.8026308795      2.87e-06  
    8    -633.8026320276      1.58e-06  
    9    -633.8026326106      7.78e-07  
   10    -633.8026327435      4.73e-07  
   11    -633.8026328168      2.71e-07  
   12    -633.8026328416      1.55e-07  
   13    -633.8026328462      5.93e-08  
   14    -633.8026328467      2.64e-08  
   15    -633.8026328468      8.70e-09  Convergence criterion met
 ---------------------------------------
 SCF time:   CPU 599.04s  wall 158.00s 
<S^2> =          0.811550807

************** Final PCM Free Energy Summary **************
 G_electrostatic  =      -0.04433153 hartree =     -27.81845389 kcal/mol
 G_cavitation     =       0.00000000 hartree =       0.00000000 kcal/mol
 G_dispersion     =       0.00000000 hartree =       0.00000000 kcal/mol
 G_repulsion      =       0.00000000 hartree =       0.00000000 kcal/mol
 --------------------------------------------------
 Non-electrostatic Free Energy =       0.00000000 hartree =       0.00000000 kcal/mol
 Total                         =      -0.04433153 hartree =     -27.81845389 kcal/mol
 --------------------------------------------------
 SCF Energy (H0 + V/2)                       =    -633.80263285 
 Solute Internal Energy (H0)                 =    -633.75830132 
 Total Free Energy (H0 + V/2 + non-elec)     =    -633.80263285 hartree
                                             = -397717.15485610 kcal/mol
***********************************************************

 SCF   energy in the final basis set =     -633.8026328468
 Total energy in the final basis set =     -633.8026328468
 
 --------------------------------------------------------------
 
                    Orbital Energies (a.u.)
 --------------------------------------------------------------
 
 Alpha MOs
 -- Occupied --
-14.821 -10.589 -10.589 -10.550 -10.549 -10.548 -10.537 -10.537
-10.531 -10.531 -10.523 -10.523 -10.523 -10.523 -10.490 -10.490
 -1.207  -1.055  -1.048  -0.995  -0.946  -0.927  -0.903  -0.891
 -0.834  -0.814  -0.805  -0.761  -0.757  -0.705  -0.701  -0.697
 -0.623  -0.617  -0.613  -0.611  -0.606  -0.576  -0.571  -0.563
 -0.554  -0.544  -0.527  -0.515  -0.503  -0.501  -0.494  -0.488
 -0.478  -0.460  -0.456  -0.447  -0.387  -0.378  -0.371  -0.332
 -- Virtual --
 -0.077  -0.070  -0.056  -0.030   0.048   0.073   0.087   0.092
  0.109   0.113   0.114   0.135   0.139   0.153   0.161   0.162
  0.165   0.173   0.182   0.191   0.194   0.204   0.214   0.222
  0.230   0.242   0.244   0.262   0.274   0.275   0.302   0.305
  0.311   0.336   0.366   0.393   0.415   0.427   0.435   0.441
  0.448   0.471   0.471   0.476   0.491   0.505   0.507   0.513
  0.523   0.525   0.543   0.546   0.551   0.552   0.554   0.556
  0.560   0.579   0.585   0.588   0.594   0.604   0.637   0.643
  0.677   0.683   0.686   0.719   0.719   0.727   0.735   0.744
  0.747   0.786   0.826   0.834   0.848   0.858   0.888   0.892
  0.903   0.907   0.924   0.926   0.930   0.955   0.957   0.966
  0.981   0.986   0.992   0.996   1.004   1.014   1.033   1.041
  1.053   1.056   1.061   1.077   1.082   1.101   1.137   1.171
  1.183   1.194   1.210   1.226   1.235   1.251   1.271   1.275
  1.320   1.338   1.343   1.385   1.398   1.409   1.433   1.455
  1.466   1.468   1.473   1.477   1.497   1.538   1.568   1.577
  1.629   1.656   1.662   1.739   1.740   1.763   1.765   1.802
  1.827   1.837   1.848   1.851   1.859   1.896   1.901   1.907
  1.969   1.986   2.023   2.048   2.050   2.060   2.069   2.100
  2.106   2.123   2.123   2.152   2.173   2.181   2.189   2.194
  2.215   2.250   2.270   2.273   2.274   2.294   2.327   2.329
  2.333   2.341   2.348   2.372   2.439   2.504   2.510   2.550
  2.558   2.607   2.616   2.623   2.626   2.674   2.683   2.704
  2.708   2.724   2.729   2.766   2.797   2.810   2.877   2.909
  2.910   2.963   3.073   3.334   3.450   3.477  13.147  13.248
 13.561  13.621  13.651  13.686  13.807  13.823  14.080  14.098
 14.128  14.161  14.225  14.495  14.506  19.321
 
 Beta MOs
 -- Occupied --
-14.811 -10.590 -10.590 -10.548 -10.546 -10.546 -10.534 -10.534
-10.527 -10.527 -10.525 -10.525 -10.524 -10.524 -10.490 -10.489
 -1.190  -1.050  -1.041  -0.991  -0.943  -0.924  -0.900  -0.882
 -0.832  -0.812  -0.800  -0.758  -0.755  -0.703  -0.698  -0.693
 -0.620  -0.614  -0.610  -0.604  -0.582  -0.575  -0.569  -0.562
 -0.553  -0.529  -0.519  -0.514  -0.501  -0.500  -0.488  -0.487
 -0.464  -0.454  -0.446  -0.445  -0.373  -0.365  -0.360
 -- Virtual --
 -0.206  -0.064  -0.061  -0.048  -0.007   0.052   0.073   0.088
  0.094   0.114   0.116   0.124   0.137   0.140   0.156   0.162
  0.162   0.167   0.174   0.183   0.193   0.194   0.207   0.216
  0.224   0.231   0.244   0.246   0.263   0.275   0.275   0.302
  0.306   0.312   0.337   0.368   0.398   0.417   0.434   0.436
  0.443   0.450   0.472   0.473   0.482   0.493   0.509   0.513
  0.515   0.525   0.539   0.546   0.548   0.552   0.555   0.556
  0.559   0.564   0.581   0.584   0.591   0.602   0.607   0.641
  0.650   0.678   0.688   0.690   0.719   0.721   0.735   0.736
  0.749   0.750   0.792   0.828   0.837   0.848   0.862   0.886
  0.905   0.909   0.914   0.927   0.927   0.931   0.956   0.959
  0.968   0.980   0.988   0.994   0.997   1.010   1.015   1.035
  1.042   1.054   1.055   1.062   1.077   1.084   1.102   1.139
  1.176   1.186   1.195   1.218   1.231   1.236   1.253   1.273
  1.277   1.325   1.340   1.356   1.388   1.400   1.412   1.438
  1.461   1.469   1.470   1.477   1.481   1.501   1.540   1.570
  1.583   1.632   1.660   1.675   1.740   1.746   1.764   1.767
  1.804   1.836   1.840   1.852   1.854   1.869   1.898   1.903
  1.911   1.971   1.989   2.024   2.050   2.051   2.063   2.070
  2.105   2.109   2.125   2.128   2.153   2.177   2.186   2.193
  2.197   2.220   2.254   2.274   2.275   2.279   2.297   2.330
  2.333   2.337   2.342   2.358   2.378   2.447   2.506   2.512
  2.553   2.560   2.610   2.620   2.626   2.629   2.675   2.684
  2.705   2.714   2.727   2.730   2.769   2.801   2.811   2.879
  2.911   2.912   2.966   3.074   3.335   3.452   3.478  13.149
 13.249  13.562  13.623  13.651  13.689  13.808  13.823  14.081
 14.099  14.128  14.162  14.225  14.496  14.507  19.335
 --------------------------------------------------------------
 
          Ground-State Mulliken Net Atomic Charges

     Atom                 Charge (a.u.)    Spin (a.u.)
  --------------------------------------------------------
      1 H                     0.432343      -0.018765
      2 N                    -0.705990       0.414385
      3 C                     0.344481      -0.076957
      4 C                     0.189150       0.227220
      5 C                    -0.237685      -0.037765
      6 C                    -0.299572      -0.151841
      7 H                     0.266978       0.007049
      8 C                    -0.198530       0.264986
      9 H                     0.279868      -0.014146
     10 C                    -0.236406      -0.129747
     11 H                     0.280010       0.005775
     12 C                    -0.290340       0.176573
     13 H                     0.279660      -0.009778
     14 C                     0.345114      -0.076967
     15 C                     0.188814       0.226774
     16 C                    -0.300099      -0.151586
     17 H                     0.267462       0.007038
     18 C                    -0.198457       0.264626
     19 H                     0.279831      -0.014130
     20 C                    -0.236142      -0.129588
     21 H                     0.280005       0.005769
     22 C                    -0.290406       0.176383
     23 H                     0.279511      -0.009769
     24 C                    -0.607554       0.022907
     25 C                    -0.608716       0.022283
     26 H                     0.249575      -0.000865
     27 H                     0.249205       0.000255
     28 H                     0.249413       0.000278
     29 H                     0.249968      -0.000816
     30 H                     0.249317       0.000212
     31 H                     0.249192       0.000206
  --------------------------------------------------------
  Sum of atomic charges =     1.000000
  Sum of spin   charges =     1.000000

 -----------------------------------------------------------------
                    Cartesian Multipole Moments
 -----------------------------------------------------------------
    Charge (ESU x 10^10)
                 4.8032
    Dipole Moment (Debye)
         X     -43.8699      Y     -40.8604      Z     -45.6246
       Tot      75.3375
    Quadrupole Moments (Debye-Ang)
        XX     345.0491     XY     368.4063     YY     261.3909
        XZ     411.8736     YZ     405.0794     ZZ     365.1669
    Octopole Moments (Debye-Ang^2)
       XXX   -2044.6160    XXY   -2828.3878    XYY   -2271.4940
       YYY    -699.9028    XXZ   -3153.8952    XYZ   -3612.0220
       YYZ   -2738.4775    XZZ   -3208.7089    YZZ   -3412.5639
       ZZZ   -2072.3739
    Hexadecapole Moments (Debye-Ang^3)
      XXXX     466.2529   XXXY   15790.4254   XXYY   14842.3393
      XYYY    4722.1840   YYYY  -14981.8885   XXXZ   17428.3705
      XXYZ   27179.2511   XYYZ   23611.4920   YYYZ    9124.4881
      XXZZ   21929.2695   XYZZ   29640.2986   YYZZ   22934.4790
      XZZZ   16879.3384   YZZZ   21518.2343   ZZZZ   -3012.1173
 -----------------------------------------------------------------
 Calculating analytic gradient of the SCF energy
 -1.472976561907765E-004 -1.473120954022282E-004
 -1.473008386729188E-004 -1.473089256359010E-004
 -1.472971683174780E-004 -1.473125884046296E-004
 -1.473098615366089E-004 -1.472998828432395E-004
 -1.473079115317692E-004 -1.473018648455102E-004
 -1.473100651221699E-004 -1.472996904559090E-004
 -1.473142975719402E-004 -1.472954653727677E-004
 -1.473064783768957E-004 -1.473033053131983E-004
 -1.473083306133328E-004 -1.473014332502549E-004
 -1.473041666772793E-004 -1.473056008268356E-004
 -1.473046383990653E-004 -1.473051485059812E-004
 -1.473045256036374E-004 -1.473052475853716E-004
 -1.472974634535016E-004 -1.473122968659549E-004
 -1.473007370103736E-004 -1.473090387976438E-004
 -1.472969500300912E-004 -1.473128170257922E-004
 -1.472955847394236E-004 -1.473141757131616E-004
 -1.473024148994428E-004 -1.473073611934049E-004
 -1.473002145290209E-004 -1.473095462309259E-004
 -1.473072971284586E-004 -1.473024518500756E-004
 -1.473022287909475E-004 -1.473075307612738E-004
 -1.473005418086946E-004 -1.473092102928159E-004
 -1.473091602010570E-004 -1.473005911082966E-004
 -1.473041653001743E-004 -1.473056151196487E-004
 -1.473041187457040E-004 -1.473056513209889E-004
 -1.473103686050916E-004 -1.472993960852927E-004
 -1.472994869345207E-004 -1.473102820077432E-004
 -1.472961296924899E-004 -1.473136339657779E-004
 -1.473045208151229E-004 -1.473052497521629E-004
 -1.472987499063441E-004 -1.473110293616855E-004
 -1.472945585124385E-004 -1.473152034713547E-004
 -1.473098826823012E-004 -1.472998826258477E-004
 -1.473019647829163E-004 -1.473078130150393E-004
 -1.473002959556200E-004 -1.473094820443808E-004
 -1.473122325232633E-004 -1.472975153514365E-004
 -1.473035480453122E-004 -1.473062286722932E-004
 -1.473032881020730E-004 -1.473064763106504E-004
 -1.473061254820466E-004 -1.473036250542434E-004
 -1.472996662296860E-004 -1.473100996441045E-004
 -1.472961048053619E-004 -1.473136569772662E-004
 -1.473068712868913E-004 -1.473028838544663E-004
 -1.473099237995648E-004 -1.472998618659944E-004
 -1.473134729666492E-004 -1.472962966703572E-004
 -1.473045783479398E-004 -1.473051866207952E-004
 -1.473044970085760E-004 -1.473052904817793E-004
 -1.473041960006073E-004 -1.473055791536337E-004
 -1.473014007138661E-004 -1.473083511284963E-004
 -1.472998062351599E-004 -1.473099719635256E-004
 -1.472961571178144E-004 -1.473136100955794E-004
 -1.472994315535819E-004 -1.473103177144575E-004
 -1.473058412967020E-004 -1.473039181059660E-004
 -1.473059999558620E-004 -1.473037519705592E-004
 -1.473030641241647E-004 -1.473067026071317E-004
 -1.473069775308139E-004 -1.473027985194537E-004
 -1.473083420988428E-004 -1.473014168837777E-004
 -1.472937577018998E-004 -1.473160057040192E-004
 -1.473070780567651E-004 -1.473026911494012E-004
 -1.473076718515559E-004 -1.473020929470735E-004
 -1.472931174726789E-004 -1.473166384726409E-004
 -1.473039629495705E-004 -1.473058199998897E-004
 -1.473024439502601E-004 -1.473073290347651E-004
 -1.472986618303222E-004 -1.473111198077973E-004
 -1.473070876697946E-004 -1.473026857600551E-004
 -1.473081485168069E-004 -1.473016175353797E-004
 -1.473014818420559E-004 -1.473082773951853E-004
 -1.473084803357472E-004 -1.473012932245293E-004
 -1.473107232923931E-004 -1.472990329925800E-004
 -1.472946431810769E-004 -1.473151147005296E-004
 -1.473049423493362E-004 -1.473048215115210E-004
 -1.473041267264503E-004 -1.473056297370010E-004
 -1.473049544454398E-004 -1.473047988604721E-004
 -1.473153650091501E-004 -1.472944011880679E-004
 -1.472980476186460E-004 -1.473116982476606E-004
 -1.473038531391859E-004 -1.473058987740494E-004
 -1.472939399115580E-004 -1.473158116565036E-004
 -1.473106265289261E-004 -1.472991356050343E-004
 -1.473117878703176E-004 -1.472979623574792E-004
 -1.473158951530168E-004 -1.472938385424982E-004
 -1.473075460495003E-004 -1.473021975279640E-004
 -1.473123229027229E-004 -1.472974355116534E-004
 -1.473087146186606E-004 -1.473010430020988E-004
 -1.473098408417636E-004 -1.472999033258464E-004
 -1.473097588322541E-004 -1.472999916937837E-004
 -1.473098691902548E-004 -1.472998890907542E-004
 -1.473117467024049E-004 -1.472980046719863E-004
 -1.473111222175667E-004 -1.472986278972293E-004
 -1.473013422783007E-004 -1.473083897982449E-004
 -1.473162038166556E-004 -1.472935413690480E-004
 -1.473096049505018E-004 -1.473001444611740E-004
 -1.473080460339740E-004 -1.473017043442029E-004
 -1.473127580533345E-004 -1.472970024639159E-004
 -1.473122070356121E-004 -1.472975506180349E-004
 -1.473068107970877E-004 -1.473029360204778E-004
 -1.473109447546292E-004 -1.472988110938086E-004
 Gradient of SCF Energy
            1           2           3           4           5           6
    1   0.0192382  -0.0038826  -0.0140403   0.0009253   0.0047863   0.0060470
    2   0.0115540  -0.0021508   0.0002289  -0.0099843   0.0026986   0.0002879
    3   0.0205051  -0.0041379  -0.0002185  -0.0174601   0.0052814   0.0010582
            7           8           9          10          11          12
    1  -0.0135515   0.0102016  -0.0178441  -0.0044366  -0.0042061   0.0013122
    2  -0.0063378  -0.0000666   0.0024538  -0.0025509   0.0093982  -0.0085819
    3  -0.0119073   0.0006772   0.0029086  -0.0045878   0.0156690  -0.0145169
           13          14          15          16          17          18
    1   0.0135373   0.0024777  -0.0198841   0.0001637  -0.0105060  -0.0013821
    2   0.0083038  -0.0070561  -0.0004646   0.0031157  -0.0077275   0.0052123
    3   0.0150049  -0.0114610  -0.0028378   0.0052249  -0.0137552   0.0086650
           19          20          21          22          23          24
    1   0.0070257  -0.0043138   0.0187253  -0.0165520   0.0144279   0.0109106
    2  -0.0089177  -0.0024838  -0.0011048  -0.0002718   0.0077877  -0.0162375
    3  -0.0142552  -0.0044711  -0.0002233  -0.0018974   0.0142649   0.0263829
           25          26          27          28          29          30
    1   0.0136764   0.0068494  -0.0157049   0.0030755   0.0055615   0.0029817
    2   0.0298557   0.0147808   0.0014578  -0.0071956  -0.0077820  -0.0083826
    3   0.0000259  -0.0000238  -0.0004154  -0.0136249   0.0130656  -0.0130073
           31
    1  -0.0156190
    2   0.0001610
    3   0.0000673
 Max gradient component =       2.986E-02
 RMS gradient           =       1.030E-02
 Computing fast IEFPCM-SWIG gradient.
 Updating gradient with PCM contributions...
 -- total gradient after adding PCM contribution --
---------------------------------------------------
  Atom         X              Y              Z     
---------------------------------------------------
   1       0.000098       0.000003      -0.000004
   2       0.004465       0.002826       0.004761
   3      -0.008092      -0.000836      -0.001621
   4       0.000879       0.002155       0.003469
   5      -0.001511      -0.000896      -0.001397
   6       0.000470      -0.001562      -0.002670
   7       0.000815      -0.000190      -0.000110
   8       0.002762       0.000418       0.000955
   9       0.000118      -0.000120      -0.000174
  10       0.000128      -0.000658      -0.001062
  11       0.000853       0.000053       0.000149
  12       0.002445      -0.002212      -0.003563
  13      -0.000892       0.000664       0.000894
  14      -0.000288      -0.004140      -0.006774
  15       0.003905       0.000685       0.001509
  16      -0.003035       0.000075      -0.000199
  17      -0.000213       0.000355       0.000619
  18       0.000526       0.001456       0.002540
  19      -0.000178       0.000028       0.000102
  20      -0.001247       0.000092       0.000052
  21       0.000020       0.000453       0.000778
  22      -0.004563       0.000939       0.001238
  23       0.001170      -0.000455      -0.000723
  24       0.000847      -0.000774       0.001663
  25       0.001184       0.001721       0.000613
  26       0.000252       0.000580       0.000024
  27      -0.000184       0.000085      -0.000613
  28      -0.000285       0.000230      -0.000384
  29       0.000205      -0.000224       0.000439
  30      -0.000380      -0.000331      -0.000173
  31      -0.000276      -0.000421      -0.000337
---------------------------------------------------
 Number of fixed atoms: 0
 Gradient time:  CPU 74.17 s  wall 27.94 s
 Geometry Optimization Parameters
   NAtoms,    NIC,     NZ,  NCons,   NDum,   NFix, NCnnct, MaxDiis
       31     238       0       0       0       0       0       0

 Cartesian Hessian Update
 Hessian Updated using BFGS Update


** GEOMETRY OPTIMIZATION IN DELOCALIZED INTERNAL COORDINATES **
   Searching for a Minimum

   Optimization Cycle:   2

                       Coordinates (Angstroms)
     ATOM                X               Y               Z
      1  H        -7.8179134553   -7.7378913676   -8.1126999722
      2  N        -8.4650750170   -8.1170900768   -8.7951458331
      3  C        -9.7959488145   -7.9317421021   -8.5763852233
      4  C       -10.7264248304   -8.4335996471   -9.4970555951
      5  C       -10.3072723699   -9.1805383300  -10.7428911948
      6  C       -12.0645497670   -8.2153797264   -9.2239414360
      7  H       -12.8184572607   -8.5830290651   -9.9058102012
      8  C       -12.4617165269   -7.5286137784   -8.0852871506
      9  H       -13.5158388501   -7.3746430730   -7.8999638523
     10  C       -11.5191585351   -7.0372226290   -7.1820853675
     11  H       -11.8309701859   -6.5026271226   -6.2962900487
     12  C       -10.1853578773   -7.2365115675   -7.4240797084
     13  H        -9.4449240356   -6.8590124195   -6.7292912061
     14  C        -7.9447338676   -8.7799431514   -9.8649094924
     15  C        -8.8038628361   -9.3142367277  -10.8356376322
     16  C        -8.2185312781   -9.9770532858  -11.8991301484
     17  H        -8.8400578227  -10.4059954898  -12.6724470307
     18  C        -6.8397767581  -10.1049823820  -11.9939103240
     19  H        -6.4129548310  -10.6300795630  -12.8372532481
     20  C        -6.0032401274   -9.5657531385  -11.0168231227
     21  H        -4.9300942655   -9.6665692671  -11.0926591556
     22  C        -6.5517885637   -8.9020018439   -9.9513553816
     23  H        -5.9108166792   -8.4791254507   -9.1873680689
     24  C       -10.8117101054   -8.4040306392  -11.9745392716
     25  C       -10.9281714431  -10.5890530458  -10.7075618308
     26  H       -10.3786288457   -7.4042564864  -12.0174450159
     27  H       -11.8968244604   -8.3023012486  -11.9558241678
     28  H       -10.5557070439   -8.9237821626  -12.8975222030
     29  H       -10.5820884165  -11.1533036675   -9.8414717078
     30  H       -10.6731668617  -11.1534889419  -11.6043621372
     31  H       -12.0157382678  -10.5362426029  -10.6657532719
   Point Group: c1    Number of degrees of freedom:    87


   Energy is   -633.802632847

 Hessian Updated using BFGS Update

 78 Hessian modes will be used to form the next step
  Hessian Eigenvalues:
     0.002583    0.002768    0.006089    0.012937    0.013064    0.013862
     0.016122    0.016435    0.018525    0.019012    0.021832    0.021845
     0.021934    0.021942    0.021992    0.021993    0.023128    0.023142
     0.023169    0.023179    0.023516    0.023520    0.051363    0.053459
     0.053484    0.053585    0.054025    0.054507    0.078163    0.134384
     0.158661    0.159999    0.160000    0.160000    0.160000    0.161476
     0.176247    0.220000    0.220062    0.225973    0.226805    0.231563
     0.244736    0.249580    0.249996    0.276883    0.278010    0.285892
     0.287930    0.323836    0.324454    0.327080    0.327145    0.327201
     0.327466    0.355821    0.355861    0.356720    0.356764    0.356836
     0.356920    0.359028    0.359152    0.376822    0.388519    0.405807
     0.407407    0.417128    0.421831    0.422570    0.434152    0.440876
     0.452376    0.456563    0.458797    0.467230    0.468326    0.495833

 Minimum Search - Taking Simple RFO Step
 Searching for Lamda that Minimizes Along All modes
 Value Taken    Lamda =  -0.00063080
 Step Taken.  Stepsize is  0.067896

                             Maximum     Tolerance    Cnvgd?
         Gradient           0.008774      0.000075      NO
         Displacement       0.025680      0.001200      NO
         Energy change     -0.013889      0.000000      NO


 New Cartesian Coordinates Obtained by Inverse Iteration

 Displacement from previous Coordinates is:  0.148471
 Adding empirical dispersion correction 
 ----------------------------------------------------------------
 Doing -D3(BJ) with
 s6 =   1.00000
 s8 =   0.00000
 a1 =   0.48600
 a2 =   4.50000
 -D3 energy including 3body term =     -0.0234841708 hartrees
 ----------------------------------------------------------------
 Adding gCP correction 
 ----------------------------------------------------------------
 gCP energy =      0.0434427183 hartrees
 ----------------------------------------------------------------
             Standard Nuclear Orientation (Angstroms)
    I     Atom           X                Y                Z
 ----------------------------------------------------------------
    1      H      -7.8232392145    -7.7531342642    -8.1092915651
    2      N      -8.4693981158    -8.1293713958    -8.7935157242
    3      C      -9.7950566111    -7.9346825758    -8.5700773660
    4      C     -10.7287913588    -8.4331753169    -9.4950595104
    5      C     -10.3063456651    -9.1829641560   -10.7408388783
    6      C     -12.0680620838    -8.2028450861    -9.2199282502
    7      H     -12.8261097544    -8.5626985416    -9.9023955611
    8      C     -12.4686961652    -7.5139306952    -8.0840716921
    9      H     -13.5227622485    -7.3530677683    -7.9030738663
   10      C     -11.5252920983    -7.0288714572    -7.1765201660
   11      H     -11.8419804796    -6.4933988098    -6.2928844066
   12      C     -10.1900354162    -7.2367051865    -7.4147053906
   13      H      -9.4441170441    -6.8678568029    -6.7216198692
   14      C      -7.9408169691    -8.7835972551    -9.8608075996
   15      C      -8.8008991122    -9.3156827214   -10.8374037605
   16      C      -8.2070414363    -9.9722568558   -11.9042267115
   17      H      -8.8244753225   -10.3993198421   -12.6827446642
   18      C      -6.8286302231   -10.0987557328   -12.0035598110
   19      H      -6.4013870842   -10.6178401862   -12.8506424180
   20      C      -5.9922045382    -9.5635915204   -11.0223303620
   21      H      -4.9194105629    -9.6647695993   -11.1034718038
   22      C      -6.5427153766    -8.9061001220    -9.9512251615
   23      H      -5.9093573994    -8.4841006841    -9.1804197862
   24      C     -10.8183106847    -8.4148614913   -11.9760130235
   25      C     -10.9286639060   -10.5925852686   -10.7070390611
   26      H     -10.3846253174    -7.4177146289   -12.0328643623
   27      H     -11.9023052526    -8.3122786682   -11.9453257622
   28      H     -10.5696962898    -8.9462694222   -12.8935534472
   29      H     -10.5814242709   -11.1596472432    -9.8449622454
   30      H     -10.6746980718   -11.1523754823   -11.6060644747
   31      H     -12.0149519268   -10.5356512194   -10.6602632991
 ----------------------------------------------------------------
 Nuclear Repulsion Energy =  1058.3372245242 hartrees
 There are       56 alpha and       55 beta electrons
 Discretize the solute cavity surface with Lebedev spheres
	Using 302 Lebedev grid points for each H atom
	Using 302 Lebedev grid points for other atoms
	Atomic van der Waals radii will be scaled by 1.20
 Remove points where switching function is < 1.0e-08
 Keep 3428 surface tesserae and discard 5934 interior tesserae
 Molecular Surface Area = 251.277 Angst**2
 Nucleus-field energy     =    -0.0000000210 hartrees
 Requested basis set is def2-mSVP
 There are 142 shells and 270 basis functions
 A cutoff of  1.0D-11 yielded   7873 shell pairs
 There are     29741 function pairs (     33169 Cartesian)
 Smallest overlap matrix eigenvalue = 3.52E-04
 Guess MOs from SCF MO coefficient file

 -----------------------------------------------------------------------
  General SCF calculation program by
  Eric Jon Sundstrom, Paul Horn, Yuezhi Mao, Dmitri Zuev, Alec White,
  David Stuck, Shaama M.S., Shane Yost, Joonho Lee, David Small,
  Daniel Levine, Susi Lehtola, Hugh Burton, Evgeny Epifanovsky
 -----------------------------------------------------------------------
 Exchange:     0.4200 Hartree-Fock + 0.5800 PBEh-3c
 Correlation:  1.0000 PBEh-3c
 Using SG-1 standard quadrature grid
 Dispersion:   Grimme D3
 using 4 threads for integral computing
 -------------------------------------------------------
 OpenMP Integral computing Module                
 Release: version 2.0, May 2017, Q-Chem Inc. Pleasanton 
 -------------------------------------------------------
 -------------------------------------------------------
 OpenMP BLAS3 based DFT computing Module                
 Release: version 1.0, May 2013, Q-Chem Inc. Pittsburgh 
 -------------------------------------------------------
 A unrestricted SCF calculation will be
 performed using DIIS
 SCF converges when DIIS error is below 1.0e-08
 ---------------------------------------
  Cycle       Energy         DIIS error
 ---------------------------------------
 Using non-symmetric K matrix
    1    -642.1658864429      1.12e-04  
    2    -633.8019047200      1.31e-04  
    3    -633.8028205187      4.70e-05  
    4    -633.8029183148      2.14e-05  
    5    -633.8029566925      8.59e-06  
    6    -633.8029597194      3.35e-06  
    7    -633.8029602337      1.10e-06  
    8    -633.8029603312      5.82e-07  
    9    -633.8029603883      3.54e-07  
   10    -633.8029604272      2.02e-07  
   11    -633.8029604414      8.65e-08  
   12    -633.8029604435      5.52e-08  
   13    -633.8029604440      2.12e-08  
   14    -633.8029604441      9.54e-09  Convergence criterion met
 ---------------------------------------
 SCF time:   CPU 566.84s  wall 150.00s 
<S^2> =          0.813291135

************** Final PCM Free Energy Summary **************
 G_electrostatic  =      -0.04432500 hartree =     -27.81435518 kcal/mol
 G_cavitation     =       0.00000000 hartree =       0.00000000 kcal/mol
 G_dispersion     =       0.00000000 hartree =       0.00000000 kcal/mol
 G_repulsion      =       0.00000000 hartree =       0.00000000 kcal/mol
 --------------------------------------------------
 Non-electrostatic Free Energy =       0.00000000 hartree =       0.00000000 kcal/mol
 Total                         =      -0.04432500 hartree =     -27.81435518 kcal/mol
 --------------------------------------------------
 SCF Energy (H0 + V/2)                       =    -633.80296044 
 Solute Internal Energy (H0)                 =    -633.75863545 
 Total Free Energy (H0 + V/2 + non-elec)     =    -633.80296044 hartree
                                             = -397717.36042653 kcal/mol
***********************************************************

 SCF   energy in the final basis set =     -633.8029604441
 Total energy in the final basis set =     -633.8029604441
 
 --------------------------------------------------------------
 
                    Orbital Energies (a.u.)
 --------------------------------------------------------------
 
 Alpha MOs
 -- Occupied --
-14.822 -10.590 -10.590 -10.551 -10.551 -10.549 -10.538 -10.538
-10.531 -10.531 -10.523 -10.523 -10.523 -10.523 -10.490 -10.490
 -1.208  -1.053  -1.046  -0.994  -0.946  -0.926  -0.903  -0.891
 -0.834  -0.814  -0.806  -0.760  -0.757  -0.705  -0.701  -0.696
 -0.624  -0.617  -0.613  -0.610  -0.605  -0.575  -0.570  -0.564
 -0.554  -0.543  -0.526  -0.515  -0.503  -0.502  -0.494  -0.488
 -0.478  -0.460  -0.457  -0.446  -0.387  -0.378  -0.370  -0.332
 -- Virtual --
 -0.078  -0.070  -0.057  -0.030   0.048   0.073   0.087   0.092
  0.108   0.113   0.114   0.134   0.139   0.153   0.160   0.161
  0.165   0.172   0.181   0.188   0.195   0.205   0.211   0.222
  0.229   0.241   0.244   0.262   0.273   0.274   0.302   0.303
  0.311   0.335   0.366   0.393   0.416   0.427   0.435   0.438
  0.447   0.469   0.471   0.476   0.493   0.505   0.507   0.512
  0.522   0.525   0.541   0.546   0.551   0.551   0.553   0.555
  0.560   0.577   0.585   0.586   0.594   0.601   0.634   0.643
  0.674   0.683   0.686   0.718   0.720   0.727   0.734   0.743
  0.747   0.785   0.827   0.835   0.848   0.858   0.888   0.893
  0.902   0.907   0.924   0.925   0.929   0.956   0.957   0.965
  0.981   0.987   0.993   0.999   1.004   1.013   1.031   1.042
  1.053   1.054   1.059   1.075   1.081   1.102   1.134   1.171
  1.181   1.193   1.209   1.225   1.233   1.250   1.268   1.276
  1.318   1.337   1.345   1.386   1.396   1.409   1.433   1.455
  1.462   1.469   1.474   1.478   1.497   1.535   1.568   1.578
  1.629   1.654   1.663   1.737   1.737   1.760   1.762   1.799
  1.826   1.835   1.847   1.849   1.859   1.894   1.899   1.903
  1.968   1.985   2.021   2.046   2.046   2.056   2.068   2.097
  2.104   2.120   2.122   2.148   2.171   2.177   2.187   2.195
  2.216   2.248   2.265   2.272   2.274   2.292   2.327   2.329
  2.332   2.339   2.348   2.367   2.441   2.498   2.508   2.553
  2.559   2.603   2.614   2.619   2.623   2.668   2.679   2.702
  2.702   2.722   2.726   2.762   2.795   2.807   2.871   2.903
  2.909   2.964   3.077   3.320   3.450   3.465  13.147  13.246
 13.561  13.620  13.648  13.683  13.808  13.820  14.075  14.094
 14.122  14.153  14.219  14.487  14.496  19.321
 
 Beta MOs
 -- Occupied --
-14.811 -10.591 -10.591 -10.549 -10.547 -10.547 -10.535 -10.535
-10.527 -10.527 -10.525 -10.525 -10.525 -10.525 -10.489 -10.489
 -1.191  -1.049  -1.039  -0.991  -0.942  -0.923  -0.900  -0.882
 -0.832  -0.812  -0.800  -0.758  -0.755  -0.703  -0.698  -0.693
 -0.621  -0.614  -0.609  -0.603  -0.582  -0.574  -0.569  -0.563
 -0.553  -0.528  -0.518  -0.515  -0.501  -0.501  -0.487  -0.487
 -0.464  -0.455  -0.446  -0.444  -0.372  -0.364  -0.361
 -- Virtual --
 -0.206  -0.065  -0.061  -0.049  -0.007   0.052   0.073   0.088
  0.094   0.115   0.115   0.123   0.136   0.140   0.156   0.161
  0.162   0.168   0.174   0.183   0.191   0.195   0.208   0.214
  0.224   0.230   0.243   0.245   0.263   0.274   0.275   0.302
  0.305   0.312   0.336   0.368   0.398   0.417   0.433   0.436
  0.439   0.449   0.471   0.473   0.482   0.494   0.510   0.513
  0.514   0.524   0.539   0.544   0.548   0.551   0.553   0.555
  0.558   0.564   0.580   0.583   0.589   0.602   0.604   0.637
  0.649   0.676   0.688   0.689   0.718   0.722   0.734   0.734
  0.749   0.749   0.791   0.828   0.837   0.848   0.863   0.886
  0.904   0.909   0.915   0.926   0.927   0.931   0.957   0.959
  0.967   0.979   0.988   0.995   0.999   1.009   1.015   1.033
  1.043   1.053   1.055   1.061   1.075   1.083   1.103   1.136
  1.176   1.185   1.194   1.218   1.230   1.234   1.252   1.271
  1.278   1.324   1.340   1.358   1.389   1.398   1.412   1.437
  1.460   1.465   1.471   1.477   1.482   1.501   1.537   1.570
  1.583   1.632   1.658   1.675   1.739   1.743   1.762   1.763
  1.801   1.836   1.838   1.850   1.852   1.868   1.897   1.901
  1.908   1.970   1.988   2.022   2.046   2.048   2.060   2.069
  2.102   2.107   2.122   2.127   2.149   2.175   2.182   2.191
  2.198   2.221   2.252   2.269   2.275   2.277   2.295   2.328
  2.334   2.336   2.340   2.358   2.373   2.449   2.500   2.510
  2.555   2.561   2.606   2.618   2.622   2.626   2.669   2.680
  2.703   2.708   2.725   2.727   2.764   2.799   2.808   2.873
  2.905   2.910   2.967   3.078   3.321   3.451   3.466  13.148
 13.247  13.562  13.622  13.648  13.686  13.808  13.820  14.076
 14.095  14.123  14.154  14.220  14.488  14.497  19.335
 --------------------------------------------------------------
 
          Ground-State Mulliken Net Atomic Charges

     Atom                 Charge (a.u.)    Spin (a.u.)
  --------------------------------------------------------
      1 H                     0.431405      -0.018512
      2 N                    -0.704091       0.408277
      3 C                     0.341210      -0.079055
      4 C                     0.186538       0.232239
      5 C                    -0.239444      -0.038622
      6 C                    -0.301984      -0.155209
      7 H                     0.266458       0.007212
      8 C                    -0.194769       0.266978
      9 H                     0.280716      -0.014225
     10 C                    -0.238476      -0.131456
     11 H                     0.280361       0.005855
     12 C                    -0.285104       0.179612
     13 H                     0.279297      -0.009945
     14 C                     0.342480      -0.078948
     15 C                     0.185757       0.231564
     16 C                    -0.302281      -0.154839
     17 H                     0.266810       0.007198
     18 C                    -0.194710       0.266607
     19 H                     0.280668      -0.014211
     20 C                    -0.238322      -0.131285
     21 H                     0.280357       0.005847
     22 C                    -0.285257       0.179364
     23 H                     0.279215      -0.009932
     24 C                    -0.606517       0.023240
     25 C                    -0.607085       0.022998
     26 H                     0.250169      -0.000851
     27 H                     0.248959       0.000217
     28 H                     0.249054       0.000264
     29 H                     0.250117      -0.000829
     30 H                     0.249146       0.000231
     31 H                     0.249323       0.000211
  --------------------------------------------------------
  Sum of atomic charges =     1.000000
  Sum of spin   charges =     1.000000

 -----------------------------------------------------------------
                    Cartesian Multipole Moments
 -----------------------------------------------------------------
    Charge (ESU x 10^10)
                 4.8032
    Dipole Moment (Debye)
         X     -43.8777      Y     -40.8679      Z     -45.6294
       Tot      75.3491
    Quadrupole Moments (Debye-Ang)
        XX     345.3781     XY     368.3212     YY     261.4126
        XZ     411.7953     YZ     405.2211     ZZ     365.3625
    Octopole Moments (Debye-Ang^2)
       XXX   -2052.2455    XXY   -2827.3800    XYY   -2268.8947
       YYY    -698.8331    XXZ   -3154.0824    XYZ   -3610.2897
       YYZ   -2739.4994    XZZ   -3207.0586    YZZ   -3415.6407
       ZZZ   -2077.2095
    Hexadecapole Moments (Debye-Ang^3)
      XXXX     597.7587   XXXY   15793.2958   XXYY   14798.2802
      XYYY    4681.8655   YYYY  -15010.7660   XXXZ   17461.7122
      XXYZ   27150.3006   XYYZ   23582.1256   YYYZ    9120.5661
      XXZZ   21903.5802   XYZZ   29620.7408   YYZZ   22961.3053
      XZZZ   16866.1271   YZZZ   21578.1276   ZZZZ   -2922.3441
 -----------------------------------------------------------------
 Calculating analytic gradient of the SCF energy
 -1.458677546124365E-004 -1.458821384397932E-004
 -1.458709230050051E-004 -1.458789828587314E-004
 -1.458672735008400E-004 -1.458826246111996E-004
 -1.458798873872161E-004 -1.458699984452537E-004
 -1.458777972365112E-004 -1.458721208048138E-004
 -1.458802024311496E-004 -1.458696944621203E-004
 -1.458844165120803E-004 -1.458654879143946E-004
 -1.458763925965810E-004 -1.458735326248808E-004
 -1.458783542357987E-004 -1.458715508854814E-004
 -1.458743565907449E-004 -1.458755521792745E-004
 -1.458746015844290E-004 -1.458753268841769E-004
 -1.458745898421888E-004 -1.458753247855328E-004
 -1.458675840209989E-004 -1.458823177345651E-004
 -1.458707207830075E-004 -1.458791964623953E-004
 -1.458671318082261E-004 -1.458827766812296E-004
 -1.458656412573118E-004 -1.458842608546116E-004
 -1.458725797364366E-004 -1.458773379363645E-004
 -1.458702407381210E-004 -1.458796615138582E-004
 -1.458772876310174E-004 -1.458726026979915E-004
 -1.458722989328186E-004 -1.458776021924299E-004
 -1.458705856051443E-004 -1.458793077613412E-004
 -1.458792184066246E-004 -1.458706741337266E-004
 -1.458743098722349E-004 -1.458756120509202E-004
 -1.458742451571698E-004 -1.458756663656819E-004
 -1.458803420266783E-004 -1.458695640167117E-004
 -1.458695954867603E-004 -1.458803149985099E-004
 -1.458661962941029E-004 -1.458837088802044E-004
 -1.458745980071793E-004 -1.458753141374725E-004
 -1.458688578555207E-004 -1.458810628961570E-004
 -1.458645560519006E-004 -1.458853473459616E-004
 -1.458798881063023E-004 -1.458700188301777E-004
 -1.458721542010996E-004 -1.458777650447296E-004
 -1.458705059801236E-004 -1.458794133956617E-004
 -1.458822865174435E-004 -1.458676027499270E-004
 -1.458736222495822E-004 -1.458762959039687E-004
 -1.458733979376783E-004 -1.458765078424075E-004
 -1.458761843137091E-004 -1.458737076594902E-004
 -1.458698125404160E-004 -1.458800947091355E-004
 -1.458663150000436E-004 -1.458835880582739E-004
 -1.458768125404484E-004 -1.458730839242738E-004
 -1.458799330519022E-004 -1.458699942077070E-004
 -1.458836136941249E-004 -1.458662972280590E-004
 -1.458745593322151E-004 -1.458753470936534E-004
 -1.458745813971485E-004 -1.458753476750501E-004
 -1.458743756367692E-004 -1.458755407305908E-004
 -1.458714863677585E-004 -1.458784069744808E-004
 -1.458699510716006E-004 -1.458799688553744E-004
 -1.458661827229271E-004 -1.458837259545388E-004
 -1.458694985891983E-004 -1.458803920492105E-004
 -1.458758611006108E-004 -1.458740399083814E-004
 -1.458759947946826E-004 -1.458738983718433E-004
 -1.458732372740867E-004 -1.458766708984662E-004
 -1.458770731929674E-004 -1.458728445881013E-004
 -1.458783949578530E-004 -1.458715050463511E-004
 -1.458638311111242E-004 -1.458860738840622E-004
 -1.458771294689523E-004 -1.458727813120532E-004
 -1.458776529627801E-004 -1.458722530616981E-004
 -1.458631242999803E-004 -1.458867729416433E-004
 -1.458740777821440E-004 -1.458758468654378E-004
 -1.458724524110212E-004 -1.458774620460302E-004
 -1.458689403011899E-004 -1.458809825944558E-004
 -1.458771610042732E-004 -1.458727540601921E-004
 -1.458781765833951E-004 -1.458717309914307E-004
 -1.458715596623641E-004 -1.458783410725206E-004
 -1.458785465472043E-004 -1.458713685789023E-004
 -1.458807717390786E-004 -1.458691257234270E-004
 -1.458648794479848E-004 -1.458850195824629E-004
 -1.458750319790263E-004 -1.458748733919207E-004
 -1.458742067907181E-004 -1.458756910825969E-004
 -1.458750326717783E-004 -1.458748619473462E-004
 -1.458854078125183E-004 -1.458644997930181E-004
 -1.458681032278820E-004 -1.458817840424792E-004
 -1.458739477776040E-004 -1.458759455050061E-004
 -1.458640081692529E-004 -1.458858846498845E-004
 -1.458807287343073E-004 -1.458691747065859E-004
 -1.458818612366430E-004 -1.458680303464938E-004
 -1.458859755769404E-004 -1.458638996346063E-004
 -1.458776891426094E-004 -1.458721956628595E-004
 -1.458823529630371E-004 -1.458675468280031E-004
 -1.458788013529015E-004 -1.458710978727930E-004
 -1.458797406815874E-004 -1.458701448300706E-004
[...]
    3   0.0140144  -0.0043746  -0.0044244   0.0057141  -0.0144023   0.0060067
           19          20          21          22          23          24
    1   0.0072595  -0.0030078   0.0187048  -0.0115553   0.0127609   0.0102859
    2  -0.0087348  -0.0023732  -0.0016687  -0.0014580   0.0081540  -0.0148167
    3  -0.0145007  -0.0044747  -0.0012451  -0.0036729   0.0154615   0.0245025
           25          26          27          28          29          30
    1   0.0121805   0.0064009  -0.0155366   0.0034291   0.0053798   0.0038197
    2   0.0280630   0.0142759   0.0008829  -0.0078068  -0.0073941  -0.0080167
    3  -0.0011184  -0.0004049   0.0003370  -0.0131272   0.0127208  -0.0128261
           31
    1  -0.0154149
    2   0.0008494
    3   0.0004430
 Max gradient component =       2.806E-02
 RMS gradient           =       1.008E-02
 Computing fast IEFPCM-SWIG gradient.
 Updating gradient with PCM contributions...
 -- total gradient after adding PCM contribution --
---------------------------------------------------
  Atom         X              Y              Z     
---------------------------------------------------
   1      -0.000026       0.000003      -0.000008
   2       0.000035       0.000023       0.000036
   3      -0.000065      -0.000016      -0.000044
   4       0.000037      -0.000020      -0.000001
   5       0.000032      -0.000004       0.000034
   6      -0.000036       0.000010      -0.000002
   7      -0.000003      -0.000006      -0.000019
   8      -0.000004      -0.000016      -0.000036
   9      -0.000016      -0.000003      -0.000018
  10      -0.000028       0.000017       0.000014
  11      -0.000025      -0.000002      -0.000016
  12       0.000018      -0.000002      -0.000004
  13      -0.000024       0.000012       0.000002
  14      -0.000031      -0.000025      -0.000039
  15      -0.000014       0.000032       0.000030
  16       0.000025      -0.000015      -0.000008
  17       0.000009      -0.000002       0.000011
  18      -0.000011       0.000004       0.000015
  19       0.000019       0.000001       0.000016
  20       0.000041       0.000002       0.000012
  21       0.000004       0.000009       0.000020
  22      -0.000014       0.000029       0.000046
  23       0.000005       0.000009       0.000012
  24      -0.000008       0.000017      -0.000040
  25       0.000003      -0.000010      -0.000002
  26       0.000009      -0.000016       0.000000
  27       0.000017      -0.000017      -0.000002
  28       0.000014      -0.000008       0.000009
  29       0.000002       0.000002      -0.000005
  30       0.000017      -0.000002      -0.000001
  31       0.000017      -0.000004      -0.000011
---------------------------------------------------
 Number of fixed atoms: 0
 Gradient time:  CPU 69.51 s  wall 25.37 s
 Geometry Optimization Parameters
   NAtoms,    NIC,     NZ,  NCons,   NDum,   NFix, NCnnct, MaxDiis
       31     238       0       0       0       0       0       0

 Cartesian Hessian Update
 Hessian Updated using BFGS Update


** GEOMETRY OPTIMIZATION IN DELOCALIZED INTERNAL COORDINATES **
   Searching for a Minimum

   Optimization Cycle:   8

                       Coordinates (Angstroms)
     ATOM                X               Y               Z
      1  H        -7.8228845001   -7.7804605918   -8.0901113141
      2  N        -8.4687408460   -8.1433997166   -8.7830053952
      3  C        -9.7942180032   -7.9404894013   -8.5652810590
      4  C       -10.7278639872   -8.4222314430   -9.5010230103
      5  C       -10.3049090383   -9.1780684273  -10.7414612658
      6  C       -12.0661624640   -8.1804883518   -9.2325135175
      7  H       -12.8246392582   -8.5280233102   -9.9210763147
      8  C       -12.4664671258   -7.4971656665   -8.0937895115
      9  H       -13.5197891528   -7.3266868598   -7.9181351881
     10  C       -11.5237863800   -7.0300413162   -7.1750980320
     11  H       -11.8417904392   -6.4996329964   -6.2888407404
     12  C       -10.1900820431   -7.2492049617   -7.4061088925
     13  H        -9.4428184833   -6.8954935472   -6.7064761542
     14  C        -7.9401672820   -8.7868564442   -9.8567829023
     15  C        -8.8008873148   -9.3066912763  -10.8406237779
     16  C        -8.2083655913   -9.9557421646  -11.9122616647
     17  H        -8.8274426321  -10.3757230614  -12.6935709717
     18  C        -6.8307873170  -10.0841354808  -12.0118899976
     19  H        -6.4038800262  -10.5963167032  -12.8631690391
     20  C        -5.9933426539   -9.5591450912  -11.0249667199
     21  H        -4.9207943791   -9.6620424890  -11.1077758659
     22  C        -6.5421886470   -8.9115456788   -9.9481687984
     23  H        -5.9109940051   -8.4979624587   -9.1708654375
     24  C       -10.8289422044   -8.4328180573  -11.9863543310
     25  C       -10.9190243399  -10.5928113757  -10.6900684328
     26  H       -10.4115858437   -7.4289884009  -12.0550236019
     27  H       -11.9147934741   -8.3502394225  -11.9573184075
     28  H       -10.5714891991   -8.9717838115  -12.8973860333
     29  H       -10.5716025428  -11.1460712903   -9.8183875255
     30  H       -10.6548972624  -11.1613022673  -11.5813140942
     31  H       -12.0061635637  -10.5385379365  -10.6480520034
   Point Group: c1    Number of degrees of freedom:    87


   Energy is   -633.802981130

 Hessian Updated using BFGS Update

 83 Hessian modes will be used to form the next step
  Hessian Eigenvalues:
     0.002341    0.002847    0.003843    0.012854    0.014048    0.014782
     0.015902    0.017532    0.018436    0.019149    0.021881    0.021904
     0.021941    0.021982    0.022120    0.023092    0.023149    0.023155
     0.023169    0.023496    0.023525    0.024301    0.046869    0.053440
     0.053507    0.054021    0.054497    0.061952    0.069296    0.135829
     0.141801    0.156718    0.158421    0.159999    0.160000    0.160000
     0.160205    0.160269    0.160879    0.162316    0.165288    0.176452
     0.217888    0.219941    0.226233    0.227573    0.236184    0.245323
     0.247690    0.251640    0.259239    0.276786    0.293262    0.312349
     0.324342    0.325215    0.327091    0.327744    0.332047    0.334503
     0.355740    0.355840    0.356732    0.356850    0.356910    0.356981
     0.359200    0.359573    0.379069    0.382713    0.407334    0.414624
     0.417605    0.422164    0.427600    0.437311    0.442079    0.452499
     0.457809    0.458790    0.467004    0.468586    0.535472

 Minimum Search - Taking Simple RFO Step
 Searching for Lamda that Minimizes Along All modes
 Value Taken    Lamda =   0.00000000
 Step Taken.  Stepsize is  0.001814

                             Maximum     Tolerance    Cnvgd?
         Gradient           0.000037      0.000075     YES
         Displacement       0.000842      0.001200     YES
         Energy change     -0.000001      0.000000      NO

 Final energy is   -633.802981130043     


 ******************************
 **  OPTIMIZATION CONVERGED  **
 ******************************

                       Coordinates (Angstroms)
     ATOM                X               Y               Z
      1  H        -7.8228845001   -7.7804605918   -8.0901113141
      2  N        -8.4687408460   -8.1433997166   -8.7830053952
      3  C        -9.7942180032   -7.9404894013   -8.5652810590
      4  C       -10.7278639872   -8.4222314430   -9.5010230103
      5  C       -10.3049090383   -9.1780684273  -10.7414612658
      6  C       -12.0661624640   -8.1804883518   -9.2325135175
      7  H       -12.8246392582   -8.5280233102   -9.9210763147
      8  C       -12.4664671258   -7.4971656665   -8.0937895115
      9  H       -13.5197891528   -7.3266868598   -7.9181351881
     10  C       -11.5237863800   -7.0300413162   -7.1750980320
     11  H       -11.8417904392   -6.4996329964   -6.2888407404
     12  C       -10.1900820431   -7.2492049617   -7.4061088925
     13  H        -9.4428184833   -6.8954935472   -6.7064761542
     14  C        -7.9401672820   -8.7868564442   -9.8567829023
     15  C        -8.8008873148   -9.3066912763  -10.8406237779
     16  C        -8.2083655913   -9.9557421646  -11.9122616647
     17  H        -8.8274426321  -10.3757230614  -12.6935709717
     18  C        -6.8307873170  -10.0841354808  -12.0118899976
     19  H        -6.4038800262  -10.5963167032  -12.8631690391
     20  C        -5.9933426539   -9.5591450912  -11.0249667199
     21  H        -4.9207943791   -9.6620424890  -11.1077758659
     22  C        -6.5421886470   -8.9115456788   -9.9481687984
     23  H        -5.9109940051   -8.4979624587   -9.1708654375
     24  C       -10.8289422044   -8.4328180573  -11.9863543310
     25  C       -10.9190243399  -10.5928113757  -10.6900684328
     26  H       -10.4115858437   -7.4289884009  -12.0550236019
     27  H       -11.9147934741   -8.3502394225  -11.9573184075
     28  H       -10.5714891991   -8.9717838115  -12.8973860333
     29  H       -10.5716025428  -11.1460712903   -9.8183875255
     30  H       -10.6548972624  -11.1613022673  -11.5813140942
     31  H       -12.0061635637  -10.5385379365  -10.6480520034

Z-matrix Print:
$molecule
1 2
N 
H  1 1.014375
C  1 1.358479 2 117.278528
C  1 1.358832 2 117.486344 3 179.674659 0
C  4 1.406500 1 118.682664 2 -0.069900 0
H  5 1.083355 4 119.909862 1 -0.009776 0
C  5 1.371171 4 119.389565 1 179.943410 0
H  7 1.080650 5 120.160444 4 179.996395 0
C  7 1.396763 5 119.499389 4 -0.024815 0
H  9 1.081321 7 119.840312 5 -179.969893 0
C  9 1.387131 7 120.656728 5 0.025702 0
H  11 1.081704 9 118.721980 7 -179.890050 0
C  11 1.385914 9 121.565393 7 0.065179 0
C  3 1.406507 1 118.692791 2 -0.069470 0
H  14 1.083052 3 119.914709 1 -0.312971 0
C  14 1.371191 3 119.417016 1 179.663197 0
H  16 1.080700 14 120.186874 3 -179.953038 0
C  16 1.396727 14 119.485332 3 0.030814 0
H  18 1.081390 16 119.857134 14 -179.931571 0
C  18 1.387035 16 120.661957 14 0.114112 0
H  20 1.081752 18 118.586841 16 179.954253 0
C  20 1.386211 18 121.571815 16 -0.088120 0
C  13 1.512765 11 121.035249 9 -179.770223 0
C  23 1.542650 13 109.020756 11 -58.725132 0
H  24 1.089301 23 111.463716 13 -61.044128 0
H  24 1.089374 23 110.714396 13 178.352862 0
H  24 1.089378 23 110.828859 13 59.555156 0
C  23 1.543139 13 108.656727 11 60.611385 0
H  28 1.089304 23 110.657479 13 -178.320070 0
H  28 1.089324 23 111.429732 13 61.213758 0
H  28 1.089616 23 110.769866 13 -59.289398 0
$end

 
 --------------------------------------------------------------
 
                    Orbital Energies (a.u.)
 --------------------------------------------------------------
 
 Alpha MOs
 -- Occupied --
-14.822 -10.590 -10.590 -10.551 -10.551 -10.548 -10.538 -10.538
-10.531 -10.531 -10.523 -10.523 -10.523 -10.523 -10.490 -10.490
 -1.208  -1.053  -1.046  -0.994  -0.946  -0.926  -0.903  -0.891
 -0.834  -0.814  -0.806  -0.761  -0.757  -0.705  -0.701  -0.696
 -0.624  -0.617  -0.613  -0.610  -0.605  -0.576  -0.570  -0.564
 -0.554  -0.543  -0.526  -0.515  -0.503  -0.502  -0.494  -0.487
 -0.478  -0.460  -0.457  -0.446  -0.387  -0.378  -0.370  -0.331
 -- Virtual --
 -0.079  -0.070  -0.057  -0.030   0.048   0.073   0.087   0.092
  0.108   0.113   0.113   0.134   0.139   0.153   0.160   0.161
  0.166   0.173   0.182   0.189   0.195   0.205   0.211   0.222
  0.229   0.241   0.244   0.262   0.273   0.274   0.302   0.303
  0.311   0.335   0.366   0.393   0.416   0.427   0.435   0.439
  0.447   0.469   0.471   0.476   0.493   0.505   0.507   0.512
  0.522   0.525   0.541   0.546   0.549   0.552   0.552   0.555
  0.560   0.577   0.585   0.586   0.594   0.601   0.634   0.643
  0.675   0.683   0.686   0.718   0.720   0.727   0.733   0.744
  0.748   0.784   0.827   0.835   0.848   0.858   0.888   0.893
  0.902   0.907   0.925   0.925   0.929   0.956   0.958   0.965
  0.981   0.987   0.993   0.999   1.004   1.013   1.031   1.042
  1.052   1.054   1.059   1.075   1.081   1.103   1.134   1.171
  1.182   1.193   1.209   1.225   1.233   1.250   1.268   1.276
  1.318   1.337   1.345   1.386   1.396   1.409   1.433   1.455
  1.462   1.469   1.474   1.478   1.498   1.534   1.568   1.578
  1.629   1.653   1.663   1.737   1.738   1.760   1.763   1.798
  1.826   1.835   1.847   1.847   1.858   1.895   1.899   1.904
  1.969   1.985   2.022   2.045   2.046   2.057   2.068   2.097
  2.104   2.121   2.122   2.148   2.170   2.178   2.187   2.196
  2.216   2.248   2.265   2.271   2.273   2.293   2.326   2.328
  2.332   2.339   2.347   2.367   2.440   2.498   2.506   2.553
  2.559   2.603   2.613   2.618   2.623   2.668   2.679   2.701
  2.703   2.722   2.726   2.762   2.795   2.807   2.871   2.903
  2.909   2.964   3.076   3.320   3.450   3.466  13.147  13.247
 13.561  13.620  13.648  13.683  13.807  13.820  14.076  14.094
 14.121  14.152  14.220  14.488  14.496  19.321
 
 Beta MOs
 -- Occupied --
-14.811 -10.591 -10.591 -10.549 -10.547 -10.547 -10.535 -10.535
-10.527 -10.527 -10.525 -10.525 -10.525 -10.525 -10.490 -10.489
 -1.191  -1.049  -1.039  -0.991  -0.942  -0.923  -0.900  -0.882
 -0.831  -0.812  -0.800  -0.758  -0.755  -0.703  -0.698  -0.692
 -0.621  -0.614  -0.609  -0.603  -0.581  -0.575  -0.569  -0.563
 -0.553  -0.528  -0.518  -0.515  -0.501  -0.501  -0.488  -0.486
 -0.464  -0.456  -0.446  -0.444  -0.373  -0.364  -0.360
 -- Virtual --
 -0.206  -0.065  -0.061  -0.049  -0.007   0.052   0.073   0.088
  0.095   0.114   0.115   0.123   0.136   0.140   0.156   0.161
  0.162   0.168   0.174   0.183   0.191   0.195   0.208   0.214
  0.224   0.230   0.243   0.246   0.263   0.274   0.275   0.303
  0.305   0.312   0.337   0.368   0.398   0.417   0.433   0.436
  0.440   0.449   0.471   0.473   0.482   0.494   0.510   0.513
  0.514   0.524   0.539   0.544   0.548   0.551   0.553   0.555
  0.559   0.564   0.580   0.583   0.589   0.602   0.604   0.637
  0.649   0.676   0.688   0.689   0.718   0.721   0.733   0.735
  0.749   0.750   0.791   0.828   0.837   0.848   0.862   0.886
  0.904   0.909   0.915   0.926   0.927   0.931   0.957   0.959
  0.967   0.979   0.988   0.995   1.000   1.009   1.015   1.033
  1.043   1.052   1.055   1.061   1.075   1.083   1.104   1.136
  1.176   1.185   1.194   1.217   1.230   1.234   1.252   1.270
  1.278   1.324   1.340   1.358   1.390   1.398   1.412   1.437
  1.460   1.465   1.471   1.477   1.482   1.502   1.537   1.570
  1.583   1.632   1.657   1.676   1.739   1.743   1.762   1.763
  1.800   1.836   1.838   1.850   1.851   1.868   1.897   1.901
  1.908   1.971   1.989   2.023   2.046   2.048   2.060   2.069
  2.102   2.107   2.123   2.128   2.149   2.175   2.183   2.191
  2.199   2.221   2.251   2.269   2.274   2.276   2.296   2.327
  2.333   2.337   2.340   2.357   2.373   2.448   2.500   2.508
  2.555   2.561   2.606   2.617   2.622   2.627   2.669   2.680
  2.703   2.708   2.725   2.728   2.764   2.799   2.809   2.873
  2.905   2.911   2.967   3.078   3.321   3.451   3.467  13.148
 13.248  13.562  13.622  13.648  13.686  13.808  13.819  14.077
 14.095  14.122  14.153  14.221  14.489  14.497  19.335
 --------------------------------------------------------------
 
          Ground-State Mulliken Net Atomic Charges

     Atom                 Charge (a.u.)    Spin (a.u.)
  --------------------------------------------------------
      1 H                     0.431448      -0.018501
      2 N                    -0.704482       0.407484
      3 C                     0.341940      -0.078923
      4 C                     0.186789       0.232763
      5 C                    -0.241291      -0.038893
      6 C                    -0.302276      -0.155057
      7 H                     0.266579       0.007202
      8 C                    -0.194781       0.266924
      9 H                     0.280746      -0.014228
     10 C                    -0.238846      -0.130921
     11 H                     0.280272       0.005831
     12 C                    -0.284740       0.178359
     13 H                     0.279107      -0.009889
     14 C                     0.342124      -0.078871
     15 C                     0.187029       0.232260
     16 C                    -0.302222      -0.154798
     17 H                     0.266756       0.007194
     18 C                    -0.194980       0.266574
     19 H                     0.280636      -0.014209
     20 C                    -0.238801      -0.130714
     21 H                     0.280266       0.005821
     22 C                    -0.284610       0.178076
     23 H                     0.279017      -0.009875
     24 C                    -0.607019       0.022963
     25 C                    -0.604709       0.024248
     26 H                     0.250686      -0.000795
     27 H                     0.248778       0.000148
     28 H                     0.248776       0.000152
     29 H                     0.249500      -0.000896
     30 H                     0.249054       0.000288
     31 H                     0.249252       0.000281
  --------------------------------------------------------
  Sum of atomic charges =     1.000000
  Sum of spin   charges =     1.000000

 -----------------------------------------------------------------
                    Cartesian Multipole Moments
 -----------------------------------------------------------------
    Charge (ESU x 10^10)
                 4.8032
    Dipole Moment (Debye)
         X     -43.8861      Y     -40.9041      Z     -45.6097
       Tot      75.3617
    Quadrupole Moments (Debye-Ang)
        XX     345.4900     XY     368.5725     YY     261.8023
        XZ     411.8145     YZ     405.2641     ZZ     365.2163
    Octopole Moments (Debye-Ang^2)
       XXX   -2053.3545    XXY   -2828.3004    XYY   -2270.8463
       YYY    -701.3987    XXZ   -3155.9329    XYZ   -3611.0949
       YYZ   -2739.3548    XZZ   -3208.4380    YZZ   -3415.3596
       ZZZ   -2078.1861
    Hexadecapole Moments (Debye-Ang^3)
      XXXX     608.4065   XXXY   15783.4343   XXYY   14794.2399
      XYYY    4688.1473   YYYY  -15000.0362   XXXZ   17494.5358
      XXYZ   27157.5182   XYYZ   23576.4697   YYYZ    9099.4943
      XXZZ   21941.8219   XYZZ   29631.1141   YYZZ   22942.1060
      XZZZ   16903.9310   YZZZ   21589.1479   ZZZZ   -2875.6058
 -----------------------------------------------------------------
Archival summary:
1\1\ctcp005\OPT\ProcedureUnspecified\BasisUnspecified\11515(1+,2)\mewes1\MonDec311:08:512018MonDec311:08:512018\0\\#,OPT,ProcedureUnspecified,BasisUnspecified,\\1,2\N\H,1,1.01438\C,1,1.35848,2,117.279\C,1,1.35883,2,117.486,3,179.675,0\C,4,1.4065,1,118.683,2,-0.0698995,0\H,5,1.08336,4,119.91,1,-0.00977581,0\C,5,1.37117,4,119.39,1,179.943,0\H,7,1.08065,5,120.16,4,179.996,0\C,7,1.39676,5,119.499,4,-0.0248155,0\H,9,1.08132,7,119.84,5,-179.97,0\C,9,1.38713,7,120.657,5,0.0257017,0\H,11,1.0817,9,118.722,7,-179.89,0\C,11,1.38591,9,121.565,7,0.0651787,0\C,3,1.40651,1,118.693,2,-0.0694699,0\H,14,1.08305,3,119.915,1,-0.312971,0\C,14,1.37119,3,119.417,1,179.663,0\H,16,1.0807,14,120.187,3,-179.953,0\C,16,1.39673,14,119.485,3,0.0308138,0\H,18,1.08139,16,119.857,14,-179.932,0\C,18,1.38703,16,120.662,14,0.114112,0\H,20,1.08175,18,118.587,16,179.954,0\C,20,1.38621,18,121.572,16,-0.0881201,0\C,13,1.51277,11,121.035,9,-179.77,0\C,23,1.54265,13,109.021,11,-58.7251,0\H,24,1.0893,23,111.464,13,-61.0441,0\H,24,1.08937,23,110.714,13,178.353,0\H,24,1.08938,23,110.829,13,59.5552,0\C,23,1.54314,13,108.657,11,60.6114,0\H,28,1.0893,23,110.657,13,-178.32,0\H,28,1.08932,23,111.43,13,61.2138,0\H,28,1.08962,23,110.77,13,-59.2894,0\\\@

 Total job time:  1410.88s(wall), 5158.85s(cpu) 
 Mon Dec  3 11:08:51 2018

        *************************************************************
        *                                                           *
        *  Thank you very much for using Q-Chem.  Have a nice day.  *
        *                                                           *
        *************************************************************


0 sent ACK to 0 
now end server 0 ... 
