mFile = /cm/shared/apps/q-chem/intel/QCHEM_5.1.0_Trunk/bin/mpi/machines
Process 0 of 1 is on ctcp042 - thread support 0
initial socket setup ...start
initial socket setup ...done 
now start server 0 ... 
Q-Chem Developer Version!
                  Welcome to Q-Chem
     A Quantum Leap Into The Future Of Chemistry


 Q-Chem 5.1, Q-Chem, Inc., Pleasanton, CA (2018)

 Yihan Shao,  Zhengting Gan,  E. Epifanovsky,  A. T. B. Gilbert,  M. Wormit,  
 J. Kussmann,  A. W. Lange,  A. Behn,  Jia Deng,  Xintian Feng,  D. Ghosh,  
 M. Goldey,  P. R. Horn,  L. D. Jacobson,  I. Kaliman,  T. Kus,  A. Landau,  
 Jie Liu,  E. I. Proynov,  R. M. Richard,  R. P. Steele,  E. J. Sundstrom,  
 H. L. Woodcock III,  P. M. Zimmerman,  D. Zuev,  B. Albrecht,  E. Alguire,  
 S. A. Baeppler,  D. Barton,  Z. Benda,  Y. A. Bernard,  E. J. Berquist,  
 K. B. Bravaya,  H. Burton,  D. Casanova,  Chun-Min Chang,  Yunqing Chen,  
 A. Chien,  K. D. Closser,  M. P. Coons,  S. Coriani,  S. Dasgupta,  
 A. L. Dempwolff,  M. Diedenhofen,  Hainam Do,  R. G. Edgar,  Po-Tung Fang,  
 S. Faraji,  S. Fatehi,  Qingguo Feng,  K. D. Fenk,  J. Fosso-Tande,  
 Qinghui Ge,  A. Ghysels,  G. Gidofalvi,  J. Gomes,  J. Gonthier,  A. Gunina,  
 D. Hait,  M. W. D. Hanson-Heine,  P. H. P. Harbach,  A. W. Hauser,  
 J. E. Herr,  E. G. Hohenstein,  Z. C. Holden,  Kerwin Hui,  B. C. Huynh,  
 T.-C. Jagau,  Hyunjun Ji,  B. Kaduk,  K. Khistyaev,  Jaehoon Kim,  
 P. Klunzinger,  K. Koh,  D. Kosenkov,  L. Koulias,  T. Kowalczyk,  
 C. M. Krauter,  A. Kunitsa,  Ka Un Lao,  A. Laurent,  K. V. Lawler,  
 Joonho Lee,  D. Lefrancois,  S. Lehtola,  D. S. Levine,  Yi-Pei Li,  
 You-Sheng Lin,  Fenglai Liu,  E. Livshits,  A. Luenser,  P. Manohar,  
 E. Mansoor,  S. F. Manzer,  Shan-Ping Mao,  Yuezhi Mao,  N. Mardirossian,  
 A. V. Marenich,  T. Markovich,  L. A. Martinez-Martinez,  S. A. Maurer,  
 N. J. Mayhall,  S. C. McKenzie,  J.-M. Mewes,  A. F. Morrison,  
 J. W. Mullinax,  K. Nanda,  T. S. Nguyen-Beck,  R. Olivares-Amaya,  
 J. A. Parkhill,  T. M. Perrine,  F. Plasser,  P. Pokhilko,  S. Prager,  
 A. Prociuk,  E. Ramos,  D. R. Rehn,  F. Rob,  M. Schneider,  N. Sergueev,  
 S. M. Sharada,  S. Sharma,  D. W. Small,  T. Stauch,  T. Stein,  
 Yu-Chuan Su,  A. J. W. Thom,  A. Tkatchenko,  T. Tsuchimochi,  N. M. Tubman,  
 L. Vogt,  M. L. Vidal,  O. Vydrov,  M. A. Watson,  J. Wenzel,  
 M. de Wergifosse,  T. A. Wesolowski,  A. White,  J. Witte,  A. Yamada,  
 Jun Yang,  K. Yao,  S. Yeganeh,  S. R. Yost,  Zhi-Qiang You,  A. Zech,  
 Igor Ying Zhang,  Xing Zhang,  Yan Zhao,  Ying Zhu,  B. R. Brooks,  
 G. K. L. Chan,  C. J. Cramer,  M. S. Gordon,  W. J. Hehre,  A. Klamt,  
 M. W. Schmidt,  C. D. Sherrill,  D. G. Truhlar,  A. Aspuru-Guzik,  R. Baer,  
 A. T. Bell,  N. A. Besley,  Jeng-Da Chai,  A. E. DePrince, III,  
 R. A. DiStasio Jr.,  A. Dreuw,  B. D. Dunietz,  T. R. Furlani,  
 Chao-Ping Hsu,  Yousung Jung,  Jing Kong,  D. S. Lambrecht,  WanZhen Liang,  
 C. Ochsenfeld,  V. A. Rassolov,  L. V. Slipchenko,  J. E. Subotnik,  
 T. Van Voorhis,  J. M. Herbert,  A. I. Krylov,  P. M. W. Gill,  M. Head-Gordon

 Contributors to earlier versions of Q-Chem not listed above: 
 R. D. Adamson,  B. Austin,  J. Baker,  G. J. O. Beran,  K. Brandhorst,  
 S. T. Brown,  E. F. C. Byrd,  A. K. Chakraborty,  C.-L. Cheng,  
 Siu Hung Chien,  D. M. Chipman,  D. L. Crittenden,  H. Dachsel,  
 R. J. Doerksen,  A. D. Dutoi,  L. Fusti-Molnar,  W. A. Goddard III,  
 A. Golubeva-Zadorozhnaya,  S. R. Gwaltney,  G. Hawkins,  A. Heyden,  
 S. Hirata,  G. Kedziora,  F. J. Keil,  C. Kelley,  Jihan Kim,  R. A. King,  
 R. Z. Khaliullin,  P. P. Korambath,  W. Kurlancheek,  A. M. Lee,  M. S. Lee,  
 S. V. Levchenko,  Ching Yeh Lin,  D. Liotard,  R. C. Lochan,  I. Lotan,  
 P. E. Maslen,  N. Nair,  D. P. O'Neill,  D. Neuhauser,  E. Neuscamman,  
 C. M. Oana,  R. Olson,  B. Peters,  R. Peverati,  P. A. Pieniazek,  
 Y. M. Rhee,  J. Ritchie,  M. A. Rohrdanz,  E. Rosta,  N. J. Russ,  
 H. F. Schaefer III,  N. E. Schultz,  N. Shenvi,  A. C. Simmonett,  A. Sodt,  
 D. Stuck,  K. S. Thanthiriwatte,  V. Vanovschi,  Tao Wang,  A. Warshel,  
 C. F. Williams,  Q. Wu,  X. Xu,  W. Zhang

 Please cite Q-Chem as follows:
 Y. Shao et al., Mol. Phys. 113, 184-215 (2015)
 DOI: 10.1080/00268976.2014.952696

 Q-Chem 5.1.1 for Intel X86 EM64T Linux

 Parts of Q-Chem use Armadillo 8.300.2 (Tropical Shenanigans).
 http://arma.sourceforge.net/

 Q-Chem begins on Mon Dec  3 11:36:21 2018  

Host: ctcp042
0

     Scratch files written to /scratch/mewes1/141147/qchem5815//
 Parallel job on  1  processors
The previous job contains 0 fragments, simply inherited here
Symmetry turned off for PCM/SM12/SMD calculation
Input Ideriv = 2
Curr. Ideriv = -1
Max.  Ideriv = 2
Input Ideriv = 2
Curr. Ideriv = 2
Max.  Ideriv = 2

Checking the input file for inconsistencies... 	...done.

--------------------------------------------------------------
User input:
--------------------------------------------------------------
$rem
threads 4
jobtype opt
method PBEh-3c
basis def2-mSVP
mem_static      1024
mem_total       4000
sym_ignore      true
unrestricted true
scf_algorithm	diis
scf_max_cycles	250
solvent_method  pcm
geom_opt_tol_energy 25
geom_opt_tol_gradient 75
$end

$pcm
theory  iefpcm
$end

$solvent
dielectric      2.38
$end

$molecule
read Cz_DiOMe_kat.mol
$end
--------------------------------------------------------------
 Adding empirical dispersion correction 
 ----------------------------------------------------------------
 Doing -D3(BJ) with
 s6 =   1.00000
 s8 =   0.00000
 a1 =   0.48600
 a2 =   4.50000
 -D3 energy including 3body term =     -0.0197018111 hartrees
 ----------------------------------------------------------------
 Adding gCP correction 
 ----------------------------------------------------------------
 gCP energy =      0.0573859819 hartrees
 ----------------------------------------------------------------
             Standard Nuclear Orientation (Angstroms)
    I     Atom           X                Y                Z
 ----------------------------------------------------------------
    1      H      -0.0129500000    -1.7194600000     2.6409000000
    2      N       0.8356300000    -1.9583100000     3.2014800000
    3      C       1.6300900000    -3.0434300000     3.0614300000
    4      C       2.6529800000    -3.0208200000     3.9802700000
    5      C       2.4853400000    -1.8771600000     4.7201500000
    6      C       1.3677500000    -1.2491600000     4.2228500000
    7      C       3.2171700000    -1.3533900000     5.7776000000
    8      C       2.7816200000    -0.1317100000     6.3518700000
    9      C       1.6275800000     0.5114700000     5.8336200000
   10      C       0.9099600000    -0.0491000000     4.7574300000
   11      C       1.4992300000    -4.0827500000     2.1462900000
   12      C       2.4485100000    -5.1235900000     2.1861900000
   13      C       3.5117000000    -5.1018300000     3.1410900000
   14      C       3.6082000000    -4.0282300000     4.0466500000
   15      H       4.0899200000    -1.8785300000     6.1400800000
   16      O       3.4394300000     0.4443600000     7.3927000000
   17      H       1.2907700000     1.4436300000     6.2691900000
   18      H       0.0285800000     0.4389700000     4.3616600000
   19      H       0.6910400000    -4.0942000000     1.4265800000
   20      H       2.3539600000    -5.9375800000     1.4809900000
   21      O       4.4425700000    -6.0887200000     3.2143100000
   22      H       4.4043800000    -3.9902600000     4.7795100000
   23      C       4.4709300000    -7.2136300000     2.4177200000
   24      C       4.5674900000    -0.0780900000     7.9945200000
   25      H       5.3386200000    -7.8398500000     2.7099300000
   26      H       4.5847100000    -6.9267800000     1.3508500000
   27      H       3.5431100000    -7.8074900000     2.5610100000
   28      H       4.8882700000     0.5936600000     8.8159600000
   29      H       5.3957700000    -0.1560900000     7.2575700000
   30      H       4.3458300000    -1.0791800000     8.4237700000
 ----------------------------------------------------------------
 Nuclear Repulsion Energy =  1125.5992335399 hartrees
 There are       60 alpha and       59 beta electrons
 Requested basis set is def2-mSVP
 There are 145 shells and 281 basis functions

 Total QAlloc Memory Limit   4000 MB
 Mega-Array Size      1001 MB
 MEM_STATIC part      1024 MB
 Discretize the solute cavity surface with Lebedev spheres
	Using 302 Lebedev grid points for each H atom
	Using 302 Lebedev grid points for other atoms
	Atomic van der Waals radii will be scaled by 1.20
 Remove points where switching function is < 1.0e-08
 Keep 3499 surface tesserae and discard 5561 interior tesserae
 Molecular Surface Area = 269.906 Angst**2
 A cutoff of  1.0D-11 yielded   7072 shell pairs
 There are     28416 function pairs (     31761 Cartesian)
 
 -------------------------------------------------------
 OpenMP Integral Computing Module                       
 Release: version 1.0, May 2013, Q-Chem Inc. Pittsburgh 
 -------------------------------------------------------
 Integral Job Info:
 Integral job number is                      11
 Integral operator is                         1
 short-range coefficients                     0
 long-range coefficients              100000000
 Omega coefficients                           0
 if combine SR and LR in K                    0
 Integral screening is                        0
 Integral computing path is                   2
 max size of driver memory is            800000
 size of driver memory is                593474
 size of scratch memory is              1809772
 max col of scratch BK array               1296
 max len of scratch array in speh3          155
 max len of scratch index in speh4           18
 max int batch size is                      520
 min int batch size is                       52
 fixed nKL is                                52
 max L of basis functions is                  2
 order of int derivative is                   0
 number of shells is                        145
 number of basis is                         298
 number of cartesian basis is               298
 number of contracted shell pairs          7072
 number of primitive shell pairs          16337
 maxK2 (contraction) of shell pair           25
 max number of K2 of shell pair               1
 max number of CS2 of shell pair           1649
 max number of PS2 of shell pair           3000
 mem total for path MDJ                  582732
 -------------------------------------------------------
 Smallest overlap matrix eigenvalue = 3.28E-04

 Scale SEOQF with 1.000000e-02/1.000000e-02/1.000000e-02

 Standard Electronic Orientation quadrupole field applied
 Nucleus-field energy     =    -0.0000000143 hartrees
 Guess from superposition of atomic densities
 Warning:  Energy on first SCF cycle will be non-variational
 SAD guess density has 120.000000 electrons

 -----------------------------------------------------------------------
  General SCF calculation program by
  Eric Jon Sundstrom, Paul Horn, Yuezhi Mao, Dmitri Zuev, Alec White,
  David Stuck, Shaama M.S., Shane Yost, Joonho Lee, David Small,
  Daniel Levine, Susi Lehtola, Hugh Burton, Evgeny Epifanovsky
 -----------------------------------------------------------------------
 Exchange:     0.4200 Hartree-Fock + 0.5800 PBEh-3c
 Correlation:  1.0000 PBEh-3c
 Using SG-1 standard quadrature grid
 Dispersion:   Grimme D3
 using 4 threads for integral computing
 -------------------------------------------------------
 OpenMP Integral computing Module                
 Release: version 2.0, May 2017, Q-Chem Inc. Pleasanton 
 -------------------------------------------------------
 -------------------------------------------------------
 OpenMP BLAS3 based DFT computing Module                
 Release: version 1.0, May 2013, Q-Chem Inc. Pittsburgh 
 -------------------------------------------------------
 A unrestricted SCF calculation will be
 performed using DIIS
 SCF converges when DIIS error is below 1.0e-08
 ---------------------------------------
  Cycle       Energy         DIIS error
 ---------------------------------------
 Using non-symmetric K matrix
    1    -750.3307013976      2.59e-02  
    2    -744.5538955237      1.55e-03  
    3    -744.5883430153      1.37e-03  
    4    -744.6519516072      3.00e-04  
    5    -744.6548870141      1.06e-04  
    6    -744.6553922182      3.67e-05  
    7    -744.6554940036      1.83e-05  
    8    -744.6555583424      1.30e-05  
    9    -744.6555947699      7.91e-06  
   10    -744.6556068085      3.36e-06  
   11    -744.6556097735      2.07e-06  
   12    -744.6556106078      8.77e-07  
   13    -744.6556107992      3.47e-07  
   14    -744.6556108195      2.19e-07  
   15    -744.6556108287      1.18e-07  
   16    -744.6556108334      8.45e-08  
   17    -744.6556108361      4.83e-08  
   18    -744.6556108378      2.59e-08  
   19    -744.6556108383      2.00e-08  
   20    -744.6556108384      8.57e-09  Convergence criterion met
 ---------------------------------------
 SCF time:   CPU 644.41s  wall 162.00s 
<S^2> =          0.781172052

************** Final PCM Free Energy Summary **************
 G_electrostatic  =      -0.04422089 hartree =     -27.74902699 kcal/mol
 G_cavitation     =       0.00000000 hartree =       0.00000000 kcal/mol
 G_dispersion     =       0.00000000 hartree =       0.00000000 kcal/mol
 G_repulsion      =       0.00000000 hartree =       0.00000000 kcal/mol
 --------------------------------------------------
 Non-electrostatic Free Energy =       0.00000000 hartree =       0.00000000 kcal/mol
 Total                         =      -0.04422089 hartree =     -27.74902699 kcal/mol
 --------------------------------------------------
 SCF Energy (H0 + V/2)                       =    -744.65561084 
 Solute Internal Energy (H0)                 =    -744.61138995 
 Total Free Energy (H0 + V/2 + non-elec)     =    -744.65561084 hartree
                                             = -467278.44843442 kcal/mol
***********************************************************

 SCF   energy in the final basis set =     -744.6556108384
 Total energy in the final basis set =     -744.6556108384
 
 --------------------------------------------------------------
 
                    Orbital Energies (a.u.)
 --------------------------------------------------------------
 
 Alpha MOs
 -- Occupied --
-19.607 -19.605 -14.809 -10.609 -10.608 -10.568 -10.568 -10.546
-10.545 -10.545 -10.543 -10.541 -10.538 -10.535 -10.534 -10.529
-10.527  -1.262  -1.259  -1.218  -1.044  -1.036  -0.972  -0.941
 -0.918  -0.898  -0.857  -0.850  -0.806  -0.770  -0.749  -0.745
 -0.704  -0.677  -0.672  -0.650  -0.639  -0.617  -0.611  -0.605
 -0.600  -0.595  -0.579  -0.572  -0.561  -0.549  -0.540  -0.528
 -0.505  -0.498  -0.498  -0.492  -0.449  -0.447  -0.445  -0.442
 -0.403  -0.366  -0.327  -0.325
 -- Virtual --
 -0.104  -0.056  -0.033  -0.013   0.051   0.076   0.078   0.099
  0.102   0.112   0.119   0.131   0.141   0.151   0.155   0.158
  0.169   0.171   0.173   0.175   0.182   0.195   0.205   0.219
  0.232   0.243   0.261   0.270   0.281   0.303   0.341   0.350
  0.358   0.393   0.396   0.417   0.424   0.433   0.434   0.455
  0.461   0.470   0.475   0.484   0.488   0.502   0.509   0.517
  0.519   0.524   0.528   0.533   0.533   0.541   0.553   0.559
  0.569   0.570   0.593   0.595   0.616   0.626   0.635   0.657
  0.665   0.667   0.695   0.707   0.733   0.736   0.790   0.800
  0.829   0.834   0.848   0.850   0.873   0.893   0.907   0.916
  0.927   0.932   0.939   0.943   0.944   0.947   0.952   0.962
  0.971   0.975   0.990   1.006   1.011   1.049   1.058   1.071
  1.074   1.078   1.092   1.132   1.152   1.155   1.171   1.184
  1.190   1.225   1.234   1.254   1.275   1.276   1.288   1.322
  1.329   1.345   1.348   1.361   1.406   1.420   1.427   1.430
  1.446   1.450   1.455   1.466   1.485   1.501   1.512   1.528
  1.530   1.656   1.692   1.693   1.701   1.758   1.777   1.802
  1.814   1.843   1.844   1.880   1.890   1.896   1.909   1.934
  1.940   1.948   1.990   2.017   2.020   2.030   2.034   2.035
  2.073   2.075   2.102   2.118   2.120   2.124   2.150   2.173
  2.190   2.192   2.209   2.226   2.233   2.245   2.252   2.261
  2.299   2.311   2.320   2.351   2.387   2.388   2.392   2.425
  2.502   2.527   2.538   2.541   2.567   2.590   2.602   2.625
  2.642   2.645   2.674   2.676   2.716   2.723   2.731   2.757
  2.796   2.845   2.888   2.957   2.973   3.003   3.134   3.159
  3.268   3.360   3.396   3.545  13.139  13.404  13.619  13.654
 13.714  13.716  13.777  13.955  14.042  14.141  14.154  14.266
 14.437  14.550  19.377  25.687  25.703
 
 Beta MOs
 -- Occupied --
-19.604 -19.602 -14.801 -10.607 -10.605 -10.569 -10.569 -10.545
-10.545 -10.543 -10.540 -10.540 -10.537 -10.534 -10.533 -10.530
-10.528  -1.256  -1.253  -1.207  -1.036  -1.032  -0.968  -0.935
 -0.911  -0.897  -0.855  -0.848  -0.803  -0.767  -0.746  -0.741
 -0.701  -0.675  -0.670  -0.648  -0.637  -0.610  -0.600  -0.593
 -0.593  -0.584  -0.577  -0.571  -0.559  -0.548  -0.539  -0.526
 -0.497  -0.494  -0.491  -0.477  -0.443  -0.440  -0.433  -0.427
 -0.388  -0.344  -0.318
 -- Virtual --
 -0.218  -0.090  -0.040  -0.010  -0.002   0.056   0.077   0.080
  0.099   0.103   0.120   0.124   0.132   0.142   0.152   0.155
  0.165   0.170   0.172   0.176   0.178   0.183   0.196   0.207
  0.220   0.234   0.245   0.265   0.272   0.282   0.305   0.343
  0.352   0.361   0.395   0.398   0.421   0.425   0.435   0.437
  0.458   0.462   0.473   0.477   0.487   0.494   0.504   0.511
  0.519   0.521   0.525   0.530   0.535   0.541   0.543   0.555
  0.560   0.574   0.575   0.596   0.599   0.618   0.628   0.639
  0.659   0.669   0.671   0.702   0.709   0.735   0.738   0.792
  0.824   0.831   0.836   0.850   0.853   0.874   0.895   0.908
  0.917   0.927   0.933   0.941   0.944   0.946   0.948   0.953
  0.963   0.972   0.977   0.991   1.007   1.013   1.050   1.059
  1.072   1.084   1.088   1.093   1.133   1.153   1.160   1.173
  1.186   1.192   1.230   1.236   1.256   1.278   1.280   1.296
  1.325   1.338   1.350   1.354   1.363   1.411   1.422   1.431
  1.432   1.449   1.453   1.457   1.468   1.488   1.502   1.514
  1.531   1.533   1.661   1.693   1.695   1.709   1.763   1.778
  1.805   1.816   1.846   1.852   1.884   1.894   1.898   1.913
  1.936   1.943   1.954   1.992   2.018   2.027   2.032   2.037
  2.038   2.075   2.078   2.106   2.120   2.122   2.125   2.153
  2.176   2.192   2.194   2.213   2.230   2.235   2.247   2.254
  2.263   2.304   2.313   2.325   2.354   2.391   2.393   2.398
  2.432   2.504   2.529   2.540   2.546   2.572   2.592   2.604
  2.630   2.646   2.648   2.675   2.678   2.718   2.726   2.733
  2.760   2.798   2.848   2.890   2.960   2.976   3.005   3.136
  3.160   3.269   3.361   3.397   3.545  13.140  13.405  13.620
 13.656  13.714  13.716  13.779  13.955  14.042  14.142  14.155
 14.268  14.438  14.551  19.387  25.690  25.707
 --------------------------------------------------------------
 
          Ground-State Mulliken Net Atomic Charges

     Atom                 Charge (a.u.)    Spin (a.u.)
  --------------------------------------------------------
      1 H                     0.438391      -0.015299
      2 N                    -0.713262       0.314512
      3 C                     0.353639      -0.057272
      4 C                     0.162452       0.024542
      5 C                     0.183416       0.064731
      6 C                     0.348002      -0.050719
      7 C                    -0.475727       0.055488
      8 C                     0.433883       0.166840
      9 C                    -0.324074      -0.111482
     10 C                    -0.256957       0.152193
     11 C                    -0.250370       0.174154
     12 C                    -0.371298      -0.115824
     13 C                     0.439935       0.157802
     14 C                    -0.420852       0.097606
     15 H                     0.279208      -0.003593
     16 O                    -0.429192       0.071763
     17 H                     0.292544       0.004659
     18 H                     0.281687      -0.008401
     19 H                     0.283320      -0.009514
     20 H                     0.291744       0.004832
     21 O                    -0.429404       0.078930
     22 H                     0.275674      -0.005642
     23 C                    -0.421930      -0.008286
     24 C                    -0.423565      -0.008448
     25 H                     0.270484      -0.000119
     26 H                     0.228217       0.006941
     27 H                     0.228531       0.007091
     28 H                     0.275216      -0.000158
     29 H                     0.225326       0.006333
     30 H                     0.224963       0.006342
  --------------------------------------------------------
  Sum of atomic charges =     1.000000
  Sum of spin   charges =     1.000000

 -----------------------------------------------------------------
                    Cartesian Multipole Moments
 -----------------------------------------------------------------
    Charge (ESU x 10^10)
                 4.8032
    Dipole Moment (Debye)
         X      10.8390      Y     -13.3422      Z      18.5233
       Tot      25.2707
    Quadrupole Moments (Debye-Ang)
        XX     -47.3180     XY     -42.2102     YY     -21.8805
        XZ      58.7012     YZ     -29.6905     ZZ       1.9977
    Octopole Moments (Debye-Ang^2)
       XXX    -558.5148    XXY      75.2492    XYY       5.6689
       YYY     264.6037    XXZ    -142.8771    XYZ    -119.8377
       YYZ    -275.2615    XZZ     137.2023    YZZ     163.8422
       ZZZ    -627.6508
    Hexadecapole Moments (Debye-Ang^3)
      XXXX   -4232.8455   XXXY    1604.2106   XXYY    -968.7206
      XYYY     410.3784   YYYY   -3887.5156   XXXZ   -2270.7768
      XXYZ     244.5546   XYYZ    -612.3323   YYYZ    1367.9146
      XXZZ   -1111.9317   XYZZ     331.5960   YYZZ   -3076.0676
      XZZZ    -624.1082   YZZZ    1918.3304   ZZZZ   -8448.0068
 -----------------------------------------------------------------
 Calculating analytic gradient of the SCF energy
  5.675149264565166E-005  5.674930747374409E-005
  5.675033807577729E-005  5.675046608390403E-005
  5.675106873518895E-005  5.674973075767731E-005
  5.675472365120002E-005  5.674607152658883E-005
  5.674863027976205E-005  5.675216125782212E-005
  5.675280521888327E-005  5.674798337807061E-005
  5.675465829071140E-005  5.674613003458514E-005
  5.674695071975214E-005  5.675384637827975E-005
  5.675167096264493E-005  5.674911301432333E-005
  5.674426801087160E-005  5.675652376765857E-005
  5.675223961907897E-005  5.674856062272808E-005
  5.674685491049839E-005  5.675393602874987E-005
  5.674845635915638E-005  5.675233710038239E-005
  5.675157433369817E-005  5.674921447022489E-005
  5.674993829722526E-005  5.675085213424573E-005
  5.675316752182605E-005  5.674762490064611E-005
  5.675202629639760E-005  5.674876806434905E-005
  5.675418714751560E-005  5.674660277552236E-005
  5.674374666124981E-005  5.675704627717363E-005
  5.675986174648379E-005  5.674093184998270E-005
  5.675223692855035E-005  5.674855378674464E-005
  5.675835062483962E-005  5.674244737938016E-005
  5.673931560560971E-005  5.676147079609174E-005
  5.674879428076537E-005  5.675199689520350E-005
  5.675036882319086E-005  5.675042786974148E-005
  5.675134846372048E-005  5.674945047301763E-005
  5.675105547103655E-005  5.674973223888855E-005
  5.675329794718242E-005  5.674750565133552E-005
  5.674254772675163E-005  5.675824779193281E-005
  5.674673279280390E-005  5.675406271577554E-005
  5.675412167664275E-005  5.674668418475060E-005
  5.675656760103977E-005  5.674422803754318E-005
  5.675849511584301E-005  5.674229574901501E-005
  5.675702132136164E-005  5.674376735906459E-005
  5.674466491262825E-005  5.675612695651156E-005
  5.675206767215682E-005  5.674872070279432E-005
  5.675035492834620E-005  5.675044203384204E-005
  5.675013174665571E-005  5.675065340607635E-005
  5.675066670919141E-005  5.675011155102814E-005
  5.674064145375458E-005  5.676015008295124E-005
  5.674363313638113E-005  5.675716892676419E-005
  5.673713137423637E-005  5.676365974932105E-005
  5.674603191043044E-005  5.675477310873819E-005
  5.675672239801597E-005  5.674408436746286E-005
  5.675167386317186E-005  5.674913125399865E-005
  5.674870114184271E-005  5.675209474579347E-005
  5.674789756876539E-005  5.675290163564198E-005
  5.674673542220718E-005  5.675405743062984E-005
  5.674974012752398E-005  5.675106075715205E-005
  5.675098647743229E-005  5.674981594682760E-005
  5.675004041514337E-005  5.675075658655901E-005
  5.674873791145323E-005  5.675206322988429E-005
  5.675302285432314E-005  5.674777696989895E-005
  5.675076252956306E-005  5.675004114829580E-005
  5.674971088040083E-005  5.675109990573407E-005
  5.675074066219971E-005  5.675006287153039E-005
  5.674978207959204E-005  5.675101991097203E-005
  5.675533962925031E-005  5.674545586413327E-005
  5.675251592207859E-005  5.674828044984739E-005
  5.675625318421497E-005  5.674454333861719E-005
  5.673930729048803E-005  5.676147939017059E-005
  5.674279740314148E-005  5.675798541424140E-005
  5.673543127630703E-005  5.676535619325236E-005
  5.674591879308549E-005  5.675489240400544E-005
  5.675032275252070E-005  5.675048783963915E-005
  5.674643228533065E-005  5.675437636149939E-005
  5.675346166613670E-005  5.674734296083343E-005
  5.676343890186199E-005  5.673736723819265E-005
  5.676187782993917E-005  5.673892355022189E-005
  5.675173210594786E-005  5.674906650000150E-005
  5.676074512454352E-005  5.674005861485513E-005
  5.675982741262810E-005  5.674098563634977E-005
  5.674994171631260E-005  5.675086032780896E-005
  5.674544591273917E-005  5.675535159069218E-005
  5.674601642006605E-005  5.675479096836587E-005
  5.674907608466150E-005  5.675173450401621E-005
  5.674557925702998E-005  5.675523797628641E-005
  5.675323136501631E-005  5.674758309390243E-005
  5.675485678654063E-005  5.674595759572164E-005
  5.675070208125647E-005  5.675011846304323E-005
  5.674651422702124E-005  5.675429381854140E-005
  5.675222463880462E-005  5.674857142086483E-005
  5.674829432373847E-005  5.675250168850773E-005
  5.675013181077397E-005  5.675066206313703E-005
  5.674771238024561E-005  5.675311314370166E-005
  5.674828543794542E-005  5.675252650337400E-005
  5.675586153236220E-005  5.674494673045056E-005
  5.675483743613379E-005  5.674596891095555E-005
  5.675466881063155E-005  5.674614346416391E-005
  5.674768463918870E-005  5.675314235011978E-005
 Gradient of SCF Energy
            1           2           3           4           5           6
    1  -0.0486926   0.0105753   0.0262286  -0.0428804  -0.0269374   0.0373160
    2   0.0134928  -0.0038389   0.0258044   0.0698685  -0.0505179  -0.0439792
    3  -0.0322865   0.0060860   0.0439003   0.0182636  -0.0630949  -0.0001555
            7           8           9          10          11          12
    1   0.0034328  -0.0180515   0.0154958  -0.0090475  -0.0136710   0.0127819
    2  -0.0002192  -0.0011616   0.0065333  -0.0236577   0.0289837  -0.0158604
    3   0.0023031  -0.0175615   0.0186132  -0.0269809   0.0095580  -0.0012493
           13          14          15          16          17          18
    1  -0.0032792   0.0001092   0.0167468   0.0541374  -0.0073054  -0.0178484
    2   0.0293439  -0.0045500  -0.0117714  -0.0071687   0.0160961   0.0072751
    3   0.0185906  -0.0041260   0.0055510   0.0428363   0.0061363  -0.0101385
           19          20          21          22          23          24
    1  -0.0173849  -0.0034105   0.0203314   0.0146838   0.0098432  -0.0378250
    2   0.0028266  -0.0138073  -0.0630081   0.0030344   0.0351488   0.0297984
    3  -0.0131767  -0.0136369  -0.0287788   0.0151342   0.0337398  -0.0108729
           25          26          27          28          29          30
    1   0.0226308   0.0036290  -0.0222679   0.0133081   0.0166537  -0.0093020
    2  -0.0208032   0.0110457  -0.0109279   0.0146449   0.0000989  -0.0227241
    3   0.0045197  -0.0229701   0.0072853   0.0236719  -0.0200027   0.0088419
 Max gradient component =       6.987E-02
 RMS gradient           =       2.410E-02
 Computing fast IEFPCM-SWIG gradient.
 Updating gradient with PCM contributions...
 -- total gradient after adding PCM contribution --
---------------------------------------------------
  Atom         X              Y              Z     
---------------------------------------------------
   1      -0.022621       0.006243      -0.015037
   2       0.006285      -0.002730       0.003298
   3       0.020945       0.025947       0.039217
   4      -0.040645       0.056210       0.009664
   5      -0.026404      -0.038522      -0.053171
   6       0.031457      -0.041502      -0.003398
   7       0.011783      -0.006757       0.004543
   8      -0.020068       0.003995      -0.015300
   9       0.009299       0.009997       0.015939
  10      -0.014954      -0.016440      -0.026539
  11      -0.018848       0.024272       0.001752
  12       0.006540      -0.017855      -0.008374
  13       0.000580       0.029375       0.022030
  14       0.007232      -0.003844       0.002931
  15      -0.000155      -0.000711      -0.000592
  16       0.048309      -0.014822       0.031599
  17      -0.001220       0.001099      -0.000289
  18      -0.000674      -0.001480      -0.001855
  19      -0.000944       0.002360       0.000886
  20      -0.000486       0.000335      -0.000301
  21       0.009317      -0.052468      -0.030545
  22      -0.000358       0.001854       0.000775
  23       0.009618       0.021381       0.023724
  24      -0.023630       0.022278      -0.004078
  25       0.010757      -0.011165       0.001276
  26       0.002409       0.007442      -0.008874
  27      -0.010070      -0.003078       0.005692
  28       0.007734       0.006157       0.011914
  29       0.005636       0.001690      -0.010374
  30      -0.006822      -0.009258       0.003488
---------------------------------------------------
 Number of fixed atoms: 0
 Gradient time:  CPU 59.02 s  wall 23.41 s
 Geometry Optimization Parameters
   NAtoms,    NIC,     NZ,  NCons,   NDum,   NFix, NCnnct, MaxDiis
       30     215       0       0       0       0       0       0


** GEOMETRY OPTIMIZATION IN DELOCALIZED INTERNAL COORDINATES **
   Searching for a Minimum

   Optimization Cycle:   1

                       Coordinates (Angstroms)
     ATOM                X               Y               Z
      1  H        -0.0129500000   -1.7194600000    2.6409000000
      2  N         0.8356300000   -1.9583100000    3.2014800000
      3  C         1.6300900000   -3.0434300000    3.0614300000
      4  C         2.6529800000   -3.0208200000    3.9802700000
      5  C         2.4853400000   -1.8771600000    4.7201500000
      6  C         1.3677500000   -1.2491600000    4.2228500000
      7  C         3.2171700000   -1.3533900000    5.7776000000
      8  C         2.7816200000   -0.1317100000    6.3518700000
      9  C         1.6275800000    0.5114700000    5.8336200000
     10  C         0.9099600000   -0.0491000000    4.7574300000
     11  C         1.4992300000   -4.0827500000    2.1462900000
     12  C         2.4485100000   -5.1235900000    2.1861900000
     13  C         3.5117000000   -5.1018300000    3.1410900000
     14  C         3.6082000000   -4.0282300000    4.0466500000
     15  H         4.0899200000   -1.8785300000    6.1400800000
     16  O         3.4394300000    0.4443600000    7.3927000000
     17  H         1.2907700000    1.4436300000    6.2691900000
     18  H         0.0285800000    0.4389700000    4.3616600000
     19  H         0.6910400000   -4.0942000000    1.4265800000
     20  H         2.3539600000   -5.9375800000    1.4809900000
     21  O         4.4425700000   -6.0887200000    3.2143100000
     22  H         4.4043800000   -3.9902600000    4.7795100000
     23  C         4.4709300000   -7.2136300000    2.4177200000
     24  C         4.5674900000   -0.0780900000    7.9945200000
     25  H         5.3386200000   -7.8398500000    2.7099300000
     26  H         4.5847100000   -6.9267800000    1.3508500000
     27  H         3.5431100000   -7.8074900000    2.5610100000
     28  H         4.8882700000    0.5936600000    8.8159600000
     29  H         5.3957700000   -0.1560900000    7.2575700000
     30  H         4.3458300000   -1.0791800000    8.4237700000
   Point Group: c1    Number of degrees of freedom:    84


   Energy is   -744.655610838


 Attempting to Generate Delocalized Internal Coordinates

 84 Hessian modes will be used to form the next step
  Hessian Eigenvalues:
     0.018135    0.018464    0.019571    0.020021    0.020238    0.020387
     0.020468    0.020527    0.021019    0.021120    0.021926    0.021953
     0.022257    0.022354    0.022404    0.022479    0.022540    0.023292
     0.023558    0.023731    0.024733    0.024775    0.025213    0.103749
     0.103883    0.105487    0.106079    0.159998    0.159998    0.159999
     0.159999    0.159999    0.160000    0.160000    0.160000    0.160000
     0.160000    0.160000    0.160000    0.160000    0.224485    0.224651
     0.235046    0.235291    0.238060    0.246362    0.247189    0.249996
     0.249999    0.249999    0.250000    0.250000    0.324352    0.324514
     0.325072    0.325362    0.326801    0.327527    0.356597    0.356786
     0.357011    0.357228    0.358573    0.358590    0.383544    0.396596
     0.406014    0.406206    0.413104    0.426019    0.432128    0.440079
     0.452199    0.460382    0.461944    0.467347    0.469929    0.488870
     0.492825    0.493428    0.528524    0.530742    0.532287    0.534946

 Minimum Search - Taking Simple RFO Step
 Searching for Lamda that Minimizes Along All modes
 Value Taken    Lamda =  -0.04879297
 Calculated Step too Large.  Step scaled by  0.858095
 Step Taken.  Stepsize is  0.300000

                             Maximum     Tolerance    Cnvgd?
         Gradient           0.054055      0.000075      NO
         Displacement       0.109884      0.001200      NO
         Energy change     *********      0.000000      NO


 New Cartesian Coordinates Obtained by Inverse Iteration

 Displacement from previous Coordinates is:  0.867145
 Adding empirical dispersion correction 
 ----------------------------------------------------------------
 Doing -D3(BJ) with
 s6 =   1.00000
 s8 =   0.00000
 a1 =   0.48600
 a2 =   4.50000
 -D3 energy including 3body term =     -0.0200272329 hartrees
 ----------------------------------------------------------------
 Adding gCP correction 
 ----------------------------------------------------------------
 gCP energy =      0.0583321855 hartrees
 ----------------------------------------------------------------
             Standard Nuclear Orientation (Angstroms)
    I     Atom           X                Y                Z
 ----------------------------------------------------------------
    1      H       0.0920779812    -1.7576483183     2.6988880304
    2      N       0.9185647605    -1.9858841591     3.2455842995
    3      C       1.6915136035    -3.0950716495     3.0691173465
    4      C       2.7296911078    -3.0626957679     4.0072917292
    5      C       2.5494017051    -1.8675576430     4.7772053895
    6      C       1.4105320153    -1.2316317920     4.2683501736
    7      C       3.2413958783    -1.3115862186     5.8289719562
    8      C       2.7608245790    -0.0983913178     6.3632576859
    9      C       1.6134723252     0.5300198670     5.8425589207
   10      C       0.9266247085    -0.0300976831     4.7888606196
   11      C       1.5466234461    -4.1355591068     2.1479672189
   12      C       2.4719200825    -5.1604866552     2.1835150364
   13      C       3.5219381929    -5.1362744975     3.1257161785
   14      C       3.6562645557    -4.0807248541     4.0455153615
   15      H       4.1205769309    -1.8023793940     6.2225830924
   16      O       3.3570406343     0.5118080726     7.3783350664
   17      H       1.2696357156     1.4591838739     6.2756675478
   18      H       0.0436311207     0.4507915613     4.3895772360
   19      H       0.7386415262    -4.1520185191     1.4282940061
   20      H       2.3760953062    -5.9768166242     1.4811714627
   21      O       4.4329222939    -6.0964783303     3.2017396901
   22      H       4.4659837099    -4.0791512155     4.7638590915
   23      C       4.3850492350    -7.2050270879     2.3497618734
   24      C       4.5018139271    -0.0369108132     7.9666068140
   25      H       5.2301422038    -7.8426321281     2.6138470927
   26      H       4.4844315445    -6.9175281329     1.2951568190
   27      H       3.4613029935    -7.7834624707     2.4807215279
   28      H       4.7979640826     0.6371733888     8.7713153995
   29      H       5.3339856962    -0.1125351490     7.2541587904
   30      H       4.3081281380    -1.0276772358     8.3985745437
 ----------------------------------------------------------------
 Nuclear Repulsion Energy =  1127.3406056250 hartrees
 There are       60 alpha and       59 beta electrons
 Discretize the solute cavity surface with Lebedev spheres
	Using 302 Lebedev grid points for each H atom
	Using 302 Lebedev grid points for other atoms
	Atomic van der Waals radii will be scaled by 1.20
 Remove points where switching function is < 1.0e-08
 Keep 3473 surface tesserae and discard 5587 interior tesserae
 Molecular Surface Area = 267.100 Angst**2
 Nucleus-field energy     =    -0.0000000143 hartrees
 Requested basis set is def2-mSVP
 There are 145 shells and 281 basis functions
 A cutoff of  1.0D-11 yielded   7057 shell pairs
 There are     28325 function pairs (     31669 Cartesian)
 Smallest overlap matrix eigenvalue = 3.38E-04
 Guess MOs from SCF MO coefficient file

 -----------------------------------------------------------------------
  General SCF calculation program by
  Eric Jon Sundstrom, Paul Horn, Yuezhi Mao, Dmitri Zuev, Alec White,
  David Stuck, Shaama M.S., Shane Yost, Joonho Lee, David Small,
  Daniel Levine, Susi Lehtola, Hugh Burton, Evgeny Epifanovsky
 -----------------------------------------------------------------------
 Exchange:     0.4200 Hartree-Fock + 0.5800 PBEh-3c
 Correlation:  1.0000 PBEh-3c
 Using SG-1 standard quadrature grid
 Dispersion:   Grimme D3
 using 4 threads for integral computing
 -------------------------------------------------------
 OpenMP Integral computing Module                
 Release: version 2.0, May 2017, Q-Chem Inc. Pleasanton 
 -------------------------------------------------------
 -------------------------------------------------------
 OpenMP BLAS3 based DFT computing Module                
 Release: version 1.0, May 2013, Q-Chem Inc. Pittsburgh 
 -------------------------------------------------------
 A unrestricted SCF calculation will be
 performed using DIIS
 SCF converges when DIIS error is below 1.0e-08
 ---------------------------------------
  Cycle       Energy         DIIS error
 ---------------------------------------
 Using non-symmetric K matrix
    1    -753.0473229702      4.86e-04  
    2    -744.6777250187      2.03e-04  
    3    -744.6787828670      1.62e-04  
    4    -744.6797283109      2.44e-05  
    5    -744.6797560883      7.86e-06  
    6    -744.6797605473      4.81e-06  
    7    -744.6797629635      2.09e-06  
    8    -744.6797640423      1.80e-06  
    9    -744.6797644253      5.86e-07  
   10    -744.6797644957      2.91e-07  
   11    -744.6797645099      1.77e-07  
   12    -744.6797645187      1.03e-07  
   13    -744.6797645227      5.93e-08  
   14    -744.6797645239      2.84e-08  
   15    -744.6797645243      1.60e-08  
   16    -744.6797645244      1.07e-08  
   17    -744.6797645245      6.80e-09  Convergence criterion met
 ---------------------------------------
 SCF time:   CPU 555.64s  wall 139.00s 
<S^2> =          0.781693962

************** Final PCM Free Energy Summary **************
 G_electrostatic  =      -0.04363373 hartree =     -27.38057593 kcal/mol
 G_cavitation     =       0.00000000 hartree =       0.00000000 kcal/mol
 G_dispersion     =       0.00000000 hartree =       0.00000000 kcal/mol
 G_repulsion      =       0.00000000 hartree =       0.00000000 kcal/mol
 --------------------------------------------------
 Non-electrostatic Free Energy =       0.00000000 hartree =       0.00000000 kcal/mol
 Total                         =      -0.04363373 hartree =     -27.38057593 kcal/mol
 --------------------------------------------------
 SCF Energy (H0 + V/2)                       =    -744.67976452 
 Solute Internal Energy (H0)                 =    -744.63613080 
 Total Free Energy (H0 + V/2 + non-elec)     =    -744.67976452 hartree
                                             = -467293.60510115 kcal/mol
***********************************************************

 SCF   energy in the final basis set =     -744.6797645245
 Total energy in the final basis set =     -744.6797645245
 
 --------------------------------------------------------------
 
                    Orbital Energies (a.u.)
 --------------------------------------------------------------
 
 Alpha MOs
 -- Occupied --
-19.611 -19.609 -14.805 -10.603 -10.601 -10.570 -10.570 -10.544
-10.542 -10.542 -10.542 -10.540 -10.539 -10.536 -10.533 -10.524
-10.521  -1.273  -1.272  -1.206  -1.039  -1.038  -0.969  -0.939
 -0.917  -0.905  -0.861  -0.852  -0.806  -0.767  -0.755  -0.743
 -0.703  -0.680  -0.675  -0.655  -0.638  -0.617  -0.615  -0.609
 -0.599  -0.592  -0.582  -0.574  -0.554  -0.548  -0.537  -0.529
 -0.508  -0.500  -0.500  -0.492  -0.456  -0.452  -0.450  -0.449
 -0.407  -0.368  -0.329  -0.318
 -- Virtual --
 -0.098  -0.055  -0.029  -0.013   0.066   0.078   0.080   0.101
  0.107   0.117   0.118   0.128   0.143   0.151   0.155   0.156
  0.167   0.175   0.176   0.177   0.182   0.196   0.206   0.217
  0.238   0.248   0.269   0.278   0.284   0.316   0.348   0.352
  0.365   0.389   0.392   0.417   0.430   0.435   0.440   0.452
  0.454   0.468   0.470   0.485   0.489   0.498   0.511   0.519
  0.521   0.525   0.533   0.538   0.544   0.547   0.560   0.565
  0.567   0.571   0.596   0.603   0.615   0.619   0.632   0.647
  0.659   0.666   0.697   0.700   0.726   0.735   0.781   0.802
  0.817   0.833   0.854   0.865   0.887   0.903   0.916   0.922
  0.926   0.936   0.942   0.944   0.946   0.947   0.956   0.965
  0.973   0.979   0.989   1.008   1.018   1.046   1.056   1.075
  1.078   1.080   1.094   1.140   1.161   1.162   1.185   1.188
  1.193   1.221   1.230   1.254   1.278   1.280   1.283   1.319
  1.332   1.352   1.354   1.357   1.403   1.415   1.422   1.425
  1.446   1.450   1.453   1.469   1.484   1.490   1.516   1.519
  1.522   1.664   1.687   1.688   1.722   1.740   1.766   1.794
  1.816   1.834   1.843   1.885   1.888   1.912   1.929   1.947
  1.954   1.961   2.008   2.013   2.022   2.025   2.047   2.047
  2.079   2.092   2.096   2.100   2.110   2.116   2.149   2.166
  2.189   2.192   2.226   2.238   2.245   2.253   2.260   2.261
  2.286   2.315   2.343   2.362   2.382   2.393   2.403   2.425
  2.506   2.516   2.536   2.539   2.572   2.600   2.615   2.621
  2.655   2.659   2.682   2.696   2.716   2.718   2.731   2.773
  2.793   2.868   2.890   2.955   2.969   3.021   3.129   3.162
  3.259   3.363   3.388   3.533  13.142  13.384  13.605  13.684
 13.719  13.721  13.786  13.946  14.072  14.149  14.168  14.239
 14.454  14.518  19.355  25.694  25.710
 
 Beta MOs
 -- Occupied --
-19.608 -19.606 -14.797 -10.600 -10.599 -10.571 -10.571 -10.542
-10.542 -10.541 -10.541 -10.539 -10.537 -10.535 -10.533 -10.525
-10.522  -1.267  -1.266  -1.194  -1.035  -1.031  -0.965  -0.934
 -0.911  -0.903  -0.860  -0.850  -0.804  -0.763  -0.751  -0.740
 -0.700  -0.677  -0.673  -0.652  -0.636  -0.615  -0.600  -0.597
 -0.590  -0.580  -0.577  -0.573  -0.553  -0.547  -0.536  -0.528
 -0.499  -0.499  -0.491  -0.481  -0.454  -0.448  -0.439  -0.424
 -0.394  -0.352  -0.315
 -- Virtual --
 -0.211  -0.085  -0.040  -0.006  -0.001   0.070   0.079   0.082
  0.101   0.108   0.119   0.129   0.130   0.145   0.152   0.156
  0.163   0.168   0.176   0.178   0.180   0.183   0.197   0.208
  0.218   0.239   0.250   0.272   0.280   0.285   0.318   0.351
  0.354   0.367   0.391   0.394   0.421   0.434   0.436   0.442
  0.454   0.456   0.471   0.473   0.488   0.495   0.499   0.513
  0.521   0.522   0.526   0.539   0.540   0.545   0.550   0.561
  0.568   0.570   0.576   0.601   0.605   0.616   0.622   0.636
  0.648   0.662   0.672   0.700   0.705   0.727   0.736   0.783
  0.819   0.828   0.834   0.856   0.867   0.888   0.906   0.918
  0.922   0.928   0.938   0.944   0.945   0.947   0.949   0.957
  0.967   0.973   0.980   0.990   1.009   1.020   1.047   1.057
  1.076   1.088   1.090   1.095   1.142   1.161   1.168   1.187
  1.190   1.194   1.226   1.232   1.256   1.284   1.285   1.287
  1.322   1.341   1.356   1.358   1.363   1.406   1.421   1.426
  1.427   1.449   1.452   1.455   1.471   1.486   1.492   1.518
  1.522   1.525   1.670   1.688   1.691   1.729   1.744   1.768
  1.796   1.819   1.843   1.844   1.887   1.893   1.917   1.934
  1.949   1.956   1.966   2.009   2.015   2.024   2.031   2.049
  2.050   2.081   2.094   2.099   2.102   2.112   2.118   2.153
  2.168   2.193   2.194   2.231   2.241   2.249   2.255   2.262
  2.263   2.287   2.319   2.347   2.366   2.390   2.399   2.406
  2.432   2.508   2.518   2.541   2.542   2.578   2.604   2.620
  2.622   2.656   2.664   2.684   2.697   2.720   2.720   2.733
  2.777   2.795   2.871   2.892   2.958   2.972   3.023   3.131
  3.164   3.261   3.364   3.389   3.534  13.143  13.385  13.607
 13.685  13.719  13.721  13.787  13.946  14.073  14.151  14.169
 14.240  14.455  14.519  19.366  25.698  25.713
 --------------------------------------------------------------
 
          Ground-State Mulliken Net Atomic Charges

     Atom                 Charge (a.u.)    Spin (a.u.)
  --------------------------------------------------------
      1 H                     0.426730      -0.015045
      2 N                    -0.717496       0.318993
      3 C                     0.343377      -0.063204
      4 C                     0.149048       0.034018
      5 C                     0.171874       0.090086
      6 C                     0.339533      -0.052715
      7 C                    -0.494694       0.030280
      8 C                     0.447084       0.175332
      9 C                    -0.326980      -0.098984
     10 C                    -0.235065       0.134641
     11 C                    -0.228719       0.168063
     12 C                    -0.376294      -0.107800
     13 C                     0.454083       0.164927
     14 C                    -0.439310       0.077837
     15 H                     0.281175      -0.002335
     16 O                    -0.415288       0.073228
     17 H                     0.293150       0.004055
     18 H                     0.281357      -0.007540
     19 H                     0.283222      -0.009249
     20 H                     0.293670       0.004391
     21 O                    -0.417430       0.078852
     22 H                     0.274873      -0.004686
     23 C                    -0.442069      -0.008232
     24 C                    -0.444057      -0.008306
     25 H                     0.276268      -0.000038
     26 H                     0.236732       0.006093
     27 H                     0.236914       0.006183
     28 H                     0.280108      -0.000098
     29 H                     0.234242       0.005630
     30 H                     0.233959       0.005625
  --------------------------------------------------------
  Sum of atomic charges =     1.000000
  Sum of spin   charges =     1.000000

 -----------------------------------------------------------------
                    Cartesian Multipole Moments
 -----------------------------------------------------------------
    Charge (ESU x 10^10)
                 4.8032
    Dipole Moment (Debye)
         X      11.2138      Y     -13.4983      Z      18.7421
       Tot      25.6753
    Quadrupole Moments (Debye-Ang)
        XX     -46.8226     XY     -42.7876     YY     -19.2290
        XZ      60.0721     YZ     -28.9055     ZZ       4.7881
    Octopole Moments (Debye-Ang^2)
       XXX    -561.3126    XXY      77.4950    XYY       8.8042
       YYY     245.2317    XXZ    -140.5679    XYZ    -117.3439
       YYZ    -276.4641    XZZ     145.7435    YZZ     168.4256
       ZZZ    -605.6397
    Hexadecapole Moments (Debye-Ang^3)
      XXXX   -4226.3483   XXXY    1634.8431   XXYY    -993.2596
      XYYY     394.9708   YYYY   -3806.9642   XXXZ   -2264.3199
      XXYZ     255.3012   XYYZ    -627.6005   YYYZ    1355.7552
      XXZZ   -1089.7918   XYZZ     344.1946   YYZZ   -3103.6788
      XZZZ    -556.2019   YZZZ    1917.3258   ZZZZ   -8307.6809
 -----------------------------------------------------------------
 Calculating analytic gradient of the SCF energy
  5.847839533105053E-005  5.847568561180652E-005
  5.847684428186390E-005  5.847724184357508E-005
  5.847778575856316E-005  5.847629472262455E-005
  5.848179259643901E-005  5.847228368249808E-005
  5.847523663328540E-005  5.847883577667443E-005
  5.848001823961608E-005  5.847405139832726E-005
  5.848153491561422E-005  5.847253366303602E-005
  5.847264732735326E-005  5.848142990064688E-005
  5.847802694266908E-005  5.847603689962132E-005
  5.847040342301900E-005  5.848366884402683E-005
  5.847897180293676E-005  5.847511005525573E-005
  5.847344551996650E-005  5.848062650451427E-005
  5.847528852504402E-005  5.847878496588562E-005
  5.847813584595273E-005  5.847593285689053E-005
  5.847695716437636E-005  5.847711336118419E-005
  5.847965635147647E-005  5.847441696842333E-005
  5.847895530767724E-005  5.847511842923936E-005
  5.848113748608102E-005  5.847293246816342E-005
  5.846936700327977E-005  5.848470708841450E-005
  5.848615177374527E-005  5.846792318472983E-005
  5.847777109484966E-005  5.847630014237361E-005
  5.848508895985848E-005  5.846899010983023E-005
  5.846615619805267E-005  5.848791111906673E-005
  5.847551183820800E-005  5.847856088129830E-005
  5.847684778878979E-005  5.847722966772505E-005
  5.847802440865695E-005  5.847605453714373E-005
  5.847747995062621E-005  5.847658849936947E-005
  5.848054525466161E-005  5.847354031444535E-005
  5.846885548998739E-005  5.848522021200202E-005
  5.847357980398113E-005  5.848049782912699E-005
  5.848142163647846E-005  5.847266525323920E-005
  5.848311263316298E-005  5.847096335133175E-005
  5.848558176436543E-005  5.846848895986284E-005
  5.848361891156776E-005  5.847045067586621E-005
  5.847118280974356E-005  5.848288982766060E-005
  5.847848281084073E-005  5.847558570829707E-005
  5.847658437631994E-005  5.847749394963562E-005
  5.847721905912073E-005  5.847684727853393E-005
  5.847714754723725E-005  5.847691210545333E-005
  5.846631571367401E-005  5.848775715177263E-005
  5.847045005111798E-005  5.848363298794659E-005
  5.846312565495437E-005  5.849094716825326E-005
  5.847274124613501E-005  5.848134494975073E-005
  5.848387099565494E-005  5.847021801725728E-005
  5.847879390825978E-005  5.847529263963655E-005
  5.847523736658096E-005  5.847883979909405E-005
  5.847467195331797E-005  5.847940764459779E-005
  5.847322555858488E-005  5.848084916396823E-005
  5.847649839759058E-005  5.847758392209446E-005
  5.847759357455512E-005  5.847648992884025E-005
  5.847664043841018E-005  5.847743771738343E-005
  5.847545067138468E-005  5.847863238071116E-005
  5.847968396827400E-005  5.847439788324307E-005
  5.847739889287232E-005  5.847668659646389E-005
  5.847681902447181E-005  5.847727435803021E-005
  5.847732219511813E-005  5.847676366303419E-005
  5.847669091774591E-005  5.847739304338870E-005
  5.848225468989077E-005  5.847182181681069E-005
  5.847940340730735E-005  5.847467358888068E-005
  5.848314013912109E-005  5.847093735329737E-005
  5.846513118526606E-005  5.848893873084158E-005
  5.847022772483216E-005  5.848383597122570E-005
  5.846179793540323E-005  5.849227268767606E-005
  5.847309228520239E-005  5.848100146988518E-005
  5.847651051712210E-005  5.847758185082553E-005
  5.847312869528983E-005  5.848096251314338E-005
  5.848062552632309E-005  5.847346204505256E-005
  5.848991262162691E-005  5.846417449963176E-005
  5.848890537485992E-005  5.846517847616611E-005
  5.847839282888134E-005  5.847568697064203E-005
  5.848694615954314E-005  5.846713852812925E-005
  5.848626616964583E-005  5.846782891434651E-005
  5.847674205665310E-005  5.847734195765694E-005
  5.847178677412584E-005  5.848229206926194E-005
  5.847257661293030E-005  5.848151238299688E-005
  5.847537916313477E-005  5.847871339226744E-005
  5.847224843419932E-005  5.848185092860644E-005
  5.847984568648897E-005  5.847425042946615E-005
  5.848134265984510E-005  5.847275342808790E-005
  5.847748868941399E-005  5.847661407337394E-005
  5.847292063258460E-005  5.848116914314183E-005
  5.847927604769695E-005  5.847480151353685E-005
  5.847518339436283E-005  5.847889371265770E-005
  5.847728650889372E-005  5.847678854028702E-005
  5.847389731657193E-005  5.848020999644872E-005
  5.847478700669086E-005  5.847930619664130E-005
  5.848264114271636E-005  5.847144796195253E-005
  5.848148037692429E-005  5.847260694977693E-005
  5.848163113768465E-005  5.847246225717106E-005
  5.847387133941298E-005  5.848023732392961E-005
 Gradient of SCF Energy
            1           2           3           4           5           6
    1  -0.0291624   0.0077787   0.0137688  -0.0161962  -0.0076531   0.0134422
    2   0.0078790  -0.0027860  -0.0017780   0.0300112  -0.0222621  -0.0029131
    3  -0.0193451   0.0040872   0.0115482   0.0099671  -0.0241578   0.0104306
            7           8           9          10          11          12
    1  -0.0037117  -0.0069725   0.0115532   0.0039381   0.0028863   0.0071569
    2   0.0078283  -0.0040756  -0.0003570  -0.0102044   0.0054245  -0.0031643
    3   0.0024345  -0.0096662   0.0098633  -0.0049815   0.0060290   0.0037078
           13          14          15          16          17          18
    1  -0.0049093  -0.0009882   0.0173661   0.0177309  -0.0076445  -0.0168767
    2   0.0115981  -0.0104499  -0.0107095   0.0043245   0.0151209   0.0093290
    3   0.0043203  -0.0095964   0.0068942   0.0191325   0.0051808  -0.0074892
           19          20          21          22          23          24
    1  -0.0159996  -0.0028150   0.0115548   0.0144917  -0.0002652  -0.0289589
    2  -0.0004304  -0.0148061  -0.0235851   0.0024675   0.0287327   0.0128906
    3  -0.0142867  -0.0137320  -0.0075171   0.0147059   0.0208165  -0.0156839
           25          26          27          28          29          30
    1   0.0142685   0.0013768  -0.0148016   0.0066179   0.0145717  -0.0015475
    2  -0.0124199   0.0034328  -0.0103374   0.0104587  -0.0023826  -0.0168367
    3   0.0033255  -0.0176773   0.0011150   0.0142966  -0.0108958   0.0071743
 Max gradient component =       3.001E-02
 RMS gradient           =       1.250E-02
 Computing fast IEFPCM-SWIG gradient.
 Updating gradient with PCM contributions...
 -- total gradient after adding PCM contribution --
---------------------------------------------------
  Atom         X              Y              Z     
---------------------------------------------------
   1      -0.003972       0.001008      -0.002672
   2       0.000137      -0.000843      -0.000828
   3       0.009688       0.000592       0.009803
   4      -0.013787       0.015846       0.001176
   5      -0.007748      -0.009518      -0.014177
   6       0.009928      -0.003982       0.006477
   7       0.004563       0.000245       0.003826
   8      -0.009702       0.002853      -0.006604
   9       0.005663       0.002179       0.006714
  10      -0.002568      -0.002727      -0.004746
  11      -0.002614       0.000943      -0.001886
  12       0.001221      -0.004940      -0.002832
  13       0.000451       0.011465       0.008842
  14       0.005096      -0.008149      -0.002181
  15       0.000226      -0.000235       0.000013
  16       0.013767      -0.005832       0.007546
  17      -0.001216       0.000162      -0.001015
  18      -0.000008       0.000398       0.000302
  19       0.000012      -0.000215      -0.000163
  20       0.000088      -0.000603      -0.000454
  21      -0.000811      -0.013908      -0.011094
  22      -0.000573       0.001814       0.000822
  23       0.000721       0.012928       0.010204
  24      -0.013210       0.006542      -0.006665
  25       0.002257      -0.002593       0.000121
  26       0.000629       0.000562      -0.003089
  27      -0.002383      -0.002067       0.000482
  28       0.001594       0.001339       0.002503
  29       0.002757      -0.000323      -0.001929
  30      -0.000206      -0.002944       0.001504
---------------------------------------------------
 Number of fixed atoms: 0
 Gradient time:  CPU 58.58 s  wall 22.76 s
 Geometry Optimization Parameters
   NAtoms,    NIC,     NZ,  NCons,   NDum,   NFix, NCnnct, MaxDiis
       30     215       0       0       0       0       0       0

 Cartesian Hessian Update
 Hessian Updated using BFGS Update


** GEOMETRY OPTIMIZATION IN DELOCALIZED INTERNAL COORDINATES **
   Searching for a Minimum

   Optimization Cycle:   2

                       Coordinates (Angstroms)
     ATOM                X               Y               Z
      1  H         0.0920779812   -1.7576483183    2.6988880304
      2  N         0.9185647605   -1.9858841591    3.2455842995
      3  C         1.6915136035   -3.0950716495    3.0691173465
      4  C         2.7296911078   -3.0626957679    4.0072917292
      5  C         2.5494017051   -1.8675576430    4.7772053895
      6  C         1.4105320153   -1.2316317920    4.2683501736
      7  C         3.2413958783   -1.3115862186    5.8289719562
      8  C         2.7608245790   -0.0983913178    6.3632576859
      9  C         1.6134723252    0.5300198670    5.8425589207
     10  C         0.9266247085   -0.0300976831    4.7888606196
     11  C         1.5466234461   -4.1355591068    2.1479672189
     12  C         2.4719200825   -5.1604866552    2.1835150364
     13  C         3.5219381929   -5.1362744975    3.1257161785
     14  C         3.6562645557   -4.0807248541    4.0455153615
     15  H         4.1205769309   -1.8023793940    6.2225830924
     16  O         3.3570406343    0.5118080726    7.3783350664
     17  H         1.2696357156    1.4591838739    6.2756675478
     18  H         0.0436311207    0.4507915613    4.3895772360
     19  H         0.7386415262   -4.1520185191    1.4282940061
     20  H         2.3760953062   -5.9768166242    1.4811714627
     21  O         4.4329222939   -6.0964783303    3.2017396901
     22  H         4.4659837099   -4.0791512155    4.7638590915
     23  C         4.3850492350   -7.2050270879    2.3497618734
     24  C         4.5018139271   -0.0369108132    7.9666068140
     25  H         5.2301422038   -7.8426321281    2.6138470927
     26  H         4.4844315445   -6.9175281329    1.2951568190
     27  H         3.4613029935   -7.7834624707    2.4807215279
     28  H         4.7979640826    0.6371733888    8.7713153995
     29  H         5.3339856962   -0.1125351490    7.2541587904
     30  H         4.3081281380   -1.0276772358    8.3985745437
   Point Group: c1    Number of degrees of freedom:    84


   Energy is   -744.679764524

 Hessian Updated using BFGS Update

 80 Hessian modes will be used to form the next step
  Hessian Eigenvalues:
     0.018135    0.018464    0.019572    0.020022    0.020238    0.020387
     0.020468    0.020527    0.021019    0.021121    0.021926    0.021953
     0.022257    0.022354    0.022404    0.022480    0.022540    0.023293
     0.023558    0.023731    0.024733    0.024775    0.025213    0.103806
     0.104097    0.105487    0.106078    0.159198    0.159998    0.159999
     0.159999    0.159999    0.159999    0.160000    0.160000    0.163441
     0.224356    0.224561    0.233442    0.235061    0.243228    0.244097
     0.246373    0.247627    0.249996    0.249999    0.250000    0.273925
     0.322758    0.324430    0.324888    0.325260    0.326935    0.327805
     0.356596    0.356792    0.357012    0.357227    0.358552    0.358578
     0.383477    0.400755    0.402581    0.406809    0.412555    0.424670
     0.428675    0.439632    0.442473    0.460967    0.461999    0.463846
     0.470821    0.483945    0.491297    0.493287    0.529572    0.531625
     0.534912    0.571813

 Minimum Search - Taking Simple RFO Step
 Searching for Lamda that Minimizes Along All modes
 Value Taken    Lamda =  -0.00331637
 Step Taken.  Stepsize is  0.110695

                             Maximum     Tolerance    Cnvgd?
         Gradient           0.013077      0.000075      NO
         Displacement       0.038961      0.001200      NO
         Energy change     -0.024154      0.000000      NO


 New Cartesian Coordinates Obtained by Inverse Iteration

 Displacement from previous Coordinates is:  0.429679
 Adding empirical dispersion correction 
 ----------------------------------------------------------------
 Doing -D3(BJ) with
 s6 =   1.00000
 s8 =   0.00000
 a1 =   0.48600
 a2 =   4.50000
 -D3 energy including 3body term =     -0.0200116574 hartrees
 ----------------------------------------------------------------
 Adding gCP correction 
 ----------------------------------------------------------------
 gCP energy =      0.0581724284 hartrees
 ----------------------------------------------------------------
             Standard Nuclear Orientation (Angstroms)
    I     Atom           X                Y                Z
 ----------------------------------------------------------------
    1      H       0.1118892390    -1.7542461252     2.7081391545
    2      N       0.9356327716    -1.9835197883     3.2445241398
    3      C       1.6984908753    -3.0958298011     3.0564443627
    4      C       2.7524969692    -3.0769015460     3.9949056881
    5      C       2.5750170061    -1.8687855871     4.7808906427
    6      C       1.4251095471    -1.2316192973     4.2661874840
    7      C       3.2580456040    -1.3138811119     5.8345659109
    8      C       2.7706347327    -0.1063864484     6.3737253404
    9      C       1.6165799283     0.5128127761     5.8459604767
   10      C       0.9355484338    -0.0369709299     4.7938504774
   11      C       1.5385597834    -4.1333188906     2.1399902786
   12      C       2.4500076800    -5.1652289803     2.1675484642
   13      C       3.5081239684    -5.1609037079     3.0954131390
   14      C       3.6593303642    -4.1033637231     4.0187713877
   15      H       4.1377355692    -1.8011913188     6.2298848660
   16      O       3.3320848916     0.5292449530     7.3867719230
   17      H       1.2742285671     1.4366470182     6.2909649042
   18      H       0.0496245417     0.4393490050     4.3958276889
   19      H       0.7231955675    -4.1413207931     1.4288534908
   20      H       2.3353825240    -5.9777082599     1.4655120747
   21      O       4.4214610610    -6.1114608773     3.1847458893
   22      H       4.4786649070    -4.1287781468     4.7253946659
   23      C       4.3800046420    -7.2361549235     2.3292598929
   24      C       4.4957647438     0.0204801737     8.0065084265
   25      H       5.2239919891    -7.8602096767     2.6039737191
   26      H       4.4806385662    -6.9528519142     1.2798910612
   27      H       3.4613762545    -7.8115066418     2.4598134169
   28      H       4.7475435288     0.7150804175     8.8009886778
   29      H       5.3354365899    -0.0335596628     7.3107863941
   30      H       4.3255891534    -0.9651661914     8.4440759619
 ----------------------------------------------------------------
 Nuclear Repulsion Energy =  1125.0977797692 hartrees
 There are       60 alpha and       59 beta electrons
 Discretize the solute cavity surface with Lebedev spheres
	Using 302 Lebedev grid points for each H atom
	Using 302 Lebedev grid points for other atoms
	Atomic van der Waals radii will be scaled by 1.20
 Remove points where switching function is < 1.0e-08
 Keep 3478 surface tesserae and discard 5582 interior tesserae
 Molecular Surface Area = 267.731 Angst**2
 Nucleus-field energy     =    -0.0000000143 hartrees
 Requested basis set is def2-mSVP
 There are 145 shells and 281 basis functions
 A cutoff of  1.0D-11 yielded   7027 shell pairs
 There are     28237 function pairs (     31569 Cartesian)
 Smallest overlap matrix eigenvalue = 3.41E-04
 Guess MOs from SCF MO coefficient file

 -----------------------------------------------------------------------
  General SCF calculation program by
  Eric Jon Sundstrom, Paul Horn, Yuezhi Mao, Dmitri Zuev, Alec White,
  David Stuck, Shaama M.S., Shane Yost, Joonho Lee, David Small,
  Daniel Levine, Susi Lehtola, Hugh Burton, Evgeny Epifanovsky
 -----------------------------------------------------------------------
 Exchange:     0.4200 Hartree-Fock + 0.5800 PBEh-3c
 Correlation:  1.0000 PBEh-3c
 Using SG-1 standard quadrature grid
 Dispersion:   Grimme D3
 using 4 threads for integral computing
 -------------------------------------------------------
 OpenMP Integral computing Module                
 Release: version 2.0, May 2017, Q-Chem Inc. Pleasanton 
 -------------------------------------------------------
 -------------------------------------------------------
 OpenMP BLAS3 based DFT computing Module                
 Release: version 1.0, May 2013, Q-Chem Inc. Pittsburgh 
 -------------------------------------------------------
 A unrestricted SCF calculation will be
 performed using DIIS
 SCF converges when DIIS error is below 1.0e-08
 ---------------------------------------
  Cycle       Energy         DIIS error
 ---------------------------------------
 Using non-symmetric K matrix
    1    -753.0521253003      2.33e-04  
    2    -744.6799977875      1.53e-04  
    3    -744.6810240409      1.02e-04  
    4    -744.6813963180      1.88e-05  
    5    -744.6814070407      1.40e-05  
    6    -744.6814151790      3.54e-06  
    7    -744.6814161810      1.57e-06  
    8    -744.6814165646      9.45e-07  
    9    -744.6814168560      6.13e-07  
   10    -744.6814170381      2.84e-07  
   11    -744.6814170852      1.89e-07  
   12    -744.6814170950      1.11e-07  
   13    -744.6814171024      6.98e-08  
   14    -744.6814171046      3.62e-08  
   15    -744.6814171051      2.16e-08  
   16    -744.6814171053      9.01e-09  Convergence criterion met
 ---------------------------------------
 SCF time:   CPU 521.80s  wall 132.00s 
<S^2> =          0.782390737

************** Final PCM Free Energy Summary **************
 G_electrostatic  =      -0.04342457 hartree =     -27.24933089 kcal/mol
 G_cavitation     =       0.00000000 hartree =       0.00000000 kcal/mol
 G_dispersion     =       0.00000000 hartree =       0.00000000 kcal/mol
 G_repulsion      =       0.00000000 hartree =       0.00000000 kcal/mol
 --------------------------------------------------
 Non-electrostatic Free Energy =       0.00000000 hartree =       0.00000000 kcal/mol
 Total                         =      -0.04342457 hartree =     -27.24933089 kcal/mol
 --------------------------------------------------
 SCF Energy (H0 + V/2)                       =    -744.68141711 
 Solute Internal Energy (H0)                 =    -744.63799253 
 Total Free Energy (H0 + V/2 + non-elec)     =    -744.68141711 hartree
                                             = -467294.64211128 kcal/mol
***********************************************************

 SCF   energy in the final basis set =     -744.6814171053
 Total energy in the final basis set =     -744.6814171053
 
 --------------------------------------------------------------
 
                    Orbital Energies (a.u.)
 --------------------------------------------------------------
 
 Alpha MOs
 -- Occupied --
-19.611 -19.610 -14.803 -10.601 -10.601 -10.571 -10.569 -10.545
-10.542 -10.541 -10.541 -10.541 -10.537 -10.534 -10.533 -10.522
-10.519  -1.271  -1.271  -1.204  -1.038  -1.037  -0.966  -0.939
 -0.917  -0.905  -0.861  -0.852  -0.806  -0.766  -0.755  -0.742
 -0.702  -0.679  -0.675  -0.654  -0.637  -0.616  -0.613  -0.608
 -0.597  -0.590  -0.581  -0.573  -0.554  -0.547  -0.536  -0.529
 -0.509  -0.501  -0.498  -0.490  -0.458  -0.454  -0.451  -0.449
 -0.408  -0.368  -0.328  -0.316
 -- Virtual --
 -0.096  -0.054  -0.028  -0.013   0.069   0.079   0.079   0.099
  0.105   0.117   0.119   0.127   0.142   0.151   0.154   0.155
  0.167   0.176   0.178   0.179   0.182   0.195   0.207   0.217
  0.238   0.248   0.266   0.282   0.284   0.319   0.348   0.353
  0.365   0.389   0.391   0.417   0.429   0.434   0.439   0.449
  0.452   0.467   0.467   0.486   0.489   0.497   0.510   0.518
  0.520   0.526   0.532   0.538   0.541   0.548   0.561   0.564
  0.566   0.571   0.597   0.603   0.613   0.621   0.632   0.646
  0.657   0.665   0.697   0.700   0.723   0.736   0.780   0.802
  0.816   0.834   0.857   0.867   0.889   0.907   0.919   0.922
  0.926   0.935   0.941   0.946   0.947   0.950   0.959   0.966
  0.972   0.979   0.991   1.008   1.018   1.044   1.055   1.074
  1.077   1.079   1.092   1.136   1.154   1.165   1.182   1.187
  1.191   1.221   1.225   1.250   1.278   1.281   1.284   1.320
  1.332   1.349   1.352   1.357   1.405   1.418   1.423   1.426
  1.448   1.451   1.453   1.469   1.484   1.489   1.513   1.520
  1.522   1.662   1.685   1.686   1.723   1.734   1.757   1.792
  1.819   1.834   1.840   1.885   1.886   1.914   1.931   1.952
  1.959   1.963   2.007   2.012   2.016   2.026   2.048   2.050
  2.077   2.089   2.089   2.098   2.103   2.117   2.147   2.160
  2.191   2.192   2.227   2.240   2.249   2.255   2.261   2.266
  2.284   2.315   2.342   2.355   2.377   2.390   2.396   2.424
  2.508   2.515   2.533   2.537   2.570   2.601   2.611   2.623
  2.655   2.664   2.681   2.694   2.715   2.716   2.735   2.775
  2.797   2.866   2.883   2.954   2.970   3.023   3.130   3.158
  3.261   3.353   3.389   3.531  13.144  13.380  13.600  13.692
 13.714  13.716  13.787  13.937  14.075  14.152  14.170  14.224
 14.457  14.512  19.355  25.694  25.708
 
 Beta MOs
 -- Occupied --
-19.608 -19.607 -14.795 -10.599 -10.598 -10.572 -10.570 -10.543
-10.542 -10.541 -10.541 -10.540 -10.535 -10.533 -10.533 -10.523
-10.520  -1.265  -1.264  -1.193  -1.034  -1.030  -0.963  -0.933
 -0.911  -0.903  -0.860  -0.849  -0.803  -0.762  -0.752  -0.739
 -0.700  -0.677  -0.674  -0.652  -0.635  -0.615  -0.599  -0.596
 -0.588  -0.579  -0.576  -0.571  -0.552  -0.546  -0.535  -0.528
 -0.500  -0.497  -0.489  -0.483  -0.456  -0.449  -0.440  -0.424
 -0.394  -0.353  -0.313
 -- Virtual --
 -0.209  -0.083  -0.039  -0.005  -0.000   0.072   0.081   0.081
  0.100   0.106   0.118   0.129   0.131   0.143   0.152   0.155
  0.163   0.168   0.176   0.180   0.181   0.183   0.196   0.209
  0.218   0.239   0.250   0.269   0.283   0.285   0.320   0.351
  0.355   0.368   0.391   0.393   0.421   0.433   0.435   0.441
  0.450   0.455   0.469   0.470   0.488   0.495   0.498   0.511
  0.520   0.522   0.528   0.539   0.540   0.542   0.551   0.562
  0.568   0.568   0.577   0.601   0.605   0.613   0.624   0.636
  0.648   0.660   0.671   0.699   0.706   0.724   0.738   0.782
  0.818   0.827   0.835   0.859   0.869   0.890   0.909   0.919
  0.922   0.928   0.938   0.943   0.947   0.948   0.951   0.960
  0.968   0.973   0.979   0.992   1.009   1.020   1.045   1.056
  1.075   1.088   1.089   1.093   1.138   1.155   1.171   1.184
  1.188   1.192   1.225   1.227   1.252   1.283   1.287   1.289
  1.322   1.341   1.351   1.358   1.364   1.407   1.424   1.426
  1.428   1.451   1.453   1.455   1.471   1.486   1.492   1.515
  1.523   1.525   1.667   1.687   1.689   1.729   1.739   1.759
  1.794   1.821   1.841   1.843   1.887   1.891   1.919   1.936
  1.953   1.960   1.969   2.008   2.013   2.018   2.032   2.052
  2.052   2.080   2.091   2.092   2.100   2.104   2.120   2.151
  2.163   2.194   2.196   2.232   2.243   2.253   2.257   2.263
  2.268   2.286   2.319   2.347   2.358   2.382   2.396   2.400
  2.430   2.510   2.517   2.538   2.540   2.576   2.605   2.617
  2.625   2.657   2.668   2.683   2.695   2.718   2.719   2.737
  2.778   2.799   2.869   2.885   2.956   2.973   3.025   3.132
  3.159   3.262   3.355   3.391   3.532  13.145  13.381  13.601
 13.693  13.714  13.716  13.789  13.937  14.076  14.153  14.171
 14.226  14.459  14.513  19.366  25.697  25.712
 --------------------------------------------------------------
 
          Ground-State Mulliken Net Atomic Charges

     Atom                 Charge (a.u.)    Spin (a.u.)
  --------------------------------------------------------
      1 H                     0.424624      -0.014737
      2 N                    -0.713913       0.313776
      3 C                     0.342123      -0.066093
      4 C                     0.153030       0.029495
      5 C                     0.164502       0.102299
      6 C                     0.338884      -0.050263
      7 C                    -0.491098       0.019081
      8 C                     0.445010       0.182368
      9 C                    -0.329497      -0.095456
     10 C                    -0.230658       0.127364
     11 C                    -0.226522       0.169197
     12 C                    -0.375293      -0.107172
     13 C                     0.452333       0.165717
     14 C                    -0.446795       0.078131
     15 H                     0.280059      -0.001734
     16 O                    -0.418539       0.076341
     17 H                     0.292412       0.003862
     18 H                     0.280313      -0.007189
     19 H                     0.282519      -0.009340
     20 H                     0.291413       0.004387
     21 O                    -0.421315       0.078789
     22 H                     0.274432      -0.004767
     23 C                    -0.439615      -0.008018
     24 C                    -0.440783      -0.008278
     25 H                     0.276997      -0.000025
     26 H                     0.239786       0.005649
     27 H                     0.239713       0.005717
     28 H                     0.280634      -0.000079
     29 H                     0.238068       0.005499
     30 H                     0.237176       0.005480
  --------------------------------------------------------
  Sum of atomic charges =     1.000000
  Sum of spin   charges =     1.000000

 -----------------------------------------------------------------
                    Cartesian Multipole Moments
 -----------------------------------------------------------------
    Charge (ESU x 10^10)
                 4.8032
    Dipole Moment (Debye)
         X      11.3859      Y     -13.5083      Z      18.9010
       Tot      25.8720
    Quadrupole Moments (Debye-Ang)
        XX     -45.8595     XY     -42.9285     YY     -18.1091
        XZ      61.4694     YZ     -28.3387     ZZ       7.0930
    Octopole Moments (Debye-Ang^2)
       XXX    -556.4065    XXY      76.6670    XYY      14.4881
       YYY     233.2470    XXZ    -132.9023    XYZ    -114.9230
       YYZ    -275.3250    XZZ     159.0284    YZZ     173.6193
       ZZZ    -579.6261
    Hexadecapole Moments (Debye-Ang^3)
      XXXX   -4194.2769   XXXY    1625.9006   XXYY    -969.9774
      XYYY     338.9880   YYYY   -3728.7493   XXXZ   -2226.9426
      XXYZ     259.2760   XYYZ    -618.2741   YYYZ    1322.6578
      XXZZ   -1025.2128   XYZZ     366.9505   YYZZ   -3112.9645
      XZZZ    -429.2296   YZZZ    1941.8036   ZZZZ   -8071.8062
 -----------------------------------------------------------------
 Calculating analytic gradient of the SCF energy
  5.986131097354107E-005  5.985831052834071E-005
  5.985961991441409E-005  5.986000659021918E-005
  5.986054373566444E-005  5.985907704181865E-005
  5.986478452412850E-005  5.985483190318167E-005
  5.985789658167591E-005  5.986171570145046E-005
  5.986331075441157E-005  5.985629888563251E-005
  5.986425496052563E-005  5.985535334162595E-005
  5.985536389131691E-005  5.986425310322706E-005
  5.986121980658769E-005  5.985838383027106E-005
  5.985258566108106E-005  5.986702654935356E-005
  5.986175324941457E-005  5.985786827904201E-005
  5.985638680043624E-005  5.986322481575501E-005
  5.985758928594509E-005  5.986202413697575E-005
  5.986061196798664E-005  5.985899672176760E-005
  5.985965018527109E-005  5.985996039732027E-005
  5.986217273653388E-005  5.985744058535821E-005
  5.986143194923755E-005  5.985818154432515E-005
  5.986391289761410E-005  5.985569705465324E-005
  5.985158657276535E-005  5.986802792400664E-005
  5.986923957300865E-005  5.985037591952893E-005
  5.986045345663138E-005  5.985915833638398E-005
  5.986818920070425E-005  5.985142925147494E-005
  5.984956860888956E-005  5.987003781238311E-005
  5.985873593479428E-005  5.986087703330025E-005
  5.985996605949994E-005  5.985965163037308E-005
  5.986070876033268E-005  5.985890974711155E-005
  5.986030188804385E-005  5.985930676963377E-005
  5.986340857047571E-005  5.985621711624721E-005
  5.985159715501691E-005  5.986801866675785E-005
  5.985625668838252E-005  5.986336132943837E-005
  5.986439358728188E-005  5.985523344137809E-005
  5.986591138130296E-005  5.985370547265989E-005
  5.986841009760607E-005  5.985120080904931E-005
  5.986605903197498E-005  5.985355122577923E-005
  5.985407356141430E-005  5.986553930048532E-005
  5.986088195468292E-005  5.985872686661887E-005
  5.985972939388336E-005  5.985988893047356E-005
  5.986035886023944E-005  5.985924821777274E-005
  5.986029524876297E-005  5.985930464261803E-005
  5.984886218431107E-005  5.987075086917711E-005
  5.985314396166670E-005  5.986647885592914E-005
  5.984591364672209E-005  5.987369890120195E-005
  5.985563022490154E-005  5.986399680860815E-005
  5.986665588276595E-005  5.985297405819939E-005
  5.986167851146084E-005  5.985794870025136E-005
  5.985848627508353E-005  5.986113018013293E-005
  5.985668961505747E-005  5.986292946016866E-005
  5.985543956181302E-005  5.986417440997797E-005
  5.985948201835943E-005  5.986014052804968E-005
  5.986023055422803E-005  5.985939276186642E-005
  5.985921443687848E-005  5.986040414256089E-005
  5.985843628616129E-005  5.986118713459963E-005
  5.986241280758835E-005  5.985720922022132E-005
  5.986014623490013E-005  5.985947950679048E-005
  5.985954804247444E-005  5.986008553515586E-005
  5.986023129650027E-005  5.985939492931319E-005
  5.985928271070534E-005  5.986034123973312E-005
  5.986531086932287E-005  5.985430621368747E-005
  5.986207887257545E-005  5.985753865690838E-005
  5.986566011676681E-005  5.985395745809930E-005
  5.984823699512224E-005  5.987137307017350E-005
  5.985287275041140E-005  5.986673133723028E-005
  5.984454601498217E-005  5.987506507430356E-005
  5.985599330056648E-005  5.986364090496164E-005
  5.985914755526888E-005  5.986048463881640E-005
  5.985588167936616E-005  5.986374955981412E-005
  5.986310681793040E-005  5.985652110946547E-005
  5.987304355620959E-005  5.984658455506888E-005
  5.987161299417594E-005  5.984801158135019E-005
  5.986018428258707E-005  5.985943458023407E-005
  5.987024318628565E-005  5.984938267956898E-005
  5.986896682765906E-005  5.985066792731056E-005
  5.985963790572309E-005  5.985998632801584E-005
  5.985446458939437E-005  5.986515502480604E-005
  5.985541943039670E-005  5.986421015900806E-005
  5.985822409907730E-005  5.986140851135410E-005
  5.985512384410986E-005  5.986451611722819E-005
  5.986266453561064E-005  5.985697191468445E-005
  5.986406782784629E-005  5.985556853357712E-005
  5.986022795577968E-005  5.985941530874078E-005
  5.985579791505698E-005  5.986383208476301E-005
  5.986234397346954E-005  5.985727360976267E-005
  5.985764235973145E-005  5.986197533226108E-005
  5.985991391592254E-005  5.985970143653932E-005
  5.985686297995223E-005  5.986278397967021E-005
[...]
           13          14          15          16          17          18
    1  -0.0052227  -0.0061092   0.0172532   0.0033937  -0.0063202  -0.0169612
    2  -0.0005237  -0.0020174  -0.0103332   0.0111517   0.0148638   0.0087301
    3  -0.0048258  -0.0072242   0.0070837   0.0121441   0.0065658  -0.0078606
           19          20          21          22          23          24
    1  -0.0158962  -0.0031443   0.0126764   0.0150302  -0.0010201  -0.0154863
    2  -0.0001516  -0.0140378  -0.0092013   0.0000002   0.0151076   0.0056532
    3  -0.0136936  -0.0128553   0.0043711   0.0133471   0.0101392  -0.0090203
           25          26          27          28          29          30
    1   0.0122122   0.0006383  -0.0124878   0.0045637   0.0121376  -0.0013999
    2  -0.0095736   0.0031890  -0.0081118   0.0099165  -0.0016842  -0.0143187
    3   0.0033696  -0.0145099   0.0008159   0.0119734  -0.0095597   0.0058630
 Max gradient component =       2.509E-02
 RMS gradient           =       9.052E-03
 Computing fast IEFPCM-SWIG gradient.
 Updating gradient with PCM contributions...
 -- total gradient after adding PCM contribution --
---------------------------------------------------
  Atom         X              Y              Z     
---------------------------------------------------
   1      -0.000011      -0.000040       0.000005
   2      -0.000066      -0.000031      -0.000012
   3       0.000017      -0.000048      -0.000001
   4       0.000007       0.000056       0.000042
   5      -0.000038      -0.000041      -0.000063
   6       0.000032      -0.000018       0.000031
   7       0.000000       0.000038       0.000015
   8       0.000017      -0.000004      -0.000039
   9      -0.000029      -0.000009      -0.000026
  10      -0.000040      -0.000008      -0.000009
  11      -0.000011      -0.000023       0.000027
  12       0.000024      -0.000025       0.000037
  13       0.000022      -0.000012      -0.000001
  14       0.000009      -0.000013       0.000002
  15       0.000000       0.000027      -0.000018
  16      -0.000047       0.000038      -0.000032
  17      -0.000035      -0.000002      -0.000029
  18      -0.000030      -0.000030      -0.000009
  19       0.000001      -0.000053       0.000024
  20       0.000014      -0.000035       0.000029
  21       0.000015       0.000041       0.000062
  22       0.000017       0.000021       0.000002
  23       0.000023      -0.000030      -0.000012
  24       0.000019       0.000038      -0.000022
  25       0.000042       0.000014       0.000028
  26       0.000021      -0.000008       0.000032
  27       0.000043      -0.000002       0.000045
  28      -0.000007       0.000055      -0.000044
  29      -0.000016       0.000050      -0.000037
  30       0.000006       0.000054      -0.000025
---------------------------------------------------
 Number of fixed atoms: 0
 Gradient time:  CPU 57.80 s  wall 22.81 s
 Geometry Optimization Parameters
   NAtoms,    NIC,     NZ,  NCons,   NDum,   NFix, NCnnct, MaxDiis
       30     215       0       0       0       0       0       0

 Cartesian Hessian Update
 Hessian Updated using BFGS Update


** GEOMETRY OPTIMIZATION IN DELOCALIZED INTERNAL COORDINATES **
   Searching for a Minimum

   Optimization Cycle:   9

                       Coordinates (Angstroms)
     ATOM                X               Y               Z
      1  H         0.1153175645   -1.7489322934    2.7041559591
      2  N         0.9398924301   -1.9780894518    3.2433798541
      3  C         1.7046974963   -3.0919202533    3.0548888059
      4  C         2.7574394353   -3.0718671749    3.9953186228
      5  C         2.5758429141   -1.8614033835    4.7804291644
      6  C         1.4243503232   -1.2272498299    4.2606329671
      7  C         3.2544437663   -1.3085945725    5.8364603712
      8  C         2.7650599094   -0.1030241619    6.3766295985
      9  C         1.6069910553    0.5162852526    5.8462616589
     10  C         0.9299465465   -0.0324024203    4.7918739293
     11  C         1.5459568579   -4.1320889111    2.1469233157
     12  C         2.4586991621   -5.1693828751    2.1789568286
     13  C         3.5132379500   -5.1628501045    3.1044547023
     14  C         3.6612696342   -4.0985904117    4.0263688002
     15  H         4.1340921834   -1.7956694613    6.2341397185
     16  O         3.3268094642    0.5265042418    7.3899206121
     17  H         1.2654627962    1.4383878188    6.2962907480
     18  H         0.0438804507    0.4417893814    4.3912441690
     19  H         0.7317201036   -4.1451858472    1.4342705253
     20  H         2.3408315207   -5.9851469943    1.4800914518
     21  O         4.4266051525   -6.1142277996    3.1980334785
     22  H         4.4804112206   -4.1258295731    4.7336454947
     23  C         4.3773330988   -7.2344023390    2.3273256819
     24  C         4.4999788687    0.0032099062    7.9955319320
     25  H         5.2248752612   -7.8591600243    2.5923843638
     26  H         4.4693731079   -6.9326490041    1.2820729519
     27  H         3.4566761237   -7.8055899558    2.4635544619
     28  H         4.7624349025    0.6954211673    8.7894893189
     29  H         5.3248964054   -0.0513142706    7.2824300164
     30  H         4.3196642946   -0.9832766548    8.4270104973
   Point Group: c1    Number of degrees of freedom:    84


   Energy is   -744.681611113

 Hessian Updated using BFGS Update

 84 Hessian modes will be used to form the next step
  Hessian Eigenvalues:
     0.015188    0.018241    0.019582    0.020154    0.020248    0.020457
     0.020528    0.020697    0.021123    0.021692    0.021792    0.022265
     0.022336    0.022400    0.022478    0.022548    0.023298    0.023354
     0.023551    0.024024    0.024566    0.024803    0.025199    0.104041
     0.104794    0.105514    0.106129    0.112563    0.136711    0.154534
     0.159998    0.160000    0.160000    0.160000    0.160038    0.160216
     0.160264    0.161049    0.161952    0.164809    0.180950    0.224083
     0.225048    0.232722    0.235697    0.242436    0.246612    0.249972
     0.250926    0.255103    0.274797    0.315812    0.323698    0.324416
     0.325096    0.325526    0.327193    0.329225    0.348621    0.349260
     0.356783    0.356906    0.357085    0.357274    0.360966    0.367353
     0.369118    0.402531    0.406580    0.415530    0.419067    0.427772
     0.441142    0.443758    0.460329    0.464171    0.472766    0.477724
     0.486999    0.495785    0.500126    0.545056    0.562610    0.636711

 Minimum Search - Taking Simple RFO Step
 Searching for Lamda that Minimizes Along All modes
 Value Taken    Lamda =   0.00000000
 Step Taken.  Stepsize is  0.001013

                             Maximum     Tolerance    Cnvgd?
         Gradient           0.000050      0.000075     YES
         Displacement       0.000489      0.001200     YES
         Energy change     -0.000001      0.000000      NO

 Final energy is   -744.681611113209     


 ******************************
 **  OPTIMIZATION CONVERGED  **
 ******************************

                       Coordinates (Angstroms)
     ATOM                X               Y               Z
      1  H         0.1153175645   -1.7489322934    2.7041559591
      2  N         0.9398924301   -1.9780894518    3.2433798541
      3  C         1.7046974963   -3.0919202533    3.0548888059
      4  C         2.7574394353   -3.0718671749    3.9953186228
      5  C         2.5758429141   -1.8614033835    4.7804291644
      6  C         1.4243503232   -1.2272498299    4.2606329671
      7  C         3.2544437663   -1.3085945725    5.8364603712
      8  C         2.7650599094   -0.1030241619    6.3766295985
      9  C         1.6069910553    0.5162852526    5.8462616589
     10  C         0.9299465465   -0.0324024203    4.7918739293
     11  C         1.5459568579   -4.1320889111    2.1469233157
     12  C         2.4586991621   -5.1693828751    2.1789568286
     13  C         3.5132379500   -5.1628501045    3.1044547023
     14  C         3.6612696342   -4.0985904117    4.0263688002
     15  H         4.1340921834   -1.7956694613    6.2341397185
     16  O         3.3268094642    0.5265042418    7.3899206121
     17  H         1.2654627962    1.4383878188    6.2962907480
     18  H         0.0438804507    0.4417893814    4.3912441690
     19  H         0.7317201036   -4.1451858472    1.4342705253
     20  H         2.3408315207   -5.9851469943    1.4800914518
     21  O         4.4266051525   -6.1142277996    3.1980334785
     22  H         4.4804112206   -4.1258295731    4.7336454947
     23  C         4.3773330988   -7.2344023390    2.3273256819
     24  C         4.4999788687    0.0032099062    7.9955319320
     25  H         5.2248752612   -7.8591600243    2.5923843638
     26  H         4.4693731079   -6.9326490041    1.2820729519
     27  H         3.4566761237   -7.8055899558    2.4635544619
     28  H         4.7624349025    0.6954211673    8.7894893189
     29  H         5.3248964054   -0.0513142706    7.2824300164
     30  H         4.3196642946   -0.9832766548    8.4270104973

Z-matrix Print:
$molecule
1 2
N 
H  1 1.011533
C  1 1.353981 2 124.509692
C  1 1.364212 2 124.632740 3 179.196779 0
C  4 1.389802 1 129.590709 2 -0.850638 0
H  5 1.082140 4 121.684368 1 0.836367 0
C  5 1.382065 4 118.109055 1 -178.765334 0
H  7 1.080637 5 118.656201 4 179.705330 0
C  3 1.397967 1 129.266805 2 0.618844 0
H  9 1.081885 3 121.570346 1 -0.746766 0
C  9 1.367911 3 117.432433 1 178.978684 0
H  11 1.081407 9 120.429723 3 -179.836559 0
C  7 1.403083 5 120.541125 4 -0.074025 0
O  13 1.322163 7 124.231728 5 -179.918859 0
C  4 1.411763 1 108.325442 2 -179.632311 0
C  15 1.368223 4 119.805235 1 179.056055 0
H  16 1.082578 15 122.245378 4 -179.696924 0
C  3 1.413603 1 108.599400 2 179.577061 0
C  18 1.371604 3 120.352324 1 -179.292119 0
H  19 1.081283 18 120.271895 3 179.893334 0
C  19 1.408786 18 117.920451 3 0.107756 0
O  21 1.318570 19 123.726262 18 -179.986929 0
C  14 1.419631 13 120.025877 7 -0.031367 0
H  23 1.085774 14 106.093674 13 179.549335 0
H  23 1.091824 14 111.479591 13 60.916658 0
H  23 1.091981 14 111.437378 13 -61.858819 0
C  22 1.420186 21 120.245911 19 0.580372 0
H  27 1.085545 22 106.060372 21 179.767521 0
H  27 1.091716 22 111.410809 21 -61.647506 0
H  27 1.091777 22 111.347886 21 61.229968 0
$end

 
 --------------------------------------------------------------
 
                    Orbital Energies (a.u.)
 --------------------------------------------------------------
 
 Alpha MOs
 -- Occupied --
-19.612 -19.608 -14.803 -10.603 -10.599 -10.573 -10.567 -10.546
-10.543 -10.541 -10.541 -10.540 -10.538 -10.534 -10.533 -10.521
-10.520  -1.273  -1.268  -1.205  -1.038  -1.037  -0.966  -0.938
 -0.916  -0.905  -0.862  -0.851  -0.806  -0.766  -0.755  -0.742
 -0.702  -0.679  -0.675  -0.653  -0.637  -0.615  -0.614  -0.608
 -0.597  -0.591  -0.580  -0.572  -0.553  -0.546  -0.536  -0.529
 -0.510  -0.501  -0.497  -0.491  -0.459  -0.455  -0.451  -0.449
 -0.407  -0.368  -0.328  -0.315
 -- Virtual --
 -0.096  -0.054  -0.028  -0.013   0.068   0.078   0.080   0.099
  0.104   0.116   0.119   0.127   0.141   0.151   0.154   0.155
  0.167   0.175   0.176   0.178   0.181   0.195   0.207   0.217
  0.237   0.248   0.266   0.282   0.284   0.319   0.349   0.353
  0.365   0.390   0.391   0.418   0.430   0.434   0.439   0.449
  0.452   0.467   0.468   0.486   0.490   0.496   0.509   0.518
  0.520   0.526   0.532   0.538   0.540   0.549   0.561   0.564
  0.566   0.571   0.597   0.602   0.614   0.619   0.632   0.645
  0.657   0.665   0.697   0.700   0.722   0.736   0.780   0.803
  0.816   0.834   0.857   0.866   0.889   0.906   0.919   0.922
  0.925   0.936   0.942   0.946   0.949   0.951   0.960   0.965
  0.972   0.978   0.991   1.008   1.018   1.043   1.054   1.073
  1.075   1.080   1.090   1.137   1.155   1.165   1.184   1.188
  1.192   1.221   1.225   1.250   1.277   1.283   1.286   1.320
  1.332   1.347   1.352   1.356   1.404   1.418   1.422   1.427
  1.449   1.450   1.452   1.469   1.484   1.489   1.513   1.519
  1.523   1.662   1.684   1.688   1.722   1.734   1.756   1.790
  1.819   1.834   1.839   1.885   1.887   1.917   1.932   1.951
  1.958   1.964   2.003   2.011   2.015   2.027   2.048   2.049
  2.078   2.086   2.091   2.098   2.099   2.116   2.145   2.158
  2.191   2.191   2.226   2.240   2.248   2.255   2.262   2.265
  2.286   2.314   2.340   2.353   2.376   2.389   2.394   2.424
  2.508   2.514   2.530   2.536   2.566   2.601   2.609   2.624
  2.657   2.661   2.681   2.692   2.714   2.715   2.735   2.773
  2.797   2.866   2.883   2.954   2.970   3.024   3.127   3.153
  3.258   3.352   3.388   3.529  13.144  13.380  13.600  13.691
 13.708  13.711  13.787  13.936  14.075  14.151  14.170  14.222
 14.455  14.510  19.357  25.695  25.709
 
 Beta MOs
 -- Occupied --
-19.609 -19.605 -14.795 -10.600 -10.596 -10.574 -10.569 -10.544
-10.544 -10.541 -10.540 -10.538 -10.536 -10.533 -10.532 -10.522
-10.522  -1.266  -1.262  -1.193  -1.034  -1.030  -0.962  -0.932
 -0.910  -0.903  -0.861  -0.848  -0.804  -0.762  -0.752  -0.738
 -0.699  -0.676  -0.673  -0.651  -0.635  -0.614  -0.600  -0.596
 -0.589  -0.578  -0.576  -0.571  -0.552  -0.546  -0.535  -0.528
 -0.500  -0.496  -0.490  -0.484  -0.457  -0.449  -0.441  -0.425
 -0.394  -0.353  -0.314
 -- Virtual --
 -0.208  -0.082  -0.039  -0.005  -0.000   0.072   0.080   0.081
  0.100   0.105   0.117   0.128   0.132   0.142   0.152   0.155
  0.163   0.168   0.176   0.178   0.180   0.182   0.196   0.209
  0.218   0.238   0.250   0.269   0.284   0.285   0.321   0.351
  0.355   0.367   0.392   0.393   0.422   0.434   0.435   0.441
  0.450   0.455   0.470   0.470   0.488   0.495   0.498   0.511
  0.520   0.522   0.528   0.539   0.540   0.541   0.551   0.562
  0.567   0.568   0.577   0.601   0.604   0.614   0.622   0.636
  0.646   0.659   0.671   0.699   0.706   0.723   0.738   0.782
  0.817   0.827   0.836   0.859   0.868   0.890   0.907   0.919
  0.923   0.927   0.938   0.944   0.947   0.950   0.952   0.961
  0.968   0.973   0.979   0.992   1.009   1.020   1.045   1.055
  1.074   1.086   1.089   1.092   1.139   1.155   1.171   1.186
  1.189   1.194   1.226   1.227   1.252   1.282   1.288   1.290
  1.323   1.341   1.350   1.358   1.363   1.407   1.423   1.425
  1.430   1.452   1.452   1.455   1.471   1.485   1.492   1.515
  1.522   1.525   1.667   1.687   1.690   1.728   1.739   1.758
  1.793   1.821   1.840   1.844   1.887   1.892   1.921   1.937
  1.953   1.960   1.969   2.005   2.012   2.017   2.032   2.051
  2.052   2.080   2.088   2.093   2.100   2.100   2.119   2.150
  2.160   2.194   2.195   2.230   2.243   2.251   2.258   2.264
  2.267   2.287   2.317   2.344   2.356   2.382   2.395   2.399
  2.431   2.510   2.517   2.536   2.539   2.572   2.605   2.615
  2.626   2.659   2.666   2.682   2.694   2.717   2.718   2.737
  2.777   2.799   2.869   2.885   2.956   2.973   3.026   3.128
  3.155   3.259   3.354   3.389   3.530  13.145  13.381  13.601
 13.693  13.708  13.711  13.789  13.936  14.075  14.152  14.171
 14.223  14.456  14.511  19.367  25.699  25.713
 --------------------------------------------------------------
 
          Ground-State Mulliken Net Atomic Charges

     Atom                 Charge (a.u.)    Spin (a.u.)
  --------------------------------------------------------
      1 H                     0.424990      -0.014670
      2 N                    -0.714069       0.311126
      3 C                     0.342539      -0.071752
      4 C                     0.155192       0.021652
      5 C                     0.162564       0.110993
      6 C                     0.343002      -0.040652
      7 C                    -0.492826       0.013358
      8 C                     0.445584       0.191760
      9 C                    -0.327714      -0.091888
     10 C                    -0.230442       0.125186
     11 C                    -0.229968       0.168419
     12 C                    -0.377625      -0.105914
     13 C                     0.450348       0.154124
     14 C                    -0.448742       0.082768
     15 H                     0.281247      -0.001478
     16 O                    -0.416905       0.081944
     17 H                     0.293266       0.003603
     18 H                     0.281023      -0.007149
     19 H                     0.281251      -0.009257
     20 H                     0.290712       0.004383
     21 O                    -0.425020       0.073041
     22 H                     0.273069      -0.004991
     23 C                    -0.438515      -0.007352
     24 C                    -0.441577      -0.008750
     25 H                     0.276763      -0.000014
     26 H                     0.239597       0.005053
     27 H                     0.239739       0.005157
     28 H                     0.282491      -0.000071
     29 H                     0.240327       0.005681
     30 H                     0.239699       0.005690
  --------------------------------------------------------
  Sum of atomic charges =     1.000000
  Sum of spin   charges =     1.000000

 -----------------------------------------------------------------
                    Cartesian Multipole Moments
 -----------------------------------------------------------------
    Charge (ESU x 10^10)
                 4.8032
    Dipole Moment (Debye)
         X      11.3752      Y     -13.1888      Z      19.1176
       Tot      25.8616
    Quadrupole Moments (Debye-Ang)
        XX     -45.9371     XY     -41.8545     YY     -19.9313
        XZ      62.1324     YZ     -27.4871     ZZ       9.1138
    Octopole Moments (Debye-Ang^2)
       XXX    -556.9596    XXY      81.1083    XYY       7.6504
       YYY     244.0254    XXZ    -130.4960    XYZ    -111.8774
       YYZ    -280.6779    XZZ     165.7486    YZZ     175.8292
       ZZZ    -564.2279
    Hexadecapole Moments (Debye-Ang^3)
      XXXX   -4198.3383   XXXY    1648.9267   XXYY    -998.7226
      XYYY     385.4465   YYYY   -3794.7620   XXXZ   -2216.4694
      XXYZ     273.8841   XYYZ    -639.4895   YYYZ    1358.8802
      XXZZ    -998.0421   XYZZ     375.9505   YYZZ   -3129.8532
      XZZZ    -374.0523   YZZZ    1947.8352   ZZZZ   -7954.5865
 -----------------------------------------------------------------
Archival summary:
1\1\ctcp042\OPT\ProcedureUnspecified\BasisUnspecified\211413(1+,2)\mewes1\MonDec312:00:282018MonDec312:00:282018\0\\#,OPT,ProcedureUnspecified,BasisUnspecified,\\1,2\N\H,1,1.01153\C,1,1.35398,2,124.51\C,1,1.36421,2,124.633,3,179.197,0\C,4,1.3898,1,129.591,2,-0.850638,0\H,5,1.08214,4,121.684,1,0.836367,0\C,5,1.38206,4,118.109,1,-178.765,0\H,7,1.08064,5,118.656,4,179.705,0\C,3,1.39797,1,129.267,2,0.618844,0\H,9,1.08189,3,121.57,1,-0.746766,0\C,9,1.36791,3,117.432,1,178.979,0\H,11,1.08141,9,120.43,3,-179.837,0\C,7,1.40308,5,120.541,4,-0.0740252,0\O,13,1.32216,7,124.232,5,-179.919,0\C,4,1.41176,1,108.325,2,-179.632,0\C,15,1.36822,4,119.805,1,179.056,0\H,16,1.08258,15,122.245,4,-179.697,0\C,3,1.4136,1,108.599,2,179.577,0\C,18,1.3716,3,120.352,1,-179.292,0\H,19,1.08128,18,120.272,3,179.893,0\C,19,1.40879,18,117.92,3,0.107756,0\O,21,1.31857,19,123.726,18,-179.987,0\C,14,1.41963,13,120.026,7,-0.031367,0\H,23,1.08577,14,106.094,13,179.549,0\H,23,1.09182,14,111.48,13,60.9167,0\H,23,1.09198,14,111.437,13,-61.8588,0\C,22,1.42019,21,120.246,19,0.580372,0\H,27,1.08554,22,106.06,21,179.768,0\H,27,1.09172,22,111.411,21,-61.6475,0\H,27,1.09178,22,111.348,21,61.23,0\\\@

 Total job time:  1447.35s(wall), 5470.81s(cpu) 
 Mon Dec  3 12:00:28 2018

        *************************************************************
        *                                                           *
        *  Thank you very much for using Q-Chem.  Have a nice day.  *
        *                                                           *
        *************************************************************


0 sent ACK to 0 
now end server 0 ... 
