mFile = /cm/shared/apps/q-chem/intel/QCHEM_5.1.0_Trunk/bin/mpi/machines
Process 0 of 1 is on ctcp044 - thread support 0
initial socket setup ...start
initial socket setup ...done 
now start server 0 ... 
Q-Chem Developer Version!
                  Welcome to Q-Chem
     A Quantum Leap Into The Future Of Chemistry


 Q-Chem 5.1, Q-Chem, Inc., Pleasanton, CA (2018)

 Yihan Shao,  Zhengting Gan,  E. Epifanovsky,  A. T. B. Gilbert,  M. Wormit,  
 J. Kussmann,  A. W. Lange,  A. Behn,  Jia Deng,  Xintian Feng,  D. Ghosh,  
 M. Goldey,  P. R. Horn,  L. D. Jacobson,  I. Kaliman,  T. Kus,  A. Landau,  
 Jie Liu,  E. I. Proynov,  R. M. Richard,  R. P. Steele,  E. J. Sundstrom,  
 H. L. Woodcock III,  P. M. Zimmerman,  D. Zuev,  B. Albrecht,  E. Alguire,  
 S. A. Baeppler,  D. Barton,  Z. Benda,  Y. A. Bernard,  E. J. Berquist,  
 K. B. Bravaya,  H. Burton,  D. Casanova,  Chun-Min Chang,  Yunqing Chen,  
 A. Chien,  K. D. Closser,  M. P. Coons,  S. Coriani,  S. Dasgupta,  
 A. L. Dempwolff,  M. Diedenhofen,  Hainam Do,  R. G. Edgar,  Po-Tung Fang,  
 S. Faraji,  S. Fatehi,  Qingguo Feng,  K. D. Fenk,  J. Fosso-Tande,  
 Qinghui Ge,  A. Ghysels,  G. Gidofalvi,  J. Gomes,  J. Gonthier,  A. Gunina,  
 D. Hait,  M. W. D. Hanson-Heine,  P. H. P. Harbach,  A. W. Hauser,  
 J. E. Herr,  E. G. Hohenstein,  Z. C. Holden,  Kerwin Hui,  B. C. Huynh,  
 T.-C. Jagau,  Hyunjun Ji,  B. Kaduk,  K. Khistyaev,  Jaehoon Kim,  
 P. Klunzinger,  K. Koh,  D. Kosenkov,  L. Koulias,  T. Kowalczyk,  
 C. M. Krauter,  A. Kunitsa,  Ka Un Lao,  A. Laurent,  K. V. Lawler,  
 Joonho Lee,  D. Lefrancois,  S. Lehtola,  D. S. Levine,  Yi-Pei Li,  
 You-Sheng Lin,  Fenglai Liu,  E. Livshits,  A. Luenser,  P. Manohar,  
 E. Mansoor,  S. F. Manzer,  Shan-Ping Mao,  Yuezhi Mao,  N. Mardirossian,  
 A. V. Marenich,  T. Markovich,  L. A. Martinez-Martinez,  S. A. Maurer,  
 N. J. Mayhall,  S. C. McKenzie,  J.-M. Mewes,  A. F. Morrison,  
 J. W. Mullinax,  K. Nanda,  T. S. Nguyen-Beck,  R. Olivares-Amaya,  
 J. A. Parkhill,  T. M. Perrine,  F. Plasser,  P. Pokhilko,  S. Prager,  
 A. Prociuk,  E. Ramos,  D. R. Rehn,  F. Rob,  M. Schneider,  N. Sergueev,  
 S. M. Sharada,  S. Sharma,  D. W. Small,  T. Stauch,  T. Stein,  
 Yu-Chuan Su,  A. J. W. Thom,  A. Tkatchenko,  T. Tsuchimochi,  N. M. Tubman,  
 L. Vogt,  M. L. Vidal,  O. Vydrov,  M. A. Watson,  J. Wenzel,  
 M. de Wergifosse,  T. A. Wesolowski,  A. White,  J. Witte,  A. Yamada,  
 Jun Yang,  K. Yao,  S. Yeganeh,  S. R. Yost,  Zhi-Qiang You,  A. Zech,  
 Igor Ying Zhang,  Xing Zhang,  Yan Zhao,  Ying Zhu,  B. R. Brooks,  
 G. K. L. Chan,  C. J. Cramer,  M. S. Gordon,  W. J. Hehre,  A. Klamt,  
 M. W. Schmidt,  C. D. Sherrill,  D. G. Truhlar,  A. Aspuru-Guzik,  R. Baer,  
 A. T. Bell,  N. A. Besley,  Jeng-Da Chai,  A. E. DePrince, III,  
 R. A. DiStasio Jr.,  A. Dreuw,  B. D. Dunietz,  T. R. Furlani,  
 Chao-Ping Hsu,  Yousung Jung,  Jing Kong,  D. S. Lambrecht,  WanZhen Liang,  
 C. Ochsenfeld,  V. A. Rassolov,  L. V. Slipchenko,  J. E. Subotnik,  
 T. Van Voorhis,  J. M. Herbert,  A. I. Krylov,  P. M. W. Gill,  M. Head-Gordon

 Contributors to earlier versions of Q-Chem not listed above: 
 R. D. Adamson,  B. Austin,  J. Baker,  G. J. O. Beran,  K. Brandhorst,  
 S. T. Brown,  E. F. C. Byrd,  A. K. Chakraborty,  C.-L. Cheng,  
 Siu Hung Chien,  D. M. Chipman,  D. L. Crittenden,  H. Dachsel,  
 R. J. Doerksen,  A. D. Dutoi,  L. Fusti-Molnar,  W. A. Goddard III,  
 A. Golubeva-Zadorozhnaya,  S. R. Gwaltney,  G. Hawkins,  A. Heyden,  
 S. Hirata,  G. Kedziora,  F. J. Keil,  C. Kelley,  Jihan Kim,  R. A. King,  
 R. Z. Khaliullin,  P. P. Korambath,  W. Kurlancheek,  A. M. Lee,  M. S. Lee,  
 S. V. Levchenko,  Ching Yeh Lin,  D. Liotard,  R. C. Lochan,  I. Lotan,  
 P. E. Maslen,  N. Nair,  D. P. O'Neill,  D. Neuhauser,  E. Neuscamman,  
 C. M. Oana,  R. Olson,  B. Peters,  R. Peverati,  P. A. Pieniazek,  
 Y. M. Rhee,  J. Ritchie,  M. A. Rohrdanz,  E. Rosta,  N. J. Russ,  
 H. F. Schaefer III,  N. E. Schultz,  N. Shenvi,  A. C. Simmonett,  A. Sodt,  
 D. Stuck,  K. S. Thanthiriwatte,  V. Vanovschi,  Tao Wang,  A. Warshel,  
 C. F. Williams,  Q. Wu,  X. Xu,  W. Zhang

 Please cite Q-Chem as follows:
 Y. Shao et al., Mol. Phys. 113, 184-215 (2015)
 DOI: 10.1080/00268976.2014.952696

 Q-Chem 5.1.1 for Intel X86 EM64T Linux

 Parts of Q-Chem use Armadillo 8.300.2 (Tropical Shenanigans).
 http://arma.sourceforge.net/

 Q-Chem begins on Mon Dec  3 11:36:21 2018  

Host: ctcp044
0

     Scratch files written to /scratch/mewes1/141148/qchem10855//
 Parallel job on  1  processors
The previous job contains 0 fragments, simply inherited here
Symmetry turned off for PCM/SM12/SMD calculation
Input Ideriv = 2
Curr. Ideriv = -1
Max.  Ideriv = 2
Input Ideriv = 2
Curr. Ideriv = 2
Max.  Ideriv = 2

Checking the input file for inconsistencies... 	...done.

--------------------------------------------------------------
User input:
--------------------------------------------------------------
$rem
threads 4
jobtype opt
method PBEh-3c
basis def2-mSVP
mem_static      1024
mem_total       4000
sym_ignore      true
unrestricted true
scf_algorithm	diis
scf_max_cycles	250
solvent_method  pcm
geom_opt_tol_energy 25
geom_opt_tol_gradient 75
$end

$pcm
theory  iefpcm
$end

$solvent
dielectric      2.38
$end

$molecule
read Cz_kat.mol
$end
--------------------------------------------------------------
 Adding empirical dispersion correction 
 ----------------------------------------------------------------
 Doing -D3(BJ) with
 s6 =   1.00000
 s8 =   0.00000
 a1 =   0.48600
 a2 =   4.50000
 -D3 energy including 3body term =     -0.0148601832 hartrees
 ----------------------------------------------------------------
 Adding gCP correction 
 ----------------------------------------------------------------
 gCP energy =      0.0295252923 hartrees
 ----------------------------------------------------------------
             Standard Nuclear Orientation (Angstroms)
    I     Atom           X                Y                Z
 ----------------------------------------------------------------
    1      H       0.1163000000    -1.7881000000     2.7139000000
    2      N       0.9699000000    -2.0269000000     3.2675000000
    3      C       1.7614000000    -3.1128000000     3.1196000000
    4      C       2.7937000000    -3.0940000000     4.0336000000
    5      C       2.6308000000    -1.9486000000     4.7799000000
    6      C       1.5067000000    -1.3198000000     4.2872000000
    7      C       3.3610000000    -1.4179000000     5.8412000000
    8      C       2.9152000000    -0.2092000000     6.4092000000
    9      C       1.7619000000     0.4372000000     5.9046000000
   10      C       1.0451000000    -0.1210000000     4.8278000000
   11      C       1.6171000000    -4.1525000000     2.2028000000
   12      C       2.5609000000    -5.1978000000     2.2361000000
   13      C       3.6206000000    -5.1767000000     3.1736000000
   14      C       3.7445000000    -4.1111000000     4.0855000000
   15      H       4.2407000000    -1.9190000000     6.2231000000
   16      H       3.4568000000     0.2272000000     7.2386000000
   17      H       1.4282000000     1.3651000000     6.3509000000
   18      H       0.1608000000     0.3666000000     4.4378000000
   19      H       0.8031000000    -4.1623000000     1.4894000000
   20      H       2.4745000000    -6.0240000000     1.5420000000
   21      H       4.3389000000    -5.9862000000     3.1916000000
   22      H       4.5512000000    -4.0887000000     4.8064000000
 ----------------------------------------------------------------
 Nuclear Repulsion Energy =   709.9416723631 hartrees
 There are       44 alpha and       43 beta electrons
 Requested basis set is def2-mSVP
 There are 109 shells and 213 basis functions

 Total QAlloc Memory Limit   4000 MB
 Mega-Array Size      1001 MB
 MEM_STATIC part      1024 MB
 Discretize the solute cavity surface with Lebedev spheres
	Using 302 Lebedev grid points for each H atom
	Using 302 Lebedev grid points for other atoms
	Atomic van der Waals radii will be scaled by 1.20
 Remove points where switching function is < 1.0e-08
 Keep 2589 surface tesserae and discard 4055 interior tesserae
 Molecular Surface Area = 205.103 Angst**2
 A cutoff of  1.0D-11 yielded   4868 shell pairs
 There are     19692 function pairs (     22100 Cartesian)
 
 -------------------------------------------------------
 OpenMP Integral Computing Module                       
 Release: version 1.0, May 2013, Q-Chem Inc. Pittsburgh 
 -------------------------------------------------------
 Integral Job Info:
 Integral job number is                      11
 Integral operator is                         1
 short-range coefficients                     0
 long-range coefficients              100000000
 Omega coefficients                           0
 if combine SR and LR in K                    0
 Integral screening is                        0
 Integral computing path is                   2
 max size of driver memory is            800000
 size of driver memory is                593474
 size of scratch memory is              1809772
 max col of scratch BK array               1296
 max len of scratch array in speh3          155
 max len of scratch index in speh4           18
 max int batch size is                      520
 min int batch size is                       52
 fixed nKL is                                52
 max L of basis functions is                  2
 order of int derivative is                   0
 number of shells is                        109
 number of basis is                         226
 number of cartesian basis is               226
 number of contracted shell pairs          4868
 number of primitive shell pairs          11574
 maxK2 (contraction) of shell pair           25
 max number of K2 of shell pair               1
 max number of CS2 of shell pair           1125
 max number of PS2 of shell pair           2185
 mem total for path MDJ                  565260
 -------------------------------------------------------
 Smallest overlap matrix eigenvalue = 3.36E-04

 Scale SEOQF with 1.000000e-01/1.000000e-02/1.000000e-02

 Standard Electronic Orientation quadrupole field applied
 Nucleus-field energy     =     0.0000000081 hartrees
 Guess from superposition of atomic densities
 Warning:  Energy on first SCF cycle will be non-variational
 SAD guess density has 88.000000 electrons

 -----------------------------------------------------------------------
  General SCF calculation program by
  Eric Jon Sundstrom, Paul Horn, Yuezhi Mao, Dmitri Zuev, Alec White,
  David Stuck, Shaama M.S., Shane Yost, Joonho Lee, David Small,
  Daniel Levine, Susi Lehtola, Hugh Burton, Evgeny Epifanovsky
 -----------------------------------------------------------------------
 Exchange:     0.4200 Hartree-Fock + 0.5800 PBEh-3c
 Correlation:  1.0000 PBEh-3c
 Using SG-1 standard quadrature grid
 Dispersion:   Grimme D3
 using 4 threads for integral computing
 -------------------------------------------------------
 OpenMP Integral computing Module                
 Release: version 2.0, May 2017, Q-Chem Inc. Pleasanton 
 -------------------------------------------------------
 -------------------------------------------------------
 OpenMP BLAS3 based DFT computing Module                
 Release: version 1.0, May 2013, Q-Chem Inc. Pittsburgh 
 -------------------------------------------------------
 A unrestricted SCF calculation will be
 performed using DIIS
 SCF converges when DIIS error is below 1.0e-08
 ---------------------------------------
  Cycle       Energy         DIIS error
 ---------------------------------------
 Using non-symmetric K matrix
    1    -520.7715505413      3.01e-02  
    2    -515.9965654914      1.76e-03  
    3    -516.0038675388      1.86e-03  
    4    -516.0791650220      4.10e-04  
    5    -516.0827100644      1.67e-04  
    6    -516.0835431077      6.82e-05  
    7    -516.0837424890      3.25e-05  
    8    -516.0839013691      1.75e-05  
    9    -516.0839533025      1.07e-05  
   10    -516.0839648621      4.58e-06  
   11    -516.0839680913      2.36e-06  
   12    -516.0839686699      1.25e-06  
   13    -516.0839688052      3.96e-07  
   14    -516.0839688184      1.89e-07  
   15    -516.0839688209      6.87e-08  
   16    -516.0839688215      2.51e-08  
   17    -516.0839688216      1.24e-08  
   18    -516.0839688216      5.81e-09  Convergence criterion met
 ---------------------------------------
 SCF time:   CPU 293.10s  wall 75.00s 
<S^2> =          0.798837432

************** Final PCM Free Energy Summary **************
 G_electrostatic  =      -0.04707197 hartree =     -29.53810738 kcal/mol
 G_cavitation     =       0.00000000 hartree =       0.00000000 kcal/mol
 G_dispersion     =       0.00000000 hartree =       0.00000000 kcal/mol
 G_repulsion      =       0.00000000 hartree =       0.00000000 kcal/mol
 --------------------------------------------------
 Non-electrostatic Free Energy =       0.00000000 hartree =       0.00000000 kcal/mol
 Total                         =      -0.04707197 hartree =     -29.53810738 kcal/mol
 --------------------------------------------------
 SCF Energy (H0 + V/2)                       =    -516.08396882 
 Solute Internal Energy (H0)                 =    -516.03689685 
 Total Free Energy (H0 + V/2 + non-elec)     =    -516.08396882 hartree
                                             = -323847.57826680 kcal/mol
***********************************************************

 SCF   energy in the final basis set =     -516.0839688216
 Total energy in the final basis set =     -516.0839688216
 
 --------------------------------------------------------------
 
                    Orbital Energies (a.u.)
 --------------------------------------------------------------
 
 Alpha MOs
 -- Occupied --
-14.830 -10.581 -10.581 -10.553 -10.553 -10.546 -10.546 -10.545
-10.545 -10.540 -10.539 -10.533 -10.533  -1.233  -1.050  -1.044
 -0.977  -0.942  -0.917  -0.896  -0.831  -0.783  -0.778  -0.745
 -0.710  -0.676  -0.670  -0.627  -0.620  -0.609  -0.592  -0.584
 -0.576  -0.567  -0.514  -0.508  -0.505  -0.498  -0.487  -0.487
 -0.425  -0.396  -0.359  -0.339
 -- Virtual --
 -0.105  -0.072  -0.050  -0.024   0.042   0.083   0.085   0.099
  0.115   0.135   0.144   0.149   0.156   0.157   0.185   0.191
  0.213   0.221   0.223   0.241   0.251   0.258   0.302   0.304
  0.342   0.375   0.403   0.407   0.415   0.443   0.455   0.470
  0.476   0.482   0.495   0.498   0.507   0.508   0.510   0.513
  0.535   0.547   0.548   0.552   0.555   0.557   0.582   0.582
  0.610   0.623   0.633   0.641   0.677   0.681   0.711   0.730
  0.782   0.807   0.836   0.837   0.845   0.869   0.877   0.883
  0.905   0.925   0.927   0.945   0.953   0.954   0.968   0.969
  0.979   1.001   1.024   1.056   1.068   1.079   1.083   1.149
  1.158   1.205   1.223   1.228   1.241   1.263   1.270   1.273
  1.291   1.324   1.400   1.410   1.416   1.432   1.449   1.453
  1.453   1.455   1.463   1.478   1.515   1.630   1.671   1.750
  1.753   1.808   1.809   1.821   1.854   1.881   1.944   1.952
  1.964   1.966   1.987   2.027   2.030   2.035   2.054   2.073
  2.104   2.142   2.146   2.169   2.175   2.215   2.231   2.235
  2.246   2.265   2.270   2.350   2.366   2.408   2.503   2.527
  2.549   2.579   2.598   2.607   2.617   2.623   2.639   2.692
  2.705   2.719   2.746   2.812   2.825   2.831   2.914   2.970
  3.219   3.328   3.361   3.516  13.121  13.358  13.579  13.591
 13.708  13.864  13.992  14.097  14.099  14.256  14.434  14.540
 19.353
 
 Beta MOs
 -- Occupied --
-14.821 -10.583 -10.583 -10.549 -10.549 -10.546 -10.545 -10.542
-10.542 -10.538 -10.538 -10.535 -10.535  -1.220  -1.042  -1.039
 -0.972  -0.935  -0.905  -0.896  -0.827  -0.778  -0.775  -0.742
 -0.706  -0.674  -0.666  -0.618  -0.606  -0.599  -0.590  -0.582
 -0.573  -0.566  -0.512  -0.507  -0.489  -0.486  -0.485  -0.461
 -0.412  -0.362  -0.342
 -- Virtual --
 -0.238  -0.094  -0.054  -0.026  -0.011   0.047   0.085   0.086
  0.113   0.116   0.138   0.147   0.156   0.156   0.159   0.187
  0.192   0.216   0.222   0.224   0.242   0.252   0.259   0.303
  0.304   0.344   0.377   0.406   0.408   0.419   0.451   0.457
  0.472   0.479   0.488   0.497   0.503   0.508   0.511   0.517
  0.524   0.537   0.550   0.551   0.555   0.560   0.561   0.587
  0.588   0.611   0.627   0.635   0.648   0.681   0.687   0.713
  0.732   0.809   0.811   0.838   0.840   0.846   0.871   0.880
  0.884   0.909   0.925   0.929   0.946   0.954   0.956   0.972
  0.974   0.980   1.001   1.027   1.056   1.068   1.080   1.086
  1.156   1.161   1.207   1.226   1.233   1.244   1.267   1.275
  1.283   1.294   1.336   1.402   1.416   1.422   1.437   1.452
  1.456   1.462   1.462   1.467   1.481   1.517   1.634   1.683
  1.754   1.755   1.811   1.812   1.822   1.870   1.882   1.946
  1.953   1.968   1.978   1.989   2.028   2.034   2.037   2.059
  2.077   2.111   2.141   2.151   2.173   2.180   2.219   2.238
  2.240   2.252   2.270   2.274   2.363   2.372   2.415   2.506
  2.530   2.552   2.581   2.604   2.612   2.622   2.626   2.640
  2.693   2.709   2.721   2.748   2.813   2.826   2.837   2.917
  2.972   3.221   3.329   3.362   3.516  13.122  13.359  13.582
 13.591  13.711  13.863  13.993  14.098  14.100  14.258  14.435
 14.541  19.366
 --------------------------------------------------------------
 
          Ground-State Mulliken Net Atomic Charges

     Atom                 Charge (a.u.)    Spin (a.u.)
  --------------------------------------------------------
      1 H                     0.447957      -0.017499
      2 N                    -0.692097       0.374480
      3 C                     0.368969      -0.088397
      4 C                     0.142707       0.067004
      5 C                     0.142182       0.066587
      6 C                     0.368805      -0.088482
      7 C                    -0.317925       0.000913
      8 C                    -0.201993       0.255102
      9 C                    -0.244942      -0.156428
     10 C                    -0.258259       0.265314
     11 C                    -0.258595       0.265065
     12 C                    -0.244901      -0.156489
     13 C                    -0.202142       0.255300
     14 C                    -0.317749       0.000373
     15 H                     0.271426      -0.000166
     16 H                     0.290637      -0.013792
     17 H                     0.285411       0.006621
     18 H                     0.286531      -0.014102
     19 H                     0.286491      -0.014090
     20 H                     0.285411       0.006626
     21 H                     0.290672      -0.013799
     22 H                     0.271404      -0.000139
  --------------------------------------------------------
  Sum of atomic charges =     1.000000
  Sum of spin   charges =     1.000000

 -----------------------------------------------------------------
                    Cartesian Multipole Moments
 -----------------------------------------------------------------
    Charge (ESU x 10^10)
                 4.8032
    Dipole Moment (Debye)
         X       9.1481      Y     -11.0722      Z      18.7312
       Tot      23.6038
    Quadrupole Moments (Debye-Ang)
        XX     -37.4185     XY     -32.0877     YY     -20.6299
        XZ      48.1288     YZ     -27.5638     ZZ      17.3428
    Octopole Moments (Debye-Ang^2)
       XXX    -363.8334    XXY      43.0555    XYY      -3.4778
       YYY     272.6056    XXZ    -110.1628    XYZ    -117.9048
       YYZ    -168.6576    XZZ     108.8116    YZZ     102.0316
       ZZZ    -412.7405
    Hexadecapole Moments (Debye-Ang^3)
      XXXX   -2261.6581   XXXY     825.8105   XXYY    -506.7951
      XYYY     491.6046   YYYY   -2783.9699   XXXZ   -1377.4627
      XXYZ      26.4109   XYYZ    -177.1334   YYYZ    1167.2574
      XXZZ    -773.3811   XYZZ     -11.7184   YYZZ   -1675.9686
      XZZZ    -471.7243   YZZZ    1562.9049   ZZZZ   -5506.7598
 -----------------------------------------------------------------
 Calculating analytic gradient of the SCF energy
  8.804622460181478E-006  8.810529145651478E-006
  8.808476858929715E-006  8.806676770647041E-006
  8.805545053724649E-006  8.809606092574187E-006
  8.814084098640804E-006  8.801066653493478E-006
  8.805611736473351E-006  8.809540056564847E-006
  8.812007466174061E-006  8.803140348949266E-006
  8.811908162395523E-006  8.803233473769865E-006
  8.804421800944877E-006  8.810723054124536E-006
  8.809274848422492E-006  8.805867305479339E-006
  8.804322537608988E-006  8.810817978670043E-006
  8.808058433665688E-006  8.807088563711056E-006
  8.805616053783116E-006  8.809524399722676E-006
  8.804266618515740E-006  8.810873655428929E-006
  8.808518079068719E-006  8.806628443308503E-006
  8.805901361058940E-006  8.809239810023034E-006
  8.811393661909090E-006  8.803748570814534E-006
  8.808107417428186E-006  8.807038626231356E-006
  8.811664124514360E-006  8.803476245128708E-006
  8.800106329782455E-006  8.815040656271675E-006
  8.811608160366255E-006  8.803540194278374E-006
  8.804347154670591E-006  8.810797093470830E-006
  8.808350453345945E-006  8.806798732692256E-006
  8.806659155954449E-006  8.808481382715102E-006
  8.807392199584396E-006  8.807754587707103E-006
  8.805067087940566E-006  8.810074507113661E-006
  8.811296197712845E-006  8.803848199896047E-006
  8.808155629607665E-006  8.806981722782596E-006
  8.811321857948934E-006  8.803827763273846E-006
  8.805362213104782E-006  8.809782802415027E-006
  8.809103977382697E-006  8.806041359639639E-006
  8.810976342340029E-006  8.804173529281157E-006
  8.807774067399705E-006  8.807371525134268E-006
  8.810680669424442E-006  8.804463847489200E-006
  8.805936792009894E-006  8.809203094252421E-006
  8.805115037672093E-006  8.810026355857796E-006
  8.804138539274788E-006  8.811003535895710E-006
  8.808121881832414E-006  8.807029263478236E-006
  8.808235273312613E-006  8.806909363100332E-006
  8.808422176900414E-006  8.806718559411317E-006
  8.800669378273060E-006  8.814477361151366E-006
  8.807441391855919E-006  8.807706580979392E-006
  8.801675131300531E-006  8.813469747590581E-006
  8.807587318899974E-006  8.807570620743660E-006
  8.810232549685875E-006  8.804922086180779E-006
  8.809587221930285E-006  8.805566805152497E-006
  8.807157751793378E-006  8.807991806598591E-006
  8.812832628769019E-006  8.802314058818100E-006
  8.811001366467758E-006  8.804144648193375E-006
  8.808486261584549E-006  8.806659723865940E-006
  8.810292923593175E-006  8.804847767716068E-006
  8.810177562585370E-006  8.804965682930577E-006
  8.807595030681861E-006  8.807557187867607E-006
  8.810053870473185E-006  8.805096557204072E-006
  8.809332212993617E-006  8.805818438980570E-006
  8.808307900025406E-006  8.806844672279154E-006
  8.805043065732232E-006  8.810108199474742E-006
  8.806065682355878E-006  8.809083775660261E-006
  8.809350465355733E-006  8.805795749351897E-006
  8.804370885366981E-006  8.810770719340471E-006
  8.806284916247311E-006  8.808857202935962E-006
  8.808647775826517E-006  8.806501181580922E-006
  8.802380000451066E-006  8.812765792139731E-006
  8.804184883581461E-006  8.810962628786953E-006
  8.808346577736631E-006  8.806811414437461E-006
  8.804725029714745E-006  8.810429675331141E-006
  8.806039757278892E-006  8.809114152791059E-006
 Gradient of SCF Energy
            1           2           3           4           5           6
    1  -0.0498226   0.0092660   0.0216857  -0.0431319  -0.0262678   0.0320825
    2   0.0137372  -0.0022234   0.0275850   0.0663948  -0.0493973  -0.0461315
    3  -0.0323161   0.0057775   0.0408383   0.0153986  -0.0614516  -0.0069321
            7           8           9          10          11          12
    1   0.0071410   0.0124236  -0.0008371   0.0027469  -0.0039950   0.0022469
    2   0.0019327  -0.0066140   0.0116560  -0.0219701   0.0246515  -0.0111547
    3   0.0069034   0.0054086   0.0082844  -0.0157088   0.0142985  -0.0067254
           13          14          15          16          17          18
    1   0.0113113   0.0083420   0.0188395   0.0109653  -0.0063119  -0.0189441
    2   0.0005676  -0.0047582  -0.0100720   0.0079987   0.0184944   0.0092058
    3   0.0100075   0.0027593   0.0087183   0.0162376   0.0092619  -0.0093551
           19          20          21          22
    1  -0.0177867  -0.0014643   0.0142276   0.0172831
    2   0.0015737  -0.0165812  -0.0153124   0.0004171
    3  -0.0142417  -0.0135173   0.0010485   0.0153055
 Max gradient component =       6.639E-02
 RMS gradient           =       2.128E-02
 Computing fast IEFPCM-SWIG gradient.
 Updating gradient with PCM contributions...
 -- total gradient after adding PCM contribution --
---------------------------------------------------
  Atom         X              Y              Z     
---------------------------------------------------
   1      -0.021566       0.005877      -0.014015
   2       0.005430      -0.001346       0.003437
   3       0.015391       0.029051       0.036418
   4      -0.039196       0.051233       0.007199
   5      -0.026562      -0.035401      -0.050631
   6       0.025624      -0.043982      -0.010865
   7       0.014692      -0.003582       0.009298
   8       0.014729      -0.002564       0.010756
   9      -0.004228       0.015768       0.008624
  10      -0.005764      -0.013582      -0.016433
  11      -0.010759       0.020279       0.005563
  12      -0.000174      -0.013769      -0.010778
  13       0.015001      -0.005359       0.008914
  14       0.014904      -0.003318       0.009660
  15       0.000631      -0.000262       0.000464
  16       0.000894       0.000104       0.000961
  17      -0.000091       0.001489       0.001148
  18      -0.000152      -0.000578      -0.000644
  19      -0.000362       0.001230       0.000542
  20       0.000225      -0.001441      -0.000764
  21       0.000937      -0.000459       0.000572
  22       0.000400       0.000612       0.000575
---------------------------------------------------
 Number of fixed atoms: 0
 Gradient time:  CPU 31.74 s  wall 11.91 s
 Geometry Optimization Parameters
   NAtoms,    NIC,     NZ,  NCons,   NDum,   NFix, NCnnct, MaxDiis
       22     167       0       0       0       0       0       0


** GEOMETRY OPTIMIZATION IN DELOCALIZED INTERNAL COORDINATES **
   Searching for a Minimum

   Optimization Cycle:   1

                       Coordinates (Angstroms)
     ATOM                X               Y               Z
      1  H         0.1163000000   -1.7881000000    2.7139000000
      2  N         0.9699000000   -2.0269000000    3.2675000000
      3  C         1.7614000000   -3.1128000000    3.1196000000
      4  C         2.7937000000   -3.0940000000    4.0336000000
      5  C         2.6308000000   -1.9486000000    4.7799000000
      6  C         1.5067000000   -1.3198000000    4.2872000000
      7  C         3.3610000000   -1.4179000000    5.8412000000
      8  C         2.9152000000   -0.2092000000    6.4092000000
      9  C         1.7619000000    0.4372000000    5.9046000000
     10  C         1.0451000000   -0.1210000000    4.8278000000
     11  C         1.6171000000   -4.1525000000    2.2028000000
     12  C         2.5609000000   -5.1978000000    2.2361000000
     13  C         3.6206000000   -5.1767000000    3.1736000000
     14  C         3.7445000000   -4.1111000000    4.0855000000
     15  H         4.2407000000   -1.9190000000    6.2231000000
     16  H         3.4568000000    0.2272000000    7.2386000000
     17  H         1.4282000000    1.3651000000    6.3509000000
     18  H         0.1608000000    0.3666000000    4.4378000000
     19  H         0.8031000000   -4.1623000000    1.4894000000
     20  H         2.4745000000   -6.0240000000    1.5420000000
     21  H         4.3389000000   -5.9862000000    3.1916000000
     22  H         4.5512000000   -4.0887000000    4.8064000000
   Point Group: c1    Number of degrees of freedom:    60


   Energy is   -516.083968822


 Attempting to Generate Delocalized Internal Coordinates

 60 Hessian modes will be used to form the next step
  Hessian Eigenvalues:
     0.020747    0.020757    0.020987    0.020995    0.021040    0.021050
     0.022004    0.022253    0.022267    0.022315    0.022334    0.022342
     0.022360    0.023093    0.023287    0.023414    0.024260    0.024289
     0.024730    0.159991    0.159997    0.159997    0.159997    0.159998
     0.159999    0.160000    0.160000    0.160000    0.219999    0.220000
     0.226005    0.226170    0.237822    0.245164    0.246388    0.249983
     0.356917    0.356921    0.357009    0.357036    0.357070    0.357088
     0.357405    0.357484    0.385327    0.403243    0.405701    0.411561
     0.412554    0.433049    0.439135    0.441537    0.448899    0.457995
     0.458123    0.462212    0.464129    0.486111    0.526842    0.534799

 Minimum Search - Taking Simple RFO Step
 Searching for Lamda that Minimizes Along All modes
 Value Taken    Lamda =  -0.02927336
 Step Taken.  Stepsize is  0.275413

                             Maximum     Tolerance    Cnvgd?
         Gradient           0.046543      0.000075      NO
         Displacement       0.112437      0.001200      NO
         Energy change     *********      0.000000      NO


 New Cartesian Coordinates Obtained by Inverse Iteration

 Displacement from previous Coordinates is:  0.642823
 Adding empirical dispersion correction 
 ----------------------------------------------------------------
 Doing -D3(BJ) with
 s6 =   1.00000
 s8 =   0.00000
 a1 =   0.48600
 a2 =   4.50000
 -D3 energy including 3body term =     -0.0150331719 hartrees
 ----------------------------------------------------------------
 Adding gCP correction 
 ----------------------------------------------------------------
 gCP energy =      0.0296771459 hartrees
 ----------------------------------------------------------------
             Standard Nuclear Orientation (Angstroms)
    I     Atom           X                Y                Z
 ----------------------------------------------------------------
    1      H       0.2095374742    -1.8100406672     2.7733988390
    2      N       1.0382668292    -2.0408495855     3.3082008631
    3      C       1.7969105258    -3.1577252775     3.1083862747
    4      C       2.8470878472    -3.1314188100     4.0410448574
    5      C       2.6751056513    -1.9268059888     4.8269640199
    6      C       1.5301209909    -1.2814491280     4.3304146344
    7      C       3.3553109183    -1.3600039601     5.8780203181
    8      C       2.8701758445    -0.1556148710     6.4132816423
    9      C       1.7303127255     0.4704131242     5.9080173927
   10      C       1.0351759495    -0.0835012168     4.8502726341
   11      C       1.6197135345    -4.1890689017     2.1781230890
   12      C       2.5386159671    -5.2213362379     2.2028194125
   13      C       3.5883471809    -5.2108557593     3.1203869701
   14      C       3.7539442500    -4.1674983823     4.0467345870
   15      H       4.2391614287    -1.8292304644     6.2867308706
   16      H       3.3920315230     0.3006800406     7.2424234531
   17      H       1.3854665694     1.3948673366     6.3470503059
   18      H       0.1478795299     0.3922489887     4.4528194547
   19      H       0.8002616639    -4.1915914854     1.4707601049
   20      H       2.4401379307    -6.0423249425     1.5075106450
   21      H       4.2910562849    -6.0323860633     3.1186641571
   22      H       4.5746793806    -4.1870077484     4.7502754741
 ----------------------------------------------------------------
 Nuclear Repulsion Energy =   706.4489189649 hartrees
 There are       44 alpha and       43 beta electrons
 Discretize the solute cavity surface with Lebedev spheres
	Using 302 Lebedev grid points for each H atom
	Using 302 Lebedev grid points for other atoms
	Atomic van der Waals radii will be scaled by 1.20
 Remove points where switching function is < 1.0e-08
 Keep 2607 surface tesserae and discard 4037 interior tesserae
 Molecular Surface Area = 205.347 Angst**2
 Applying Cartesian multipole field
    Component          Value
    ---------          -----
     (2,0,0)        1.00000E-11
     (0,2,0)        2.00000E-12
     (0,0,2)       -3.00000E-12
 Nucleus-field energy     =     0.0000000081 hartrees
 Requested basis set is def2-mSVP
 There are 109 shells and 213 basis functions
 A cutoff of  1.0D-11 yielded   4815 shell pairs
 There are     19495 function pairs (     21879 Cartesian)
 Smallest overlap matrix eigenvalue = 3.44E-04
 Guess MOs from SCF MO coefficient file

 -----------------------------------------------------------------------
  General SCF calculation program by
  Eric Jon Sundstrom, Paul Horn, Yuezhi Mao, Dmitri Zuev, Alec White,
  David Stuck, Shaama M.S., Shane Yost, Joonho Lee, David Small,
  Daniel Levine, Susi Lehtola, Hugh Burton, Evgeny Epifanovsky
 -----------------------------------------------------------------------
 Exchange:     0.4200 Hartree-Fock + 0.5800 PBEh-3c
 Correlation:  1.0000 PBEh-3c
 Using SG-1 standard quadrature grid
 Dispersion:   Grimme D3
 using 4 threads for integral computing
 -------------------------------------------------------
 OpenMP Integral computing Module                
 Release: version 2.0, May 2017, Q-Chem Inc. Pleasanton 
 -------------------------------------------------------
 -------------------------------------------------------
 OpenMP BLAS3 based DFT computing Module                
 Release: version 1.0, May 2013, Q-Chem Inc. Pittsburgh 
 -------------------------------------------------------
 A unrestricted SCF calculation will be
 performed using DIIS
 SCF converges when DIIS error is below 1.0e-08
 ---------------------------------------
  Cycle       Energy         DIIS error
 ---------------------------------------
 Using non-symmetric K matrix
    1    -523.0214707993      5.91e-04  
    2    -516.0965555537      2.41e-04  
    3    -516.0973909961      1.88e-04  
    4    -516.0982035705      3.50e-05  
    5    -516.0982422865      1.50e-05  
    6    -516.0982523395      8.90e-06  
    7    -516.0982588357      4.27e-06  
    8    -516.0982616187      3.50e-06  
    9    -516.0982628739      9.50e-07  
   10    -516.0982630070      4.86e-07  
   11    -516.0982630356      3.29e-07  
   12    -516.0982630508      1.51e-07  
   13    -516.0982630544      7.31e-08  
   14    -516.0982630549      2.93e-08  
   15    -516.0982630549      1.21e-08  
   16    -516.0982630549      4.18e-09  Convergence criterion met
 ---------------------------------------
 SCF time:   CPU 263.77s  wall 66.00s 
<S^2> =          0.803843774

************** Final PCM Free Energy Summary **************
 G_electrostatic  =      -0.04647060 hartree =     -29.16073894 kcal/mol
 G_cavitation     =       0.00000000 hartree =       0.00000000 kcal/mol
 G_dispersion     =       0.00000000 hartree =       0.00000000 kcal/mol
 G_repulsion      =       0.00000000 hartree =       0.00000000 kcal/mol
 --------------------------------------------------
 Non-electrostatic Free Energy =       0.00000000 hartree =       0.00000000 kcal/mol
 Total                         =      -0.04647060 hartree =     -29.16073894 kcal/mol
 --------------------------------------------------
 SCF Energy (H0 + V/2)                       =    -516.09826305 
 Solute Internal Energy (H0)                 =    -516.05179246 
 Total Free Energy (H0 + V/2 + non-elec)     =    -516.09826305 hartree
                                             = -323856.54803363 kcal/mol
***********************************************************

 SCF   energy in the final basis set =     -516.0982630549
 Total energy in the final basis set =     -516.0982630549
 
 --------------------------------------------------------------
 
                    Orbital Energies (a.u.)
 --------------------------------------------------------------
 
 Alpha MOs
 -- Occupied --
-14.828 -10.587 -10.586 -10.552 -10.551 -10.550 -10.550 -10.543
-10.543 -10.543 -10.542 -10.529 -10.529  -1.223  -1.050  -1.048
 -0.976  -0.943  -0.915  -0.907  -0.829  -0.789  -0.774  -0.747
 -0.707  -0.681  -0.667  -0.620  -0.618  -0.611  -0.587  -0.586
 -0.583  -0.571  -0.512  -0.511  -0.510  -0.497  -0.488  -0.484
 -0.427  -0.396  -0.356  -0.348
 -- Virtual --
 -0.100  -0.075  -0.048  -0.025   0.058   0.079   0.082   0.103
  0.115   0.132   0.140   0.144   0.160   0.162   0.184   0.185
  0.206   0.224   0.226   0.245   0.253   0.260   0.299   0.301
  0.333   0.360   0.395   0.412   0.416   0.431   0.440   0.470
  0.482   0.482   0.492   0.496   0.508   0.510   0.522   0.526
  0.540   0.547   0.549   0.551   0.552   0.560   0.584   0.584
  0.599   0.619   0.631   0.641   0.673   0.683   0.691   0.731
  0.781   0.794   0.833   0.841   0.857   0.877   0.879   0.891
  0.917   0.922   0.925   0.934   0.943   0.950   0.961   0.979
  0.982   1.007   1.013   1.050   1.068   1.076   1.093   1.149
  1.157   1.197   1.213   1.221   1.227   1.259   1.261   1.274
  1.300   1.329   1.401   1.411   1.419   1.426   1.436   1.451
  1.457   1.458   1.470   1.480   1.505   1.637   1.683   1.725
  1.737   1.777   1.798   1.815   1.839   1.871   1.946   1.948
  1.960   1.974   1.995   2.025   2.033   2.050   2.069   2.072
  2.119   2.132   2.133   2.180   2.182   2.221   2.231   2.236
  2.251   2.253   2.276   2.349   2.364   2.400   2.494   2.495
  2.546   2.567   2.582   2.614   2.615   2.631   2.644   2.678
  2.694   2.736   2.746   2.810   2.834   2.854   2.901   2.994
  3.179   3.321   3.348   3.495  13.119  13.331  13.573  13.596
 13.702  13.852  14.019  14.097  14.106  14.210  14.451  14.505
 19.323
 
 Beta MOs
 -- Occupied --
-14.818 -10.589 -10.588 -10.549 -10.548 -10.548 -10.548 -10.543
-10.543 -10.539 -10.539 -10.532 -10.531  -1.208  -1.045  -1.040
 -0.970  -0.937  -0.908  -0.904  -0.825  -0.783  -0.771  -0.743
 -0.703  -0.679  -0.662  -0.616  -0.608  -0.591  -0.585  -0.584
 -0.581  -0.570  -0.509  -0.509  -0.496  -0.487  -0.482  -0.460
 -0.414  -0.365  -0.350
 -- Virtual --
 -0.234  -0.090  -0.058  -0.025  -0.012   0.062   0.081   0.083
  0.115   0.117   0.135   0.142   0.153   0.160   0.165   0.186
  0.186   0.208   0.225   0.227   0.246   0.254   0.261   0.300
  0.301   0.335   0.363   0.398   0.413   0.420   0.433   0.447
  0.472   0.484   0.488   0.495   0.501   0.512   0.521   0.526
  0.528   0.541   0.549   0.553   0.556   0.559   0.563   0.585
  0.588   0.604   0.623   0.634   0.648   0.676   0.689   0.693
  0.734   0.795   0.812   0.835   0.843   0.858   0.880   0.880
  0.893   0.917   0.926   0.926   0.934   0.944   0.951   0.965
  0.983   0.984   1.008   1.015   1.052   1.069   1.078   1.096
  1.152   1.163   1.199   1.215   1.226   1.230   1.265   1.268
  1.279   1.302   1.341   1.402   1.416   1.424   1.430   1.440
  1.455   1.464   1.466   1.473   1.483   1.508   1.644   1.694
  1.729   1.739   1.780   1.800   1.817   1.854   1.873   1.951
  1.958   1.962   1.977   1.997   2.026   2.035   2.052   2.073
  2.076   2.127   2.133   2.137   2.184   2.187   2.224   2.238
  2.239   2.255   2.258   2.280   2.362   2.370   2.407   2.497
  2.498   2.549   2.573   2.585   2.617   2.618   2.636   2.645
  2.680   2.698   2.738   2.748   2.811   2.840   2.855   2.903
  2.996   3.180   3.322   3.349   3.496  13.120  13.332  13.574
 13.598  13.705  13.851  14.020  14.098  14.107  14.212  14.452
 14.506  19.335
 --------------------------------------------------------------
 
          Ground-State Mulliken Net Atomic Charges

     Atom                 Charge (a.u.)    Spin (a.u.)
  --------------------------------------------------------
      1 H                     0.434872      -0.017343
      2 N                    -0.696325       0.387011
      3 C                     0.357642      -0.099425
      4 C                     0.141683       0.094601
      5 C                     0.139566       0.094241
      6 C                     0.360019      -0.099218
      7 C                    -0.335392      -0.033325
      8 C                    -0.197932       0.275540
      9 C                    -0.240637      -0.155420
     10 C                    -0.232804       0.251461
     11 C                    -0.232439       0.255342
     12 C                    -0.239847      -0.156488
     13 C                    -0.196084       0.276799
     14 C                    -0.337457      -0.033268
     15 H                     0.271661       0.001564
     16 H                     0.289802      -0.014955
     17 H                     0.286662       0.006674
     18 H                     0.289037      -0.013409
     19 H                     0.289056      -0.013619
     20 H                     0.287066       0.006717
     21 H                     0.290269      -0.015018
     22 H                     0.271581       0.001539
  --------------------------------------------------------
  Sum of atomic charges =     1.000000
  Sum of spin   charges =     1.000000

 -----------------------------------------------------------------
                    Cartesian Multipole Moments
 -----------------------------------------------------------------
    Charge (ESU x 10^10)
                 4.8032
    Dipole Moment (Debye)
         X       9.2466      Y     -11.1256      Z      18.7911
       Tot      23.7146
    Quadrupole Moments (Debye-Ang)
        XX     -37.9994     XY     -32.3369     YY     -19.0197
        XZ      47.7823     YZ     -26.8398     ZZ      17.9558
    Octopole Moments (Debye-Ang^2)
       XXX    -368.6917    XXY      44.5653    XYY      -1.3106
       YYY     262.2453    XXZ    -115.0673    XYZ    -115.7476
       YYZ    -167.4805    XZZ     104.5177    YZZ     107.5410
       ZZZ    -409.0555
    Hexadecapole Moments (Debye-Ang^3)
      XXXX   -2282.1916   XXXY     841.9197   XXYY    -516.3533
      XYYY     478.7800   YYYY   -2769.0296   XXXZ   -1402.3183
      XXYZ      35.9376   XYYZ    -180.2403   YYYZ    1140.2397
      XXZZ    -808.0702   XYZZ       8.6478   YYZZ   -1691.8584
      XZZZ    -498.8698   YZZZ    1580.7592   ZZZZ   -5506.0737
 -----------------------------------------------------------------
 Calculating analytic gradient of the SCF energy
  1.209136971877635E-005  1.209570095750289E-005
  1.209422770326590E-005  1.209284452264378E-005
  1.209202393646588E-005  1.209504592491662E-005
  1.210056759781797E-005  1.208650085190156E-005
  1.209135896300307E-005  1.209571138515265E-005
  1.209843600663035E-005  1.208862995282613E-005
  1.209799556219282E-005  1.208906362439583E-005
  1.208987114097660E-005  1.209719091928459E-005
  1.209514880255264E-005  1.209191073712903E-005
  1.208969830517854E-005  1.209736014875726E-005
  1.209398128496745E-005  1.209308390545409E-005
  1.209128748441143E-005  1.209577111679371E-005
  1.208964161611337E-005  1.209741669053231E-005
  1.209464267622250E-005  1.209242224308487E-005
  1.209168289078589E-005  1.209537617271234E-005
  1.209734748049674E-005  1.208971237515474E-005
  1.209436665160999E-005  1.209269661902747E-005
  1.209803631405007E-005  1.208902130715470E-005
  1.208567257979648E-005  1.210139300338445E-005
  1.209749648844362E-005  1.208957049317887E-005
  1.208991932510562E-005  1.209714299553036E-005
  1.209428496726817E-005  1.209278244983156E-005
  1.209273113638447E-005  1.209432773492541E-005
  1.209334398516349E-005  1.209372135084964E-005
  1.209077267777260E-005  1.209628685853467E-005
  1.209731845018722E-005  1.208974327906683E-005
  1.209386847979838E-005  1.209318664440325E-005
  1.209731625914570E-005  1.208975115151748E-005
  1.209145695818065E-005  1.209560546024048E-005
  1.209513359798239E-005  1.209193001288567E-005
  1.209700979501430E-005  1.209005811809798E-005
  1.209364101374154E-005  1.209342251454449E-005
  1.209658118319072E-005  1.209048075715842E-005
  1.209163300238652E-005  1.209542485388635E-005
  1.209120621937525E-005  1.209585272696417E-005
  1.208990902327565E-005  1.209715063741550E-005
  1.209407690386479E-005  1.209299256519214E-005
  1.209414288092683E-005  1.209292040496925E-005
  1.209428220314581E-005  1.209277664986844E-005
  1.208617923859474E-005  1.210088582465053E-005
  1.209371333819298E-005  1.209335280415848E-005
  1.208750631634226E-005  1.209955722199669E-005
  1.209371930614706E-005  1.209335727115575E-005
  1.209639119855689E-005  1.209068204784416E-005
  1.209582268563536E-005  1.209124977222034E-005
  1.209298725579212E-005  1.209408045667892E-005
  1.209874098088081E-005  1.208832345913514E-005
  1.209674886097835E-005  1.209031504368313E-005
  1.209449682499992E-005  1.209256731537011E-005
  1.209617988482350E-005  1.209087879172086E-005
  1.209603241783438E-005  1.209102896978788E-005
  1.209394931514364E-005  1.209312165025917E-005
  1.209587206505366E-005  1.209119733297942E-005
  1.209541903232064E-005  1.209165015553873E-005
  1.209465058531061E-005  1.209242061392007E-005
  1.209102162190282E-005  1.209604844009022E-005
  1.209225726134311E-005  1.209481103025389E-005
  1.209534692785565E-005  1.209171743231711E-005
  1.209044837549203E-005  1.209661130651920E-005
  1.209226814122133E-005  1.209479196904318E-005
  1.209445043880377E-005  1.209261657260400E-005
  1.208851597887087E-005  1.209854746381769E-005
  1.209006962328125E-005  1.209699592422262E-005
  1.209456044984509E-005  1.209251602156735E-005
  1.209039096177129E-005  1.209668211457959E-005
  1.209191971062742E-005  1.209515293924313E-005
 Gradient of SCF Energy
            1           2           3           4           5           6
    1  -0.0269630   0.0093197   0.0107304  -0.0122092  -0.0053979   0.0089533
    2   0.0073608  -0.0016680  -0.0086363   0.0259672  -0.0201528   0.0027031
    3  -0.0172768   0.0059056   0.0031488   0.0099677  -0.0205740   0.0102932
            7           8           9          10          11          12
    1  -0.0057589  -0.0019824   0.0008892   0.0102438   0.0094345   0.0005953
    2   0.0091021  -0.0063532  -0.0020661  -0.0056397   0.0009206   0.0014860
    3   0.0016368  -0.0070741  -0.0009682   0.0040631   0.0081862   0.0014878
           13          14          15          16          17          18
    1  -0.0041816  -0.0033629   0.0175544   0.0088540  -0.0067759  -0.0189921
    2   0.0082214  -0.0065521  -0.0099947   0.0086711   0.0166985   0.0108277
    3   0.0023417  -0.0086988   0.0075246   0.0148666   0.0074846  -0.0078913
           19          20          21          22
    1  -0.0172195  -0.0022276   0.0121652   0.0163314
    2  -0.0011132  -0.0147761  -0.0152094   0.0002032
    3  -0.0155375  -0.0127653  -0.0006247   0.0145040
 Max gradient component =       2.696E-02
 RMS gradient           =       1.078E-02
 Computing fast IEFPCM-SWIG gradient.
 Updating gradient with PCM contributions...
 -- total gradient after adding PCM contribution --
---------------------------------------------------
  Atom         X              Y              Z     
---------------------------------------------------
   1       0.000585      -0.000244       0.000463
   2       0.000735       0.000315       0.000521
   3       0.005731      -0.003917       0.002632
   4      -0.008346       0.008886       0.000259
   5      -0.006034      -0.004315      -0.008546
   6       0.004818       0.000581       0.005071
   7       0.001613       0.002025       0.002551
   8       0.000923      -0.001236      -0.000329
   9      -0.002436       0.001508      -0.000996
  10       0.001622       0.002046       0.002788
  11       0.002243      -0.002826      -0.000543
  12      -0.001826      -0.000476      -0.001997
  13       0.000356       0.000780       0.000782
  14       0.002730      -0.003441      -0.000805
  15      -0.000577      -0.000509      -0.000966
  16      -0.000597       0.000296      -0.000273
  17      -0.000202      -0.000257      -0.000371
  18      -0.000163       0.000929       0.000643
  19       0.000167      -0.001099      -0.000646
  20      -0.000203       0.000231       0.000094
  21      -0.000586      -0.000118      -0.000510
  22      -0.000551       0.000841       0.000179
---------------------------------------------------
 Number of fixed atoms: 0
 Gradient time:  CPU 31.34 s  wall 11.78 s
 Geometry Optimization Parameters
   NAtoms,    NIC,     NZ,  NCons,   NDum,   NFix, NCnnct, MaxDiis
       22     167       0       0       0       0       0       0

 Cartesian Hessian Update
 Hessian Updated using BFGS Update


** GEOMETRY OPTIMIZATION IN DELOCALIZED INTERNAL COORDINATES **
   Searching for a Minimum

   Optimization Cycle:   2

                       Coordinates (Angstroms)
     ATOM                X               Y               Z
      1  H         0.2095374742   -1.8100406672    2.7733988390
      2  N         1.0382668292   -2.0408495855    3.3082008631
      3  C         1.7969105258   -3.1577252775    3.1083862747
      4  C         2.8470878472   -3.1314188100    4.0410448574
      5  C         2.6751056513   -1.9268059888    4.8269640199
      6  C         1.5301209909   -1.2814491280    4.3304146344
      7  C         3.3553109183   -1.3600039601    5.8780203181
      8  C         2.8701758445   -0.1556148710    6.4132816423
      9  C         1.7303127255    0.4704131242    5.9080173927
     10  C         1.0351759495   -0.0835012168    4.8502726341
     11  C         1.6197135345   -4.1890689017    2.1781230890
     12  C         2.5386159671   -5.2213362379    2.2028194125
     13  C         3.5883471809   -5.2108557593    3.1203869701
     14  C         3.7539442500   -4.1674983823    4.0467345870
     15  H         4.2391614287   -1.8292304644    6.2867308706
     16  H         3.3920315230    0.3006800406    7.2424234531
     17  H         1.3854665694    1.3948673366    6.3470503059
     18  H         0.1478795299    0.3922489887    4.4528194547
     19  H         0.8002616639   -4.1915914854    1.4707601049
     20  H         2.4401379307   -6.0423249425    1.5075106450
     21  H         4.2910562849   -6.0323860633    3.1186641571
     22  H         4.5746793806   -4.1870077484    4.7502754741
   Point Group: c1    Number of degrees of freedom:    60


   Energy is   -516.098263055

 Hessian Updated using BFGS Update

 60 Hessian modes will be used to form the next step
  Hessian Eigenvalues:
     0.020747    0.020757    0.020987    0.020995    0.021040    0.021050
     0.022004    0.022253    0.022267    0.022315    0.022335    0.022342
     0.022360    0.023094    0.023287    0.023415    0.024260    0.024289
     0.024730    0.159818    0.159991    0.159997    0.159998    0.159999
     0.159999    0.160000    0.160000    0.160244    0.219995    0.219999
     0.225607    0.226183    0.244825    0.245164    0.249966    0.265929
     0.356899    0.356933    0.357022    0.357025    0.357073    0.357148
     0.357411    0.357476    0.385272    0.391427    0.406335    0.412248
     0.412612    0.428326    0.433059    0.441176    0.441585    0.457421
     0.458046    0.462546    0.464845    0.489940    0.534712    0.547287

 Minimum Search - Taking Simple RFO Step
 Searching for Lamda that Minimizes Along All modes
 Value Taken    Lamda =  -0.00075154
 Step Taken.  Stepsize is  0.052829

                             Maximum     Tolerance    Cnvgd?
         Gradient           0.006228      0.000075      NO
         Displacement       0.023032      0.001200      NO
         Energy change     -0.014294      0.000000      NO


 New Cartesian Coordinates Obtained by Inverse Iteration

 Displacement from previous Coordinates is:  0.114362
 Adding empirical dispersion correction 
 ----------------------------------------------------------------
 Doing -D3(BJ) with
 s6 =   1.00000
 s8 =   0.00000
 a1 =   0.48600
 a2 =   4.50000
 -D3 energy including 3body term =     -0.0150395441 hartrees
 ----------------------------------------------------------------
 Adding gCP correction 
 ----------------------------------------------------------------
 gCP energy =      0.0297177193 hartrees
 ----------------------------------------------------------------
             Standard Nuclear Orientation (Angstroms)
    I     Atom           X                Y                Z
 ----------------------------------------------------------------
    1      H       0.2112004937    -1.8086744826     2.7708075822
    2      N       1.0410623315    -2.0388776624     3.3043450410
    3      C       1.8006007704    -3.1513727420     3.1087146192
    4      C       2.8612662189    -3.1342847897     4.0413507784
    5      C       2.6882817716    -1.9251394701     4.8321479215
    6      C       1.5356167689    -1.2849894790     4.3251618921
    7      C       3.3598329351    -1.3573536287     5.8840288982
    8      C       2.8664005528    -0.1547334852     6.4144958679
    9      C       1.7265062858     0.4628023598     5.9028702613
   10      C       1.0334763262    -0.0929336501     4.8416858673
   11      C       1.6135589757    -4.1793846092     2.1829131156
   12      C       2.5318490500    -5.2147250374     2.2073459644
   13      C       3.5856946621    -5.2115322766     3.1188315534
   14      C       3.7601163939    -4.1711740116     4.0456815052
   15      H       4.2452689854    -1.8171120864     6.3022565698
   16      H       3.3853831289     0.3038243635     7.2448406029
   17      H       1.3781774570     1.3864672013     6.3417638039
   18      H       0.1447368423     0.3733787601     4.4375452776
   19      H       0.7885596082    -4.1731074853     1.4827376471
   20      H       2.4290670955    -6.0361826108     1.5128117239
   21      H       4.2873184919    -6.0345066810     3.1156602517
   22      H       4.5853248543    -4.2008884966     4.7443032554
 ----------------------------------------------------------------
 Nuclear Repulsion Energy =   706.5646970202 hartrees
 There are       44 alpha and       43 beta electrons
 Discretize the solute cavity surface with Lebedev spheres
	Using 302 Lebedev grid points for each H atom
	Using 302 Lebedev grid points for other atoms
	Atomic van der Waals radii will be scaled by 1.20
 Remove points where switching function is < 1.0e-08
 Keep 2598 surface tesserae and discard 4046 interior tesserae
 Molecular Surface Area = 205.343 Angst**2
 Applying Cartesian multipole field
    Component          Value
    ---------          -----
     (2,0,0)        1.00000E-11
     (0,2,0)        2.00000E-12
     (0,0,2)       -3.00000E-12
 Nucleus-field energy     =     0.0000000081 hartrees
 Requested basis set is def2-mSVP
 There are 109 shells and 213 basis functions
 A cutoff of  1.0D-11 yielded   4816 shell pairs
 There are     19500 function pairs (     21884 Cartesian)
 Smallest overlap matrix eigenvalue = 3.45E-04
 Guess MOs from SCF MO coefficient file

 -----------------------------------------------------------------------
  General SCF calculation program by
  Eric Jon Sundstrom, Paul Horn, Yuezhi Mao, Dmitri Zuev, Alec White,
  David Stuck, Shaama M.S., Shane Yost, Joonho Lee, David Small,
  Daniel Levine, Susi Lehtola, Hugh Burton, Evgeny Epifanovsky
 -----------------------------------------------------------------------
 Exchange:     0.4200 Hartree-Fock + 0.5800 PBEh-3c
 Correlation:  1.0000 PBEh-3c
 Using SG-1 standard quadrature grid
 Dispersion:   Grimme D3
 using 4 threads for integral computing
 -------------------------------------------------------
 OpenMP Integral computing Module                
 Release: version 2.0, May 2017, Q-Chem Inc. Pleasanton 
 -------------------------------------------------------
 -------------------------------------------------------
 OpenMP BLAS3 based DFT computing Module                
 Release: version 1.0, May 2013, Q-Chem Inc. Pittsburgh 
 -------------------------------------------------------
 A unrestricted SCF calculation will be
 performed using DIIS
 SCF converges when DIIS error is below 1.0e-08
 ---------------------------------------
  Cycle       Energy         DIIS error
 ---------------------------------------
 Using non-symmetric K matrix
    1    -523.0274891606      1.43e-04  
    2    -516.0975597671      1.65e-04  
    3    -516.0984589999      5.86e-05  
    4    -516.0985529768      2.48e-05  
    5    -516.0985845759      1.31e-05  
    6    -516.0985885980      3.65e-06  
    7    -516.0985890216      1.34e-06  
    8    -516.0985891038      7.22e-07  
    9    -516.0985891439      3.91e-07  
   10    -516.0985891678      1.96e-07  
   11    -516.0985891781      1.15e-07  
   12    -516.0985891813      8.90e-08  
   13    -516.0985891842      5.95e-08  
   14    -516.0985891863      3.47e-08  
   15    -516.0985891870      2.19e-08  
   16    -516.0985891871      1.20e-08  
   17    -516.0985891872      5.15e-09  Convergence criterion met
 ---------------------------------------
 SCF time:   CPU 276.53s  wall 69.00s 
<S^2> =          0.804096864

************** Final PCM Free Energy Summary **************
 G_electrostatic  =      -0.04657012 hartree =     -29.22319071 kcal/mol
 G_cavitation     =       0.00000000 hartree =       0.00000000 kcal/mol
 G_dispersion     =       0.00000000 hartree =       0.00000000 kcal/mol
 G_repulsion      =       0.00000000 hartree =       0.00000000 kcal/mol
 --------------------------------------------------
 Non-electrostatic Free Energy =       0.00000000 hartree =       0.00000000 kcal/mol
 Total                         =      -0.04657012 hartree =     -29.22319071 kcal/mol
 --------------------------------------------------
 SCF Energy (H0 + V/2)                       =    -516.09858919 
 Solute Internal Energy (H0)                 =    -516.05201907 
 Total Free Energy (H0 + V/2 + non-elec)     =    -516.09858919 hartree
                                             = -323856.75268470 kcal/mol
***********************************************************

 SCF   energy in the final basis set =     -516.0985891872
 Total energy in the final basis set =     -516.0985891872
 
 --------------------------------------------------------------
 
                    Orbital Energies (a.u.)
 --------------------------------------------------------------
 
 Alpha MOs
 -- Occupied --
-14.828 -10.587 -10.586 -10.552 -10.551 -10.551 -10.551 -10.543
-10.542 -10.542 -10.542 -10.529 -10.529  -1.224  -1.050  -1.048
 -0.975  -0.945  -0.916  -0.906  -0.830  -0.789  -0.774  -0.746
 -0.707  -0.681  -0.667  -0.620  -0.618  -0.610  -0.588  -0.586
 -0.584  -0.569  -0.512  -0.510  -0.509  -0.498  -0.489  -0.483
 -0.426  -0.397  -0.356  -0.348
 -- Virtual --
 -0.100  -0.074  -0.048  -0.025   0.057   0.079   0.083   0.103
  0.115   0.133   0.139   0.144   0.159   0.163   0.183   0.187
  0.206   0.223   0.225   0.246   0.254   0.261   0.298   0.303
  0.334   0.359   0.399   0.410   0.416   0.432   0.440   0.471
  0.482   0.482   0.491   0.496   0.508   0.510   0.521   0.524
  0.540   0.547   0.549   0.552   0.552   0.561   0.582   0.584
  0.599   0.619   0.630   0.641   0.675   0.683   0.691   0.732
  0.780   0.794   0.835   0.843   0.854   0.877   0.878   0.894
  0.915   0.921   0.924   0.932   0.942   0.950   0.962   0.978
  0.982   1.007   1.013   1.052   1.067   1.078   1.093   1.149
  1.157   1.198   1.212   1.219   1.225   1.259   1.261   1.277
  1.299   1.326   1.400   1.410   1.419   1.432   1.437   1.451
  1.457   1.458   1.468   1.481   1.506   1.636   1.683   1.724
  1.732   1.776   1.800   1.811   1.842   1.872   1.947   1.949
  1.960   1.977   1.996   2.026   2.031   2.049   2.068   2.072
  2.118   2.131   2.134   2.180   2.182   2.221   2.231   2.239
  2.251   2.253   2.274   2.347   2.366   2.405   2.495   2.499
  2.544   2.564   2.581   2.611   2.615   2.631   2.643   2.681
  2.694   2.739   2.744   2.810   2.834   2.853   2.901   2.991
  3.190   3.316   3.344   3.498  13.120  13.331  13.571  13.598
 13.703  13.847  14.019  14.102  14.109  14.202  14.452  14.504
 19.326
 
 Beta MOs
 -- Occupied --
-14.818 -10.589 -10.588 -10.550 -10.549 -10.548 -10.547 -10.543
-10.542 -10.539 -10.538 -10.531 -10.531  -1.209  -1.045  -1.040
 -0.969  -0.938  -0.907  -0.904  -0.826  -0.784  -0.771  -0.743
 -0.704  -0.679  -0.663  -0.616  -0.607  -0.591  -0.587  -0.585
 -0.582  -0.568  -0.510  -0.508  -0.496  -0.488  -0.481  -0.461
 -0.413  -0.366  -0.350
 -- Virtual --
 -0.234  -0.090  -0.058  -0.024  -0.012   0.061   0.081   0.084
  0.116   0.117   0.136   0.141   0.152   0.160   0.166   0.186
  0.188   0.209   0.224   0.227   0.247   0.255   0.263   0.300
  0.303   0.336   0.362   0.401   0.412   0.420   0.434   0.447
  0.472   0.484   0.487   0.494   0.501   0.512   0.521   0.525
  0.527   0.542   0.549   0.554   0.556   0.559   0.564   0.582
  0.588   0.605   0.623   0.632   0.648   0.678   0.689   0.693
  0.735   0.796   0.811   0.838   0.844   0.856   0.879   0.880
  0.896   0.915   0.925   0.925   0.933   0.942   0.951   0.966
  0.982   0.984   1.009   1.015   1.053   1.068   1.080   1.096
  1.152   1.164   1.199   1.215   1.224   1.228   1.263   1.270
  1.282   1.301   1.339   1.402   1.416   1.424   1.435   1.442
  1.456   1.464   1.465   1.471   1.484   1.509   1.643   1.694
  1.727   1.733   1.779   1.802   1.814   1.857   1.874   1.952
  1.959   1.963   1.980   1.997   2.027   2.034   2.051   2.072
  2.076   2.126   2.130   2.139   2.185   2.187   2.225   2.238
  2.241   2.256   2.257   2.279   2.361   2.372   2.412   2.497
  2.503   2.547   2.570   2.584   2.614   2.618   2.636   2.645
  2.682   2.698   2.741   2.747   2.811   2.840   2.854   2.904
  2.993   3.191   3.318   3.345   3.498  13.122  13.333  13.572
 13.600  13.706  13.847  14.019  14.103  14.110  14.204  14.454
 14.505  19.339
 --------------------------------------------------------------
 
          Ground-State Mulliken Net Atomic Charges

     Atom                 Charge (a.u.)    Spin (a.u.)
  --------------------------------------------------------
      1 H                     0.435969      -0.017269
      2 N                    -0.692138       0.384357
      3 C                     0.359552      -0.099098
      4 C                     0.142283       0.096134
      5 C                     0.140753       0.093713
      6 C                     0.360860      -0.099605
      7 C                    -0.336200      -0.032235
      8 C                    -0.196548       0.274877
      9 C                    -0.243350      -0.156331
     10 C                    -0.235202       0.252907
     11 C                    -0.234558       0.256689
     12 C                    -0.242889      -0.158484
     13 C                    -0.194819       0.279104
     14 C                    -0.337970      -0.034198
     15 H                     0.272106       0.001498
     16 H                     0.289938      -0.014921
     17 H                     0.285775       0.006720
     18 H                     0.288799      -0.013451
     19 H                     0.288946      -0.013662
     20 H                     0.286167       0.006813
     21 H                     0.290460      -0.015137
     22 H                     0.272066       0.001579
  --------------------------------------------------------
  Sum of atomic charges =     1.000000
  Sum of spin   charges =     1.000000

 -----------------------------------------------------------------
                    Cartesian Multipole Moments
 -----------------------------------------------------------------
    Charge (ESU x 10^10)
                 4.8032
    Dipole Moment (Debye)
         X       9.2300      Y     -11.1330      Z      18.7800
       Tot      23.7028
    Quadrupole Moments (Debye-Ang)
        XX     -37.9338     XY     -32.3107     YY     -19.2506
        XZ      47.8141     YZ     -27.0519     ZZ      17.8095
    Octopole Moments (Debye-Ang^2)
       XXX    -368.3213    XXY      44.2353    XYY      -1.8008
       YYY     263.4895    XXZ    -114.3378    XYZ    -116.2354
       YYZ    -167.4112    XZZ     104.8678    YZZ     106.3848
       ZZZ    -409.8414
    Hexadecapole Moments (Debye-Ang^3)
      XXXX   -2281.9519   XXXY     839.4079   XXYY    -515.1545
      XYYY     481.3818   YYYY   -2772.5292   XXXZ   -1399.5126
      XXYZ      33.3512   XYYZ    -179.4730   YYYZ    1139.7125
      XXZZ    -803.3439   XYZZ       5.5679   YYZZ   -1690.3794
      XZZZ    -496.5327   YZZZ    1575.8932   ZZZZ   -5506.9179
 -----------------------------------------------------------------
 Calculating analytic gradient of the SCF energy
  1.177022176787016E-005  1.177450886874724E-005
  1.177305759198162E-005  1.177167470011223E-005
  1.177085567772253E-005  1.177387422650805E-005
  1.177930402028617E-005  1.176542431389526E-005
  1.177014484696916E-005  1.177458551148836E-005
  1.177730036278501E-005  1.176742562290094E-005
  1.177669067901539E-005  1.176802864792573E-005
  1.176875948544996E-005  1.177596270457026E-005
  1.177409906009872E-005  1.177062059510232E-005
  1.176834393302261E-005  1.177637465628267E-005
  1.177278190867483E-005  1.177194332516328E-005
  1.177017780659534E-005  1.177454083121557E-005
  1.176830910775537E-005  1.177640930493361E-005
  1.177341897231141E-005  1.177130596217565E-005
  1.177051540978806E-005  1.177420371392558E-005
  1.177609135867983E-005  1.176862861187116E-005
  1.177304371936095E-005  1.177167967250736E-005
  1.177683557834036E-005  1.176788220752126E-005
  1.176454242420794E-005  1.178018330218856E-005
  1.177627868797385E-005  1.176844838345542E-005
  1.176871931665623E-005  1.177600309840444E-005
  1.177316244329065E-005  1.177156498128333E-005
  1.177167209264225E-005  1.177304691457972E-005
  1.177222074468653E-005  1.177250476924603E-005
  1.176964321647073E-005  1.177507648272231E-005
  1.177617687707272E-005  1.176854485053628E-005
  1.177268868922303E-005  1.177202656646679E-005
  1.177616985295218E-005  1.176855761984547E-005
  1.177034506076643E-005  1.177437770499375E-005
  1.177398236886988E-005  1.177074152534434E-005
  1.177587693843479E-005  1.176885108699398E-005
  1.177244365174554E-005  1.177228027207202E-005
  1.177535131806107E-005  1.176937079014204E-005
  1.177050515923009E-005  1.177421285641493E-005
  1.177004196462009E-005  1.177467705811339E-005
  1.176870813909973E-005  1.177601154976116E-005
  1.177297271867844E-005  1.177175681408787E-005
  1.177289948261362E-005  1.177182401562796E-005
  1.177304648508555E-005  1.177167244117362E-005
  1.176501655322304E-005  1.177970867138762E-005
  1.177256691077830E-005  1.177215932322876E-005
  1.176639740328691E-005  1.177832621971272E-005
  1.177266691639066E-005  1.177206964028441E-005
  1.177529899851006E-005  1.176943430792655E-005
  1.177475768334199E-005  1.176997479444126E-005
  1.177186399617928E-005  1.177286371945784E-005
  1.177756493225068E-005  1.176715950528984E-005
  1.177557365962449E-005  1.176915025645200E-005
  1.177334471965197E-005  1.177137953050203E-005
  1.177503150018748E-005  1.176968724514230E-005
  1.177483334033659E-005  1.176988826791884E-005
  1.177275201256285E-005  1.177197902349603E-005
  1.177478031808305E-005  1.176994900234707E-005
  1.177420043874096E-005  1.177052884914710E-005
  1.177347841252226E-005  1.177125291034013E-005
  1.176987244477994E-005  1.177485766687764E-005
  1.177097365714480E-005  1.177375455250454E-005
  1.177420126009045E-005  1.177052324311257E-005
  1.176931320300488E-005  1.177540672547947E-005
  1.177106014894325E-005  1.177365997497879E-005
  1.177332288673844E-005  1.177140412021816E-005
  1.176736574528818E-005  1.177735772757550E-005
  1.176890868152122E-005  1.177581690689699E-005
  1.177350725137331E-005  1.177122922148636E-005
  1.176911864575518E-005  1.177561445797103E-005
  1.177075224715366E-005  1.177398046115315E-005
 Gradient of SCF Energy
            1           2           3           4           5           6
    1  -0.0273324   0.0056218   0.0067514  -0.0045850   0.0002544   0.0054617
    2   0.0074180  -0.0006534  -0.0054084   0.0176388  -0.0160719   0.0012805
    3  -0.0174342   0.0034044   0.0017042   0.0096285  -0.0125086   0.0058441
            7           8           9          10          11          12
    1  -0.0071345  -0.0016884   0.0025416   0.0084032   0.0071975   0.0015602
    2   0.0085479  -0.0066357  -0.0043833  -0.0064559   0.0027875   0.0032872
    3   0.0004163  -0.0069639  -0.0013976   0.0020256   0.0079463   0.0037183
           13          14          15          16          17          18
    1  -0.0038625  -0.0054301   0.0181968   0.0094862  -0.0065776  -0.0189372
    2   0.0085405  -0.0048874  -0.0092414   0.0083804   0.0167806   0.0095499
    3   0.0029606  -0.0087746   0.0086294   0.0151146   0.0077399  -0.0088007
           19          20          21          22
    1  -0.0176426  -0.0021206   0.0128290   0.0170069
    2   0.0002768  -0.0148500  -0.0150626  -0.0008382
    3  -0.0146843  -0.0127262  -0.0000301   0.0141880
 Max gradient component =       2.733E-02
 RMS gradient           =       9.894E-03
 Computing fast IEFPCM-SWIG gradient.
 Updating gradient with PCM contributions...
 -- total gradient after adding PCM contribution --
---------------------------------------------------
  Atom         X              Y              Z     
---------------------------------------------------
   1       0.000412      -0.000195       0.000358
   2      -0.002305       0.001061      -0.001499
   3       0.001353      -0.001212       0.000597
   4      -0.000719       0.001054       0.000318
   5      -0.000400      -0.000706      -0.000757
   6       0.000872      -0.000131       0.000813
   7       0.000118       0.001663       0.001322
   8       0.001051      -0.001576      -0.000447
   9      -0.000782      -0.000402      -0.001090
  10      -0.000018       0.000640       0.000492
  11       0.000082      -0.000478      -0.000279
  12      -0.000820       0.000851      -0.000069
  13       0.000545       0.001297       0.001368
  14       0.000528      -0.001843      -0.001088
  15       0.000046      -0.000092      -0.000134
  16       0.000027       0.000054      -0.000013
  17      -0.000008      -0.000105      -0.000122
  18       0.000013      -0.000001       0.000071
  19       0.000023      -0.000119       0.000018
  20      -0.000054       0.000136       0.000079
  21       0.000033      -0.000017       0.000015
  22       0.000004       0.000120       0.000047
---------------------------------------------------
 Number of fixed atoms: 0
 Gradient time:  CPU 30.55 s  wall 11.20 s
 Geometry Optimization Parameters
   NAtoms,    NIC,     NZ,  NCons,   NDum,   NFix, NCnnct, MaxDiis
       22     167       0       0       0       0       0       0

 Cartesian Hessian Update
 Hessian Updated using BFGS Update


** GEOMETRY OPTIMIZATION IN DELOCALIZED INTERNAL COORDINATES **
   Searching for a Minimum

   Optimization Cycle:   3

                       Coordinates (Angstroms)
     ATOM                X               Y               Z
      1  H         0.2112004937   -1.8086744826    2.7708075822
      2  N         1.0410623315   -2.0388776624    3.3043450410
      3  C         1.8006007704   -3.1513727420    3.1087146192
      4  C         2.8612662189   -3.1342847897    4.0413507784
      5  C         2.6882817716   -1.9251394701    4.8321479215
      6  C         1.5356167689   -1.2849894790    4.3251618921
      7  C         3.3598329351   -1.3573536287    5.8840288982
      8  C         2.8664005528   -0.1547334852    6.4144958679
      9  C         1.7265062858    0.4628023598    5.9028702613
     10  C         1.0334763262   -0.0929336501    4.8416858673
     11  C         1.6135589757   -4.1793846092    2.1829131156
     12  C         2.5318490500   -5.2147250374    2.2073459644
     13  C         3.5856946621   -5.2115322766    3.1188315534
     14  C         3.7601163939   -4.1711740116    4.0456815052
     15  H         4.2452689854   -1.8171120864    6.3022565698
     16  H         3.3853831289    0.3038243635    7.2448406029
     17  H         1.3781774570    1.3864672013    6.3417638039
     18  H         0.1447368423    0.3733787601    4.4375452776
     19  H         0.7885596082   -4.1731074853    1.4827376471
     20  H         2.4290670955   -6.0361826108    1.5128117239
     21  H         4.2873184919   -6.0345066810    3.1156602517
     22  H         4.5853248543   -4.2008884966    4.7443032554
   Point Group: c1    Number of degrees of freedom:    60


   Energy is   -516.098589187

 Hessian Updated using BFGS Update

 60 Hessian modes will be used to form the next step
  Hessian Eigenvalues:
     0.020746    0.020756    0.020987    0.020995    0.021040    0.021049
     0.022000    0.022251    0.022266    0.022327    0.022335    0.022341
     0.022360    0.023099    0.023242    0.023299    0.024219    0.024266
     0.024731    0.155489    0.159991    0.159997    0.159998    0.159999
     0.159999    0.160000    0.160024    0.160204    0.219993    0.220689
     0.226159    0.227519    0.244565    0.246090    0.249945    0.286869
     0.346851    0.356938    0.356988    0.357026    0.357054    0.357157
     0.357415    0.357427    0.359348    0.385397    0.406333    0.411174
     0.412564    0.414105    0.433061    0.441556    0.448035    0.457891
     0.458457    0.463929    0.470084    0.516699    0.534792    0.542497

 Minimum Search - Taking Simple RFO Step
 Searching for Lamda that Minimizes Along All modes
 Value Taken    Lamda =  -0.00004330
 Step Taken.  Stepsize is  0.015000

                             Maximum     Tolerance    Cnvgd?
         Gradient           0.001591      0.000075      NO
         Displacement       0.007032      0.001200      NO
         Energy change     -0.000326      0.000000      NO


 New Cartesian Coordinates Obtained by Inverse Iteration

 Displacement from previous Coordinates is:  0.028725
 Adding empirical dispersion correction 
 ----------------------------------------------------------------
 Doing -D3(BJ) with
 s6 =   1.00000
 s8 =   0.00000
 a1 =   0.48600
 a2 =   4.50000
 -D3 energy including 3body term =     -0.0150387488 hartrees
 ----------------------------------------------------------------
 Adding gCP correction 
 ----------------------------------------------------------------
 gCP energy =      0.0297120881 hartrees
 ----------------------------------------------------------------
             Standard Nuclear Orientation (Angstroms)
    I     Atom           X                Y                Z
 ----------------------------------------------------------------
    1      H       0.2136124284    -1.8085831758     2.7712632979
    2      N       1.0445542248    -2.0386917605     3.3046483463
    3      C       1.8026807296    -3.1499601736     3.1071926384
    4      C       2.8644551822    -3.1336928295     4.0394949521
    5      C       2.6913723846    -1.9234031630     4.8311320905
    6      C       1.5377815754    -1.2840382489     4.3241044300
    7      C       3.3601885638    -1.3555493143     5.8834472136
    8      C       2.8643031313    -0.1525380974     6.4160786473
    9      C       1.7247620250     0.4638926199     5.9049610163
   10      C       1.0338279542    -0.0933055312     4.8414137525
   11      C       1.6137635500    -4.1789172693     2.1829090858
   12      C       2.5305691815    -5.2172743045     2.2069431069
   13      C       3.5844425713    -5.2143055783     3.1172829386
   14      C       3.7607832233    -4.1713741465     4.0440724112
   15      H       4.2456939525    -1.8135702788     6.3034534413
   16      H       3.3824414515     0.3052155678     7.2473766496
   17      H       1.3747221200     1.3866249104     6.3450326469
   18      H       0.1443120320     0.3708688572     4.4364173382
   19      H       0.7872534197    -4.1712535028     1.4845200576
   20      H       2.4259577320    -6.0399438609     1.5137413321
   21      H       4.2852418815    -6.0379603456     3.1149018002
   22      H       4.5865806856    -4.2027403743     4.7419128066
 ----------------------------------------------------------------
 Nuclear Repulsion Energy =   706.4544615649 hartrees
 There are       44 alpha and       43 beta electrons
 Discretize the solute cavity surface with Lebedev spheres
	Using 302 Lebedev grid points for each H atom
	Using 302 Lebedev grid points for other atoms
	Atomic van der Waals radii will be scaled by 1.20
 Remove points where switching function is < 1.0e-08
 Keep 2600 surface tesserae and discard 4044 interior tesserae
 Molecular Surface Area = 205.392 Angst**2
 Applying Cartesian multipole field
    Component          Value
    ---------          -----
     (2,0,0)        1.00000E-11
     (0,2,0)        2.00000E-12
     (0,0,2)       -3.00000E-12
 Nucleus-field energy     =     0.0000000081 hartrees
 Requested basis set is def2-mSVP
 There are 109 shells and 213 basis functions
 A cutoff of  1.0D-11 yielded   4816 shell pairs
 There are     19500 function pairs (     21884 Cartesian)
 Smallest overlap matrix eigenvalue = 3.45E-04
 Guess MOs from SCF MO coefficient file

 -----------------------------------------------------------------------
  General SCF calculation program by
  Eric Jon Sundstrom, Paul Horn, Yuezhi Mao, Dmitri Zuev, Alec White,
  David Stuck, Shaama M.S., Shane Yost, Joonho Lee, David Small,
  Daniel Levine, Susi Lehtola, Hugh Burton, Evgeny Epifanovsky
 -----------------------------------------------------------------------
 Exchange:     0.4200 Hartree-Fock + 0.5800 PBEh-3c
 Correlation:  1.0000 PBEh-3c
 Using SG-1 standard quadrature grid
 Dispersion:   Grimme D3
 using 4 threads for integral computing
 -------------------------------------------------------
 OpenMP Integral computing Module                
 Release: version 2.0, May 2017, Q-Chem Inc. Pleasanton 
 -------------------------------------------------------
 -------------------------------------------------------
 OpenMP BLAS3 based DFT computing Module                
 Release: version 1.0, May 2013, Q-Chem Inc. Pittsburgh 
 -------------------------------------------------------
 A unrestricted SCF calculation will be
 performed using DIIS
 SCF converges when DIIS error is below 1.0e-08
 ---------------------------------------
  Cycle       Energy         DIIS error
 ---------------------------------------
 Using non-symmetric K matrix
    1    -523.0302115671      1.00e-04  
    2    -516.0975995096      1.60e-04  
    3    -516.0984352593      5.80e-05  
    4    -516.0985144566      3.92e-05  
    5    -516.0985735874      2.22e-05  
    6    -516.0985958956      8.59e-06  
    7    -516.0986000050      2.00e-06  
    8    -516.0986002572      7.72e-07  
    9    -516.0986003040      3.83e-07  
   10    -516.0986003224      1.64e-07  
   11    -516.0986003275      7.77e-08  
   12    -516.0986003286      5.78e-08  
   13    -516.0986003294      3.97e-08  
   14    -516.0986003301      2.47e-08  
   15    -516.0986003304      1.65e-08  
   16    -516.0986003305      9.42e-09  Convergence criterion met
 ---------------------------------------
 SCF time:   CPU 253.23s  wall 64.00s 
<S^2> =          0.804431477

************** Final PCM Free Energy Summary **************
 G_electrostatic  =      -0.04657133 hartree =     -29.22394992 kcal/mol
 G_cavitation     =       0.00000000 hartree =       0.00000000 kcal/mol
 G_dispersion     =       0.00000000 hartree =       0.00000000 kcal/mol
 G_repulsion      =       0.00000000 hartree =       0.00000000 kcal/mol
 --------------------------------------------------
 Non-electrostatic Free Energy =       0.00000000 hartree =       0.00000000 kcal/mol
 Total                         =      -0.04657133 hartree =     -29.22394992 kcal/mol
 --------------------------------------------------
 SCF Energy (H0 + V/2)                       =    -516.09860033 
 Solute Internal Energy (H0)                 =    -516.05202900 
 Total Free Energy (H0 + V/2 + non-elec)     =    -516.09860033 hartree
                                             = -323856.75967725 kcal/mol
***********************************************************

 SCF   energy in the final basis set =     -516.0986003305
[...]
    Hexadecapole Moments (Debye-Ang^3)
      XXXX   -2283.5270   XXXY     838.9916   XXYY    -514.1883
      XYYY     477.8472   YYYY   -2763.3590   XXXZ   -1400.7003
      XXYZ      32.1907   XYYZ    -178.0681   YYYZ    1134.1832
      XXZZ    -805.5066   XYZZ       5.2371   YYZZ   -1689.2870
      XZZZ    -500.6643   YZZZ    1575.9573   ZZZZ   -5509.6681
 -----------------------------------------------------------------
 Calculating analytic gradient of the SCF energy
  1.185512663099182E-005  1.185935903685159E-005
  1.185793478624121E-005  1.185655255624714E-005
  1.185573703133145E-005  1.185874793269276E-005
  1.186416933063710E-005  1.185031396493119E-005
  1.185499794654295E-005  1.185948745912211E-005
  1.186220448980127E-005  1.185227654622469E-005
  1.186151571640100E-005  1.185295863819084E-005
  1.185358163677968E-005  1.186089559521583E-005
  1.185902638212164E-005  1.185544832821767E-005
  1.185313836927520E-005  1.186133529346903E-005
  1.185759543643149E-005  1.185688484462249E-005
  1.185512452215200E-005  1.185934916570292E-005
  1.185310453694787E-005  1.186136894883758E-005
  1.185824671472326E-005  1.185623327290168E-005
  1.185546783481491E-005  1.185900632506678E-005
  1.186091948560151E-005  1.185355551519941E-005
  1.185789108363468E-005  1.185658733836908E-005
  1.186175966577537E-005  1.185271317274220E-005
  1.184939470828938E-005  1.186508610116055E-005
  1.186114209688811E-005  1.185334001701746E-005
  1.185361194280926E-005  1.186086549454980E-005
  1.185806609599531E-005  1.185641639126309E-005
  1.185655358524897E-005  1.185792045838089E-005
  1.185706560409922E-005  1.185741497775779E-005
  1.185452238237167E-005  1.185995239290026E-005
  1.186106490227700E-005  1.185341176600928E-005
  1.185752671766665E-005  1.185694359061690E-005
  1.186107095591528E-005  1.185341152547695E-005
  1.185523482863159E-005  1.185924297772509E-005
  1.185885758439430E-005  1.185562138163098E-005
  1.186076882841778E-005  1.185371420963811E-005
  1.185732548136980E-005  1.185715351248362E-005
  1.186022330328113E-005  1.185425383525490E-005
  1.185538334179904E-005  1.185908972582032E-005
  1.185494623454968E-005  1.185952783171336E-005
  1.185356456235655E-005  1.186091008598307E-005
  1.185787145147602E-005  1.185661311618698E-005
  1.185781050589160E-005  1.185666805558021E-005
  1.185790889275745E-005  1.185656509279937E-005
  1.184987069015523E-005  1.186460960973910E-005
  1.185743244156437E-005  1.185704885437368E-005
  1.185128559439717E-005  1.186319305960914E-005
  1.185754906826511E-005  1.185694254804138E-005
  1.186019759077440E-005  1.185429075240391E-005
  1.185963759768739E-005  1.185484989526590E-005
  1.185675853917657E-005  1.185772422569837E-005
  1.186246931826288E-005  1.185201014224179E-005
  1.186041491497261E-005  1.185406409078765E-005
  1.185826871634146E-005  1.185621060828115E-005
  1.185992546520038E-005  1.185454827710457E-005
  1.185968146516158E-005  1.185479521837160E-005
  1.185766894222441E-005  1.185681719039006E-005
  1.185966547527045E-005  1.185481887342691E-005
  1.185905545317766E-005  1.185542888915245E-005
  1.185839003763790E-005  1.185609636925473E-005
  1.185477539605290E-005  1.185970978280421E-005
  1.185583764049295E-005  1.185864560159995E-005
  1.185912021185120E-005  1.185535934001032E-005
  1.185422747230189E-005  1.186024755044436E-005
  1.185590799762013E-005  1.185856711842506E-005
  1.185821875256392E-005  1.185626328440592E-005
  1.185227208852895E-005  1.186220646970745E-005
  1.185375161052463E-005  1.186072903384460E-005
  1.185839638512305E-005  1.185609514048670E-005
  1.185399202210623E-005  1.186049611777073E-005
  1.185561288722570E-005  1.185887486230219E-005
 Gradient of SCF Energy
            1           2           3           4           5           6
    1  -0.0277349   0.0079367   0.0054723  -0.0039381   0.0007114   0.0044507
    2   0.0075772  -0.0015336  -0.0044495   0.0166393  -0.0153952   0.0014457
    3  -0.0177526   0.0051942   0.0009299   0.0091805  -0.0118048   0.0048633
            7           8           9          10          11          12
    1  -0.0072577  -0.0026646   0.0031924   0.0085321   0.0071986   0.0024558
    2   0.0068191  -0.0050355  -0.0038676  -0.0070152   0.0033364   0.0023503
    3  -0.0010229  -0.0064915  -0.0003854   0.0016981   0.0083703   0.0037843
           13          14          15          16          17          18
    1  -0.0044199  -0.0059745   0.0181681   0.0094684  -0.0066266  -0.0189822
    2   0.0072148  -0.0029571  -0.0090181   0.0083014   0.0168560   0.0094774
    3   0.0015537  -0.0076546   0.0087788   0.0150873   0.0078589  -0.0088686
           19          20          21          22
    1  -0.0177398  -0.0021386   0.0128272   0.0170633
    2   0.0003782  -0.0150604  -0.0150687  -0.0009947
    3  -0.0146442  -0.0127615  -0.0000001   0.0140868
 Max gradient component =       2.773E-02
 RMS gradient           =       9.804E-03
 Computing fast IEFPCM-SWIG gradient.
 Updating gradient with PCM contributions...
 -- total gradient after adding PCM contribution --
---------------------------------------------------
  Atom         X              Y              Z     
---------------------------------------------------
   1      -0.000025      -0.000033       0.000027
   2      -0.000026       0.000075       0.000103
   3       0.000029      -0.000111      -0.000029
   4      -0.000023       0.000022      -0.000030
   5       0.000060      -0.000013       0.000005
   6      -0.000078      -0.000041      -0.000085
   7       0.000023      -0.000019      -0.000045
   8      -0.000001       0.000050      -0.000020
   9      -0.000011       0.000013      -0.000019
  10      -0.000003       0.000009       0.000037
  11      -0.000035       0.000044       0.000075
  12       0.000068      -0.000054       0.000055
  13      -0.000035      -0.000024      -0.000055
  14       0.000023       0.000040       0.000029
  15       0.000027       0.000051      -0.000030
  16       0.000033       0.000024      -0.000040
  17      -0.000012       0.000007      -0.000026
  18      -0.000024      -0.000013       0.000015
  19      -0.000023      -0.000051       0.000031
  20      -0.000022      -0.000013       0.000024
  21       0.000027       0.000016       0.000011
  22       0.000028       0.000019      -0.000030
---------------------------------------------------
 Number of fixed atoms: 0
 Gradient time:  CPU 30.35 s  wall 10.90 s
 Geometry Optimization Parameters
   NAtoms,    NIC,     NZ,  NCons,   NDum,   NFix, NCnnct, MaxDiis
       22     167       0       0       0       0       0       0

 Cartesian Hessian Update
 Hessian Updated using BFGS Update


** GEOMETRY OPTIMIZATION IN DELOCALIZED INTERNAL COORDINATES **
   Searching for a Minimum

   Optimization Cycle:   7

                       Coordinates (Angstroms)
     ATOM                X               Y               Z
      1  H         0.2148315293   -1.8080411091    2.7700373786
      2  N         1.0452695106   -2.0385642962    3.3038584013
      3  C         1.8030064959   -3.1491610471    3.1061100392
      4  C         2.8655402142   -3.1325649865    4.0383083455
      5  C         2.6923834920   -1.9223621068    4.8299829018
      6  C         1.5384707468   -1.2833202048    4.3235538094
      7  C         3.3605507463   -1.3551407355    5.8828601072
      8  C         2.8638122284   -0.1525028895    6.4166159333
      9  C         1.7244164911    0.4633878824    5.9060423347
     10  C         1.0339253912   -0.0938169056    4.8417826215
     11  C         1.6137451339   -4.1792797920    2.1828830578
     12  C         2.5298812712   -5.2179499852    2.2074756491
     13  C         3.5837657732   -5.2146174051    3.1175923348
     14  C         3.7609984476   -4.1706566245    4.0437804867
     15  H         4.2463773951   -1.8122567345    6.3030666620
     16  H         3.3822460644    0.3040446167    7.2483316203
     17  H         1.3728746139    1.3855397865    6.3459516735
     18  H         0.1442419429    0.3707170665    4.4373772108
     19  H         0.7873827779   -4.1722400187    1.4841967232
     20  H         2.4240710790   -6.0407930107    1.5147848324
     21  H         4.2844380528   -6.0383401473    3.1164985973
     22  H         4.5870706022   -4.2025813532    4.7412092795
   Point Group: c1    Number of degrees of freedom:    60


   Energy is   -516.098596870

 Hessian Updated using BFGS Update

 59 Hessian modes will be used to form the next step
  Hessian Eigenvalues:
     0.017579    0.020751    0.020787    0.020990    0.020996    0.021044
     0.021052    0.022328    0.022337    0.022340    0.022359    0.022565
     0.022889    0.023278    0.024130    0.024256    0.024697    0.027278
     0.098905    0.155186    0.159992    0.159999    0.160004    0.160005
     0.160097    0.160199    0.164990    0.196578    0.221333    0.223192
     0.226308    0.227667    0.244820    0.251716    0.255772    0.286160
     0.343795    0.356954    0.356996    0.357039    0.357117    0.357299
     0.357486    0.357885    0.359351    0.386398    0.406421    0.412196
     0.412725    0.424817    0.436514    0.445329    0.452881    0.462504
     0.468518    0.477248    0.482488    0.535274    0.544049

 Minimum Search - Taking Simple RFO Step
 Searching for Lamda that Minimizes Along All modes
 Value Taken    Lamda =   0.00000000
 Step Taken.  Stepsize is  0.001566

                             Maximum     Tolerance    Cnvgd?
         Gradient           0.000067      0.000075     YES
         Displacement       0.000662      0.001200     YES
         Energy change      0.000001      0.000000      NO

 Final energy is   -516.098596869926     


 ******************************
 **  OPTIMIZATION CONVERGED  **
 ******************************

                       Coordinates (Angstroms)
     ATOM                X               Y               Z
      1  H         0.2148315293   -1.8080411091    2.7700373786
      2  N         1.0452695106   -2.0385642962    3.3038584013
      3  C         1.8030064959   -3.1491610471    3.1061100392
      4  C         2.8655402142   -3.1325649865    4.0383083455
      5  C         2.6923834920   -1.9223621068    4.8299829018
      6  C         1.5384707468   -1.2833202048    4.3235538094
      7  C         3.3605507463   -1.3551407355    5.8828601072
      8  C         2.8638122284   -0.1525028895    6.4166159333
      9  C         1.7244164911    0.4633878824    5.9060423347
     10  C         1.0339253912   -0.0938169056    4.8417826215
     11  C         1.6137451339   -4.1792797920    2.1828830578
     12  C         2.5298812712   -5.2179499852    2.2074756491
     13  C         3.5837657732   -5.2146174051    3.1175923348
     14  C         3.7609984476   -4.1706566245    4.0437804867
     15  H         4.2463773951   -1.8122567345    6.3030666620
     16  H         3.3822460644    0.3040446167    7.2483316203
     17  H         1.3728746139    1.3855397865    6.3459516735
     18  H         0.1442419429    0.3707170665    4.4373772108
     19  H         0.7873827779   -4.1722400187    1.4841967232
     20  H         2.4240710790   -6.0407930107    1.5147848324
     21  H         4.2844380528   -6.0383401473    3.1164985973
     22  H         4.5870706022   -4.2025813532    4.7412092795

Z-matrix Print:
$molecule
1 2
N 
H  1 1.013772
C  1 1.358932 2 124.469836
C  1 1.361404 2 124.403321 3 -179.194703 0
C  4 1.392137 1 128.427848 2 0.547607 0
H  5 1.082068 4 121.713944 1 -0.761520 0
C  5 1.385606 4 116.674321 1 178.954304 0
H  7 1.080493 5 119.589855 4 -179.880828 0
C  7 1.392203 5 120.772153 4 -0.016633 0
H  9 1.081185 7 119.192572 5 -179.935208 0
C  3 1.396178 1 128.581060 2 -0.761089 0
H  11 1.082168 3 121.711517 1 0.774233 0
C  11 1.385188 3 116.862310 1 -178.839169 0
H  13 1.080781 11 119.653633 3 179.773873 0
C  13 1.392478 11 120.688410 3 -0.063423 0
H  15 1.081417 13 119.201917 11 179.932227 0
C  9 1.406408 7 121.881692 5 -0.045598 0
H  17 1.081766 9 120.208066 7 -179.777102 0
C  17 1.369941 9 118.259929 7 0.053535 0
C  15 1.406801 13 121.831877 11 0.165500 0
H  20 1.081583 15 119.923635 13 179.610780 0
C  20 1.370952 15 118.489135 13 -0.108931 0
$end

 
 --------------------------------------------------------------
 
                    Orbital Energies (a.u.)
 --------------------------------------------------------------
 
 Alpha MOs
 -- Occupied --
-14.828 -10.587 -10.586 -10.552 -10.551 -10.551 -10.550 -10.543
-10.542 -10.542 -10.542 -10.530 -10.529  -1.224  -1.050  -1.048
 -0.975  -0.944  -0.915  -0.907  -0.830  -0.790  -0.774  -0.746
 -0.707  -0.681  -0.667  -0.621  -0.618  -0.610  -0.588  -0.586
 -0.584  -0.569  -0.512  -0.510  -0.510  -0.498  -0.489  -0.482
 -0.426  -0.397  -0.355  -0.348
 -- Virtual --
 -0.100  -0.075  -0.048  -0.025   0.057   0.079   0.083   0.103
  0.115   0.133   0.139   0.144   0.159   0.163   0.183   0.187
  0.205   0.223   0.226   0.246   0.254   0.262   0.299   0.302
  0.334   0.359   0.399   0.410   0.416   0.432   0.440   0.470
  0.482   0.482   0.490   0.496   0.508   0.510   0.521   0.524
  0.540   0.547   0.549   0.551   0.552   0.561   0.581   0.584
  0.599   0.619   0.630   0.641   0.675   0.683   0.691   0.732
  0.780   0.794   0.836   0.842   0.854   0.877   0.878   0.894
  0.915   0.921   0.924   0.932   0.942   0.949   0.963   0.978
  0.982   1.008   1.013   1.051   1.067   1.078   1.093   1.149
  1.157   1.197   1.213   1.219   1.225   1.257   1.261   1.279
  1.300   1.327   1.400   1.410   1.419   1.431   1.438   1.451
  1.457   1.458   1.468   1.481   1.506   1.637   1.683   1.724
  1.730   1.775   1.801   1.811   1.842   1.872   1.946   1.949
  1.961   1.976   1.996   2.024   2.030   2.050   2.068   2.072
  2.117   2.130   2.133   2.180   2.182   2.222   2.230   2.239
  2.250   2.253   2.274   2.347   2.367   2.404   2.495   2.499
  2.543   2.564   2.579   2.610   2.615   2.631   2.643   2.680
  2.693   2.738   2.744   2.809   2.834   2.853   2.900   2.993
  3.189   3.316   3.344   3.497  13.121  13.331  13.571  13.597
 13.703  13.847  14.019  14.102  14.109  14.201  14.452  14.503
 19.327
 
 Beta MOs
 -- Occupied --
-14.818 -10.589 -10.588 -10.550 -10.549 -10.548 -10.547 -10.543
-10.542 -10.539 -10.538 -10.532 -10.531  -1.210  -1.045  -1.040
 -0.969  -0.938  -0.907  -0.904  -0.826  -0.784  -0.771  -0.743
 -0.704  -0.679  -0.663  -0.616  -0.607  -0.591  -0.586  -0.585
 -0.581  -0.568  -0.510  -0.508  -0.495  -0.488  -0.481  -0.461
 -0.413  -0.365  -0.350
 -- Virtual --
 -0.233  -0.090  -0.058  -0.024  -0.012   0.061   0.081   0.084
  0.116   0.117   0.136   0.141   0.152   0.160   0.166   0.185
  0.188   0.208   0.223   0.227   0.247   0.255   0.263   0.300
  0.303   0.336   0.362   0.401   0.412   0.420   0.433   0.447
  0.472   0.484   0.487   0.493   0.501   0.513   0.521   0.526
  0.527   0.542   0.548   0.553   0.556   0.559   0.564   0.582
  0.588   0.604   0.623   0.632   0.648   0.678   0.689   0.692
  0.735   0.796   0.811   0.838   0.844   0.856   0.879   0.880
  0.896   0.915   0.925   0.926   0.933   0.942   0.951   0.966
  0.982   0.983   1.009   1.015   1.053   1.068   1.080   1.096
  1.152   1.164   1.199   1.215   1.223   1.228   1.262   1.271
  1.284   1.302   1.339   1.401   1.416   1.424   1.434   1.442
  1.455   1.464   1.465   1.471   1.485   1.508   1.644   1.694
  1.727   1.732   1.779   1.802   1.813   1.857   1.874   1.952
  1.958   1.963   1.979   1.998   2.025   2.033   2.051   2.072
  2.076   2.125   2.130   2.138   2.185   2.187   2.225   2.237
  2.241   2.255   2.258   2.279   2.361   2.373   2.411   2.497
  2.502   2.546   2.570   2.583   2.613   2.618   2.636   2.645
  2.681   2.698   2.740   2.747   2.810   2.840   2.854   2.903
  2.995   3.191   3.318   3.345   3.497  13.122  13.333  13.572
 13.600  13.706  13.846  14.019  14.103  14.109  14.203  14.453
 14.504  19.340
 --------------------------------------------------------------
 
          Ground-State Mulliken Net Atomic Charges

     Atom                 Charge (a.u.)    Spin (a.u.)
  --------------------------------------------------------
      1 H                     0.435920      -0.017208
      2 N                    -0.692071       0.382544
      3 C                     0.361728      -0.098317
      4 C                     0.142290       0.098042
      5 C                     0.141792       0.090301
      6 C                     0.361743      -0.100443
      7 C                    -0.338106      -0.030377
      8 C                    -0.196876       0.271900
      9 C                    -0.242902      -0.155417
     10 C                    -0.236262       0.254258
     11 C                    -0.235218       0.259836
     12 C                    -0.242194      -0.160685
     13 C                    -0.194877       0.283572
     14 C                    -0.339385      -0.037195
     15 H                     0.271964       0.001401
     16 H                     0.289772      -0.014772
     17 H                     0.285770       0.006674
     18 H                     0.288619      -0.013526
     19 H                     0.289009      -0.013852
     20 H                     0.286393       0.006909
     21 H                     0.290702      -0.015371
     22 H                     0.272189       0.001727
  --------------------------------------------------------
  Sum of atomic charges =     1.000000
  Sum of spin   charges =     1.000000

 -----------------------------------------------------------------
                    Cartesian Multipole Moments
 -----------------------------------------------------------------
    Charge (ESU x 10^10)
                 4.8032
    Dipole Moment (Debye)
         X       9.2282      Y     -11.1652      Z      18.7630
       Tot      23.7038
    Quadrupole Moments (Debye-Ang)
        XX     -37.9685     XY     -32.3972     YY     -19.0478
        XZ      47.7462     YZ     -27.1243     ZZ      17.6660
    Octopole Moments (Debye-Ang^2)
       XXX    -368.6219    XXY      44.0013    XYY      -1.3601
       YYY     261.9282    XXZ    -114.5920    XYZ    -116.4859
       YYZ    -166.8349    XZZ     104.2170    YZZ     106.3556
       ZZZ    -410.5574
    Hexadecapole Moments (Debye-Ang^3)
      XXXX   -2283.5270   XXXY     838.9916   XXYY    -514.1883
      XYYY     477.8472   YYYY   -2763.3590   XXXZ   -1400.7003
      XXYZ      32.1907   XYYZ    -178.0681   YYYZ    1134.1832
      XXZZ    -805.5066   XYZZ       5.2371   YYZZ   -1689.2870
      XZZZ    -500.6643   YZZZ    1575.9573   ZZZZ   -5509.6681
 -----------------------------------------------------------------
Archival summary:
1\1\ctcp044\OPT\ProcedureUnspecified\BasisUnspecified\1129(1+,2)\mewes1\MonDec311:45:342018MonDec311:45:342018\0\\#,OPT,ProcedureUnspecified,BasisUnspecified,\\1,2\N\H,1,1.01377\C,1,1.35893,2,124.47\C,1,1.3614,2,124.403,3,-179.195,0\C,4,1.39214,1,128.428,2,0.547607,0\H,5,1.08207,4,121.714,1,-0.76152,0\C,5,1.38561,4,116.674,1,178.954,0\H,7,1.08049,5,119.59,4,-179.881,0\C,7,1.3922,5,120.772,4,-0.0166333,0\H,9,1.08118,7,119.193,5,-179.935,0\C,3,1.39618,1,128.581,2,-0.761089,0\H,11,1.08217,3,121.712,1,0.774233,0\C,11,1.38519,3,116.862,1,-178.839,0\H,13,1.08078,11,119.654,3,179.774,0\C,13,1.39248,11,120.688,3,-0.0634226,0\H,15,1.08142,13,119.202,11,179.932,0\C,9,1.40641,7,121.882,5,-0.0455984,0\H,17,1.08177,9,120.208,7,-179.777,0\C,17,1.36994,9,118.26,7,0.0535355,0\C,15,1.4068,13,121.832,11,0.1655,0\H,20,1.08158,15,119.924,13,179.611,0\C,20,1.37095,15,118.489,13,-0.108931,0\\\@

 Total job time:  552.74s(wall), 2100.53s(cpu) 
 Mon Dec  3 11:45:34 2018

        *************************************************************
        *                                                           *
        *  Thank you very much for using Q-Chem.  Have a nice day.  *
        *                                                           *
        *************************************************************


0 sent ACK to 0 
now end server 0 ... 
