mFile = /cm/shared/apps/q-chem/intel/QCHEM_5.1.0_Trunk/bin/mpi/machines
Process 0 of 1 is on ctcp037 - thread support 0
initial socket setup ...start
initial socket setup ...done 
now start server 0 ... 
Q-Chem Developer Version!
                  Welcome to Q-Chem
     A Quantum Leap Into The Future Of Chemistry


 Q-Chem 5.1, Q-Chem, Inc., Pleasanton, CA (2018)

 Yihan Shao,  Zhengting Gan,  E. Epifanovsky,  A. T. B. Gilbert,  M. Wormit,  
 J. Kussmann,  A. W. Lange,  A. Behn,  Jia Deng,  Xintian Feng,  D. Ghosh,  
 M. Goldey,  P. R. Horn,  L. D. Jacobson,  I. Kaliman,  T. Kus,  A. Landau,  
 Jie Liu,  E. I. Proynov,  R. M. Richard,  R. P. Steele,  E. J. Sundstrom,  
 H. L. Woodcock III,  P. M. Zimmerman,  D. Zuev,  B. Albrecht,  E. Alguire,  
 S. A. Baeppler,  D. Barton,  Z. Benda,  Y. A. Bernard,  E. J. Berquist,  
 K. B. Bravaya,  H. Burton,  D. Casanova,  Chun-Min Chang,  Yunqing Chen,  
 A. Chien,  K. D. Closser,  M. P. Coons,  S. Coriani,  S. Dasgupta,  
 A. L. Dempwolff,  M. Diedenhofen,  Hainam Do,  R. G. Edgar,  Po-Tung Fang,  
 S. Faraji,  S. Fatehi,  Qingguo Feng,  K. D. Fenk,  J. Fosso-Tande,  
 Qinghui Ge,  A. Ghysels,  G. Gidofalvi,  J. Gomes,  J. Gonthier,  A. Gunina,  
 D. Hait,  M. W. D. Hanson-Heine,  P. H. P. Harbach,  A. W. Hauser,  
 J. E. Herr,  E. G. Hohenstein,  Z. C. Holden,  Kerwin Hui,  B. C. Huynh,  
 T.-C. Jagau,  Hyunjun Ji,  B. Kaduk,  K. Khistyaev,  Jaehoon Kim,  
 P. Klunzinger,  K. Koh,  D. Kosenkov,  L. Koulias,  T. Kowalczyk,  
 C. M. Krauter,  A. Kunitsa,  Ka Un Lao,  A. Laurent,  K. V. Lawler,  
 Joonho Lee,  D. Lefrancois,  S. Lehtola,  D. S. Levine,  Yi-Pei Li,  
 You-Sheng Lin,  Fenglai Liu,  E. Livshits,  A. Luenser,  P. Manohar,  
 E. Mansoor,  S. F. Manzer,  Shan-Ping Mao,  Yuezhi Mao,  N. Mardirossian,  
 A. V. Marenich,  T. Markovich,  L. A. Martinez-Martinez,  S. A. Maurer,  
 N. J. Mayhall,  S. C. McKenzie,  J.-M. Mewes,  A. F. Morrison,  
 J. W. Mullinax,  K. Nanda,  T. S. Nguyen-Beck,  R. Olivares-Amaya,  
 J. A. Parkhill,  T. M. Perrine,  F. Plasser,  P. Pokhilko,  S. Prager,  
 A. Prociuk,  E. Ramos,  D. R. Rehn,  F. Rob,  M. Schneider,  N. Sergueev,  
 S. M. Sharada,  S. Sharma,  D. W. Small,  T. Stauch,  T. Stein,  
 Yu-Chuan Su,  A. J. W. Thom,  A. Tkatchenko,  T. Tsuchimochi,  N. M. Tubman,  
 L. Vogt,  M. L. Vidal,  O. Vydrov,  M. A. Watson,  J. Wenzel,  
 M. de Wergifosse,  T. A. Wesolowski,  A. White,  J. Witte,  A. Yamada,  
 Jun Yang,  K. Yao,  S. Yeganeh,  S. R. Yost,  Zhi-Qiang You,  A. Zech,  
 Igor Ying Zhang,  Xing Zhang,  Yan Zhao,  Ying Zhu,  B. R. Brooks,  
 G. K. L. Chan,  C. J. Cramer,  M. S. Gordon,  W. J. Hehre,  A. Klamt,  
 M. W. Schmidt,  C. D. Sherrill,  D. G. Truhlar,  A. Aspuru-Guzik,  R. Baer,  
 A. T. Bell,  N. A. Besley,  Jeng-Da Chai,  A. E. DePrince, III,  
 R. A. DiStasio Jr.,  A. Dreuw,  B. D. Dunietz,  T. R. Furlani,  
 Chao-Ping Hsu,  Yousung Jung,  Jing Kong,  D. S. Lambrecht,  WanZhen Liang,  
 C. Ochsenfeld,  V. A. Rassolov,  L. V. Slipchenko,  J. E. Subotnik,  
 T. Van Voorhis,  J. M. Herbert,  A. I. Krylov,  P. M. W. Gill,  M. Head-Gordon

 Contributors to earlier versions of Q-Chem not listed above: 
 R. D. Adamson,  B. Austin,  J. Baker,  G. J. O. Beran,  K. Brandhorst,  
 S. T. Brown,  E. F. C. Byrd,  A. K. Chakraborty,  C.-L. Cheng,  
 Siu Hung Chien,  D. M. Chipman,  D. L. Crittenden,  H. Dachsel,  
 R. J. Doerksen,  A. D. Dutoi,  L. Fusti-Molnar,  W. A. Goddard III,  
 A. Golubeva-Zadorozhnaya,  S. R. Gwaltney,  G. Hawkins,  A. Heyden,  
 S. Hirata,  G. Kedziora,  F. J. Keil,  C. Kelley,  Jihan Kim,  R. A. King,  
 R. Z. Khaliullin,  P. P. Korambath,  W. Kurlancheek,  A. M. Lee,  M. S. Lee,  
 S. V. Levchenko,  Ching Yeh Lin,  D. Liotard,  R. C. Lochan,  I. Lotan,  
 P. E. Maslen,  N. Nair,  D. P. O'Neill,  D. Neuhauser,  E. Neuscamman,  
 C. M. Oana,  R. Olson,  B. Peters,  R. Peverati,  P. A. Pieniazek,  
 Y. M. Rhee,  J. Ritchie,  M. A. Rohrdanz,  E. Rosta,  N. J. Russ,  
 H. F. Schaefer III,  N. E. Schultz,  N. Shenvi,  A. C. Simmonett,  A. Sodt,  
 D. Stuck,  K. S. Thanthiriwatte,  V. Vanovschi,  Tao Wang,  A. Warshel,  
 C. F. Williams,  Q. Wu,  X. Xu,  W. Zhang

 Please cite Q-Chem as follows:
 Y. Shao et al., Mol. Phys. 113, 184-215 (2015)
 DOI: 10.1080/00268976.2014.952696

 Q-Chem 5.1.1 for Intel X86 EM64T Linux

 Parts of Q-Chem use Armadillo 8.300.2 (Tropical Shenanigans).
 http://arma.sourceforge.net/

 Q-Chem begins on Mon Dec  3 11:36:21 2018  

Host: ctcp037
0

     Scratch files written to /scratch/mewes1/141149/qchem7158//
 Parallel job on  1  processors
The previous job contains 0 fragments, simply inherited here
Symmetry turned off for PCM/SM12/SMD calculation
Input Ideriv = 2
Curr. Ideriv = -1
Max.  Ideriv = 2
Input Ideriv = 2
Curr. Ideriv = 2
Max.  Ideriv = 2

Checking the input file for inconsistencies... 	...done.

--------------------------------------------------------------
User input:
--------------------------------------------------------------
$rem
threads 4
jobtype opt
method PBEh-3c
basis def2-mSVP
mem_static      1024
mem_total       4000
sym_ignore      true
unrestricted true
scf_algorithm	diis
scf_max_cycles	250
solvent_method  pcm
geom_opt_tol_energy 25
geom_opt_tol_gradient 75
$end

$pcm
theory  iefpcm
$end

$solvent
dielectric      2.38
$end

$molecule
read Cz_tBu_kat.mol
$end
--------------------------------------------------------------
 Adding empirical dispersion correction 
 ----------------------------------------------------------------
 Doing -D3(BJ) with
 s6 =   1.00000
 s8 =   0.00000
 a1 =   0.48600
 a2 =   4.50000
 -D3 energy including 3body term =     -0.0330678152 hartrees
 ----------------------------------------------------------------
 Adding gCP correction 
 ----------------------------------------------------------------
 gCP energy =      0.0602877014 hartrees
 ----------------------------------------------------------------
             Standard Nuclear Orientation (Angstroms)
    I     Atom           X                Y                Z
 ----------------------------------------------------------------
    1      H      -0.1536500000    -1.6822000000     2.5353400000
    2      N       0.6985900000    -1.9343000000     3.0854300000
    3      C       1.4829500000    -3.0258500000     2.9305700000
    4      C       2.5066900000    -3.0148600000     3.8397300000
    5      C       2.3584600000    -1.8880100000     4.5848000000
    6      C       1.2478600000    -1.2418400000     4.1107100000
    7      C       3.1159700000    -1.4092400000     5.6342700000
    8      C       2.7243700000    -0.1993300000     6.2497000000
    9      C       1.5617300000     0.4768600000     5.7521900000
   10      C       0.8186700000    -0.0482000000     4.6736300000
   11      C       1.3480300000    -4.0631500000     2.0177900000
   12      C       2.2950100000    -5.1096500000     2.0588900000
   13      C       3.3670000000    -5.0983800000     3.0153800000
   14      C       3.4559000000    -4.0130800000     3.9123100000
   15      H       3.9767600000    -1.9756100000     5.9526000000
   16      C       3.5168600000     0.3830200000     7.4300800000
   17      H       1.2324400000     1.4038800000     6.1996500000
   18      H      -0.0602200000     0.4617900000     4.3008900000
   19      H       0.5378000000    -4.0720000000     1.3002900000
   20      H       2.1806100000    -5.9151500000     1.3507400000
   21      C       4.4177400000    -6.2160600000     3.1169400000
   22      H       4.2401400000    -3.9511000000     4.6537600000
   23      C       4.1875100000    -7.3393800000     2.0859400000
   24      C       4.3575200000    -6.8424900000     4.5299600000
   25      C       5.8252800000    -5.6229900000     2.8777000000
   26      C       4.7429000000    -0.4776300000     7.8364300000
   27      C       2.5852700000     0.4697900000     8.6548400000
   28      H       4.4304900000    -1.4977100000     8.1512500000
   29      H       5.2821000000    -0.0187200000     8.6927000000
   30      H       5.4674200000    -0.5651900000     6.9970700000
   31      H       2.2146300000    -0.5454100000     8.9209900000
   32      H       1.7050000000     1.1145400000     8.4557800000
   33      H       3.1222100000     0.8867600000     9.5327000000
   34      C       4.0383800000     1.7789500000     7.0381200000
   35      H       3.3431700000    -7.2504400000     4.7301700000
   36      H       4.5873900000    -6.0991000000     5.3226600000
   37      H       5.0959200000    -7.6659700000     4.6314200000
   38      H       3.1938800000    -7.8130300000     2.2401600000
   39      H       4.9597700000    -8.1310700000     2.1896100000
   40      H       4.2479500000    -6.9390400000     1.0510500000
   41      H       5.8809600000    -5.1480300000     1.8745500000
   42      H       6.6031500000    -6.4139800000     2.9374300000
   43      H       6.0833200000    -4.8526200000     3.6351700000
   44      H       4.7050400000     1.6986000000     6.1506900000
   45      H       4.6165800000     2.2333400000     7.8700800000
   46      H       3.2088000000     2.4695100000     6.7830200000
 ----------------------------------------------------------------
 Nuclear Repulsion Energy =  1625.8429494356 hartrees
 There are       76 alpha and       75 beta electrons
 Requested basis set is def2-mSVP
 There are 197 shells and 365 basis functions

 Total QAlloc Memory Limit   4000 MB
 Mega-Array Size      1001 MB
 MEM_STATIC part      1024 MB
 Discretize the solute cavity surface with Lebedev spheres
	Using 302 Lebedev grid points for each H atom
	Using 302 Lebedev grid points for other atoms
	Atomic van der Waals radii will be scaled by 1.20
 Remove points where switching function is < 1.0e-08
 Keep 5144 surface tesserae and discard 8748 interior tesserae
 Molecular Surface Area = 352.265 Angst**2
 A cutoff of  1.0D-11 yielded  11762 shell pairs
 There are     42872 function pairs (     47518 Cartesian)
 
 -------------------------------------------------------
 OpenMP Integral Computing Module                       
 Release: version 1.0, May 2013, Q-Chem Inc. Pittsburgh 
 -------------------------------------------------------
 Integral Job Info:
 Integral job number is                      11
 Integral operator is                         1
 short-range coefficients                     0
 long-range coefficients              100000000
 Omega coefficients                           0
 if combine SR and LR in K                    0
 Integral screening is                        0
 Integral computing path is                   2
 max size of driver memory is            800000
 size of driver memory is                593474
 size of scratch memory is              1809772
 max col of scratch BK array               1296
 max len of scratch array in speh3          155
 max len of scratch index in speh4           18
 max int batch size is                      520
 min int batch size is                       52
 fixed nKL is                                52
 max L of basis functions is                  2
 order of int derivative is                   0
 number of shells is                        197
 number of basis is                         386
 number of cartesian basis is               386
 number of contracted shell pairs         11762
 number of primitive shell pairs          26621
 maxK2 (contraction) of shell pair           25
 max number of K2 of shell pair               1
 max number of CS2 of shell pair           2961
 max number of PS2 of shell pair           4825
 mem total for path MDJ                  607692
 -------------------------------------------------------
 Smallest overlap matrix eigenvalue = 3.10E-04

 Scale SEOQF with 1.000000e-02/1.000000e-02/1.000000e-02

 Standard Electronic Orientation quadrupole field applied
 Nucleus-field energy     =    -0.0000000197 hartrees
 Guess from superposition of atomic densities
 Warning:  Energy on first SCF cycle will be non-variational
 SAD guess density has 152.000000 electrons

 -----------------------------------------------------------------------
  General SCF calculation program by
  Eric Jon Sundstrom, Paul Horn, Yuezhi Mao, Dmitri Zuev, Alec White,
  David Stuck, Shaama M.S., Shane Yost, Joonho Lee, David Small,
  Daniel Levine, Susi Lehtola, Hugh Burton, Evgeny Epifanovsky
 -----------------------------------------------------------------------
 Exchange:     0.4200 Hartree-Fock + 0.5800 PBEh-3c
 Correlation:  1.0000 PBEh-3c
 Using SG-1 standard quadrature grid
 Dispersion:   Grimme D3
 using 4 threads for integral computing
 -------------------------------------------------------
 OpenMP Integral computing Module                
 Release: version 2.0, May 2017, Q-Chem Inc. Pleasanton 
 -------------------------------------------------------
 -------------------------------------------------------
 OpenMP BLAS3 based DFT computing Module                
 Release: version 1.0, May 2013, Q-Chem Inc. Pittsburgh 
 -------------------------------------------------------
 A unrestricted SCF calculation will be
 performed using DIIS
 SCF converges when DIIS error is below 1.0e-08
 ---------------------------------------
  Cycle       Energy         DIIS error
 ---------------------------------------
 Using non-symmetric K matrix
    1    -836.3634154536      2.18e-02  
    2    -829.7356246481      1.56e-03  
    3    -829.7752420636      1.46e-03  
    4    -829.9133492396      3.32e-04  
    5    -829.9193232265      1.56e-04  
    6    -829.9211322217      4.68e-05  
    7    -829.9213603110      1.94e-05  
    8    -829.9214837077      1.27e-05  
    9    -829.9215527934      6.47e-06  
   10    -829.9215719484      3.04e-06  
   11    -829.9215751768      1.72e-06  
   12    -829.9215763153      8.12e-07  
   13    -829.9215765558      4.58e-07  
   14    -829.9215766216      2.39e-07  
   15    -829.9215766613      1.71e-07  
   16    -829.9215766899      1.50e-07  
   17    -829.9215767213      9.70e-08  
   18    -829.9215767441      7.55e-08  
   19    -829.9215767535      4.33e-08  
   20    -829.9215767587      2.27e-08  
   21    -829.9215767598      1.70e-08  
   22    -829.9215767602      1.03e-08  
   23    -829.9215767604      5.89e-09  Convergence criterion met
 ---------------------------------------
 SCF time:   CPU 1473.03s  wall 374.00s 
<S^2> =          0.793037170

************** Final PCM Free Energy Summary **************
 G_electrostatic  =      -0.04261117 hartree =     -26.73891425 kcal/mol
 G_cavitation     =       0.00000000 hartree =       0.00000000 kcal/mol
 G_dispersion     =       0.00000000 hartree =       0.00000000 kcal/mol
 G_repulsion      =       0.00000000 hartree =       0.00000000 kcal/mol
 --------------------------------------------------
 Non-electrostatic Free Energy =       0.00000000 hartree =       0.00000000 kcal/mol
 Total                         =      -0.04261117 hartree =     -26.73891425 kcal/mol
 --------------------------------------------------
 SCF Energy (H0 + V/2)                       =    -829.92157676 
 Solute Internal Energy (H0)                 =    -829.87896559 
 Total Free Energy (H0 + V/2 + non-elec)     =    -829.92157676 hartree
                                             = -520783.64960438 kcal/mol
***********************************************************

 SCF   energy in the final basis set =     -829.9215767604
 Total energy in the final basis set =     -829.9215767604
 
 --------------------------------------------------------------
 
                    Orbital Energies (a.u.)
 --------------------------------------------------------------
 
 Alpha MOs
 -- Occupied --
-14.818 -10.569 -10.569 -10.549 -10.548 -10.544 -10.541 -10.536
-10.531 -10.526 -10.525 -10.525 -10.525 -10.518 -10.517 -10.477
-10.477 -10.476 -10.474 -10.474 -10.473  -1.224  -1.048  -1.039
 -0.985  -0.973  -0.949  -0.912  -0.895  -0.884  -0.825  -0.807
 -0.806  -0.806  -0.803  -0.773  -0.769  -0.735  -0.704  -0.694
 -0.681  -0.652  -0.619  -0.619  -0.606  -0.591  -0.584  -0.581
 -0.573  -0.561  -0.543  -0.542  -0.535  -0.528  -0.519  -0.514
 -0.503  -0.500  -0.491  -0.485  -0.475  -0.474  -0.471  -0.471
 -0.456  -0.455  -0.435  -0.433  -0.429  -0.427  -0.416  -0.413
 -0.408  -0.376  -0.340  -0.328
 -- Virtual --
 -0.098  -0.061  -0.043  -0.017   0.049   0.075   0.081   0.099
  0.102   0.102   0.108   0.126   0.133   0.142   0.145   0.145
  0.147   0.149   0.154   0.157   0.169   0.175   0.175   0.177
  0.179   0.183   0.186   0.193   0.196   0.203   0.204   0.206
  0.219   0.220   0.221   0.224   0.226   0.241   0.241   0.243
  0.249   0.252   0.272   0.287   0.307   0.314   0.343   0.350
  0.368   0.380   0.405   0.423   0.429   0.437   0.450   0.455
  0.462   0.463   0.472   0.483   0.484   0.490   0.495   0.497
  0.504   0.509   0.519   0.521   0.530   0.533   0.546   0.549
  0.554   0.557   0.560   0.569   0.579   0.583   0.584   0.591
  0.603   0.604   0.620   0.630   0.636   0.654   0.676   0.681
  0.698   0.700   0.702   0.712   0.718   0.719   0.741   0.742
  0.760   0.770   0.772   0.779   0.782   0.804   0.824   0.829
  0.839   0.841   0.861   0.873   0.882   0.899   0.910   0.923
  0.944   0.950   0.967   0.973   0.974   0.981   0.982   0.982
  0.985   0.988   0.989   0.991   0.999   1.003   1.006   1.024
  1.024   1.027   1.041   1.044   1.045   1.048   1.052   1.061
  1.074   1.093   1.116   1.126   1.134   1.155   1.160   1.163
  1.197   1.226   1.230   1.246   1.266   1.282   1.287   1.303
  1.314   1.327   1.331   1.343   1.351   1.375   1.401   1.413
  1.441   1.447   1.450   1.459   1.465   1.473   1.480   1.486
  1.491   1.509   1.553   1.593   1.606   1.631   1.645   1.660
  1.666   1.678   1.714   1.754   1.756   1.760   1.771   1.781
  1.800   1.811   1.853   1.853   1.859   1.864   1.868   1.870
  1.883   1.901   1.920   1.932   1.962   1.972   1.995   2.016
  2.031   2.041   2.045   2.054   2.069   2.078   2.083   2.084
  2.098   2.115   2.119   2.138   2.158   2.174   2.187   2.189
  2.209   2.225   2.233   2.238   2.242   2.246   2.262   2.265
  2.266   2.271   2.272   2.274   2.278   2.279   2.292   2.307
  2.369   2.374   2.388   2.414   2.450   2.465   2.494   2.509
  2.553   2.579   2.591   2.593   2.615   2.619   2.640   2.657
  2.665   2.674   2.687   2.702   2.729   2.741   2.745   2.762
  2.793   2.811   2.867   2.876   2.891   2.960   2.992   3.013
  3.245   3.363   3.414   3.553  13.157  13.387  13.542  13.594
 13.624  13.719  13.784  13.812  13.817  13.845  13.876  13.951
 14.044  14.106  14.118  14.144  14.178  14.288  14.457  14.587
 19.374
 
 Beta MOs
 -- Occupied --
-14.809 -10.571 -10.570 -10.546 -10.545 -10.541 -10.538 -10.536
-10.531 -10.527 -10.527 -10.525 -10.524 -10.518 -10.517 -10.477
-10.477 -10.476 -10.474 -10.474 -10.473  -1.211  -1.040  -1.035
 -0.980  -0.969  -0.945  -0.908  -0.887  -0.885  -0.822  -0.806
 -0.806  -0.805  -0.801  -0.769  -0.767  -0.732  -0.701  -0.693
 -0.679  -0.650  -0.617  -0.604  -0.593  -0.590  -0.583  -0.579
 -0.571  -0.561  -0.540  -0.539  -0.534  -0.528  -0.518  -0.513
 -0.495  -0.490  -0.489  -0.484  -0.471  -0.470  -0.468  -0.456
 -0.455  -0.447  -0.433  -0.431  -0.425  -0.423  -0.416  -0.413
 -0.398  -0.346  -0.331
 -- Virtual --
 -0.227  -0.086  -0.045  -0.020  -0.005   0.053   0.075   0.081
  0.100   0.104   0.109   0.115   0.127   0.134   0.142   0.145
  0.147   0.148   0.149   0.157   0.159   0.169   0.176   0.176
  0.178   0.179   0.185   0.188   0.194   0.196   0.203   0.205
  0.208   0.220   0.221   0.221   0.225   0.227   0.242   0.242
  0.245   0.250   0.254   0.274   0.288   0.308   0.315   0.343
  0.351   0.371   0.383   0.408   0.427   0.431   0.439   0.452
  0.459   0.464   0.465   0.472   0.486   0.486   0.492   0.498
  0.502   0.505   0.514   0.521   0.523   0.531   0.534   0.547
  0.550   0.556   0.562   0.564   0.574   0.580   0.585   0.588
  0.593   0.606   0.607   0.621   0.635   0.637   0.654   0.678
  0.682   0.701   0.702   0.710   0.715   0.720   0.725   0.742
  0.744   0.763   0.770   0.773   0.780   0.783   0.805   0.831
  0.838   0.843   0.852   0.862   0.874   0.885   0.899   0.912
  0.924   0.946   0.951   0.968   0.973   0.974   0.982   0.983
  0.983   0.987   0.989   0.989   0.992   1.000   1.003   1.006
  1.024   1.025   1.028   1.042   1.045   1.045   1.048   1.053
  1.063   1.074   1.094   1.117   1.127   1.136   1.157   1.164
  1.166   1.199   1.231   1.233   1.247   1.268   1.288   1.295
  1.305   1.319   1.330   1.334   1.351   1.354   1.377   1.405
  1.415   1.442   1.448   1.454   1.462   1.467   1.476   1.483
  1.489   1.493   1.510   1.556   1.595   1.607   1.631   1.646
  1.663   1.670   1.686   1.720   1.755   1.757   1.762   1.776
  1.783   1.802   1.812   1.854   1.856   1.865   1.870   1.871
  1.875   1.883   1.902   1.921   1.935   1.963   1.974   1.998
  2.023   2.034   2.043   2.048   2.055   2.071   2.078   2.084
  2.085   2.099   2.116   2.120   2.140   2.160   2.175   2.192
  2.192   2.213   2.226   2.236   2.241   2.245   2.248   2.265
  2.267   2.267   2.272   2.272   2.278   2.281   2.285   2.293
  2.308   2.370   2.380   2.400   2.421   2.451   2.466   2.495
  2.510   2.556   2.582   2.592   2.595   2.617   2.624   2.645
  2.659   2.666   2.675   2.688   2.703   2.731   2.745   2.748
  2.763   2.795   2.812   2.870   2.879   2.894   2.961   2.994
  3.015   3.247   3.364   3.415   3.554  13.158  13.388  13.543
 13.595  13.625  13.720  13.786  13.812  13.817  13.846  13.877
 13.950  14.045  14.106  14.118  14.146  14.179  14.289  14.458
 14.588  19.386
 --------------------------------------------------------------
 
          Ground-State Mulliken Net Atomic Charges

     Atom                 Charge (a.u.)    Spin (a.u.)
  --------------------------------------------------------
      1 H                     0.441866      -0.016901
      2 N                    -0.704806       0.355140
      3 C                     0.357488      -0.080158
      4 C                     0.175023       0.034380
      5 C                     0.197885       0.086667
      6 C                     0.355087      -0.070677
      7 C                    -0.422181      -0.012440
      8 C                     0.197363       0.265880
      9 C                    -0.290612      -0.152939
     10 C                    -0.259393       0.211749
     11 C                    -0.245963       0.240725
     12 C                    -0.315401      -0.149861
     13 C                     0.200583       0.245807
     14 C                    -0.380049       0.051621
     15 H                     0.259438       0.000011
     16 C                    -0.178884      -0.019311
     17 H                     0.269081       0.006624
     18 H                     0.277144      -0.011290
     19 H                     0.279118      -0.012731
     20 H                     0.274843       0.006140
     21 C                    -0.181315      -0.018485
     22 H                     0.259068      -0.003153
     23 C                    -0.644194       0.000299
     24 C                    -0.613505       0.008710
     25 C                    -0.612670       0.008746
     26 C                    -0.651194       0.000719
     27 C                    -0.609404       0.008544
     28 H                     0.223780       0.000045
     29 H                     0.252725      -0.000402
     30 H                     0.224288       0.000045
     31 H                     0.228370      -0.000326
     32 H                     0.224360      -0.000449
     33 H                     0.239508       0.002275
     34 C                    -0.609453       0.008515
     35 H                     0.233313      -0.000385
     36 H                     0.217583      -0.000438
     37 H                     0.242809       0.003387
     38 H                     0.227344       0.000141
     39 H                     0.247170      -0.000328
     40 H                     0.227520       0.000141
     41 H                     0.233485      -0.000372
     42 H                     0.242458       0.003302
     43 H                     0.217890      -0.000442
     44 H                     0.228708      -0.000321
     45 H                     0.239431       0.002247
     46 H                     0.224293      -0.000449
  --------------------------------------------------------
  Sum of atomic charges =     1.000000
  Sum of spin   charges =     1.000000

 -----------------------------------------------------------------
                    Cartesian Multipole Moments
 -----------------------------------------------------------------
    Charge (ESU x 10^10)
                 4.8032
    Dipole Moment (Debye)
         X       9.7686      Y     -11.3874      Z      19.0608
       Tot      24.2572
    Quadrupole Moments (Debye-Ang)
        XX     -81.0844     XY     -36.6504     YY     -61.7790
        XZ      53.5003     YZ     -25.8205     ZZ     -25.4157
    Octopole Moments (Debye-Ang^2)
       XXX    -923.2940    XXY     155.7970    XYY    -140.5057
       YYY     627.4872    XXZ    -345.2781    XYZ    -119.6445
       YYZ    -402.5293    XZZ     -38.1367    YZZ     274.6674
       ZZZ   -1110.2332
    Hexadecapole Moments (Debye-Ang^3)
      XXXX   -7528.3534   XXXY    2645.1028   XXYY   -2157.7344
      XYYY    1992.7788   YYYY   -8865.5992   XXXZ   -4308.5304
      XXYZ     374.5123   XYYZ   -1004.9862   YYYZ    1962.1154
      XXZZ   -3213.2478   XYZZ     775.4794   YYZZ   -4467.4186
      XZZZ   -3013.8553   YZZZ    2917.9146   ZZZZ  -14978.0297
 -----------------------------------------------------------------
 Calculating analytic gradient of the SCF energy
 -1.510750726658845E-004 -1.510829859217538E-004
 -1.510799245080628E-004 -1.510781275785495E-004
 -1.510770534596863E-004 -1.510810055644626E-004
 -1.510813050920880E-004 -1.510767621655083E-004
 -1.510782649443138E-004 -1.510798131180591E-004
 -1.510806232855152E-004 -1.510774563443308E-004
 -1.510779717300172E-004 -1.510800943682849E-004
 -1.510816798837614E-004 -1.510763771903677E-004
 -1.510797072655407E-004 -1.510783684873747E-004
 -1.510855669074390E-004 -1.510724862940612E-004
 -1.510766810297611E-004 -1.510813808798708E-004
 -1.510816515283508E-004 -1.510764164937337E-004
 -1.510855717273798E-004 -1.510724822288921E-004
 -1.510790307100621E-004 -1.510790314372427E-004
 -1.510835691297508E-004 -1.510744940500404E-004
 -1.510789693877032E-004 -1.510790989926678E-004
 -1.510766654618018E-004 -1.510813971382359E-004
 -1.510768621105157E-004 -1.510812024045366E-004
 -1.510903161802366E-004 -1.510677467230965E-004
 -1.510604998628861E-004 -1.510975518730345E-004
 -1.510732528421758E-004 -1.510848088924930E-004
 -1.510718591847270E-004 -1.510862033807603E-004
 -1.510864977206013E-004 -1.510715824499809E-004
 -1.510786539004228E-004 -1.510794129641135E-004
 -1.510705286848651E-004 -1.510875283990494E-004
 -1.510776438670313E-004 -1.510804124906421E-004
 -1.510704954875052E-004 -1.510875701482382E-004
 -1.510796121009460E-004 -1.510784353264221E-004
 -1.510939126009162E-004 -1.510641520038484E-004
 -1.510914551461583E-004 -1.510666030912991E-004
 -1.510836557768747E-004 -1.510743889698908E-004
 -1.510621179432159E-004 -1.510959401880721E-004
 -1.510701316499604E-004 -1.510879316778824E-004
 -1.510704142633854E-004 -1.510876449689826E-004
 -1.510865608251964E-004 -1.510714968060079E-004
 -1.510769093138030E-004 -1.510811537024643E-004
 -1.510736337203675E-004 -1.510844278711086E-004
 -1.510743611497659E-004 -1.510837074056086E-004
 -1.510704448482891E-004 -1.510876331298309E-004
 -1.510859148418106E-004 -1.510721461846312E-004
 -1.510927717584830E-004 -1.510652770882804E-004
 -1.510941760727502E-004 -1.510638896264032E-004
 -1.510851056344462E-004 -1.510729341715831E-004
 -1.510775733026610E-004 -1.510804641067557E-004
 -1.510825731809725E-004 -1.510754667435177E-004
 -1.510888742086651E-004 -1.510691722829193E-004
 -1.510809847371945E-004 -1.510770750617761E-004
 -1.510905642152298E-004 -1.510674803169998E-004
 -1.510773534302407E-004 -1.510806993831424E-004
 -1.510859282032546E-004 -1.510721142214510E-004
 -1.510836304514709E-004 -1.510744256322864E-004
 -1.510818791158208E-004 -1.510761691888616E-004
 -1.510783485956846E-004 -1.510797088715204E-004
 -1.510816176980183E-004 -1.510764297065199E-004
 -1.510830410133796E-004 -1.510750051957230E-004
 -1.510773055442974E-004 -1.510807432023667E-004
 -1.510818881193495E-004 -1.510761708708676E-004
 -1.510791055421730E-004 -1.510789487203623E-004
 -1.510735175551484E-004 -1.510845291043334E-004
 -1.510753891930142E-004 -1.510826586052972E-004
 -1.510948790935640E-004 -1.510631746769375E-004
 -1.510765585568405E-004 -1.510814877929221E-004
 -1.510915253677613E-004 -1.510665274163572E-004
 -1.510868926378994E-004 -1.510711453868655E-004
 -1.510758819418291E-004 -1.510821512333320E-004
 -1.510829038713060E-004 -1.510751394624545E-004
 -1.510704468386097E-004 -1.510875940117438E-004
 -1.510687119537670E-004 -1.510893250387634E-004
 -1.510642673622985E-004 -1.510937835512179E-004
 -1.510623725901988E-004 -1.510956699380605E-004
 -1.510789280362376E-004 -1.510791255831704E-004
 -1.510801719468369E-004 -1.510778702451863E-004
 -1.510745561734770E-004 -1.510834679262943E-004
 -1.510885349864116E-004 -1.510695158269744E-004
 -1.510670094295446E-004 -1.510910541926916E-004
 -1.510781972418534E-004 -1.510798348493063E-004
 -1.510683034479691E-004 -1.510897623553699E-004
 -1.510691224853893E-004 -1.510889087242638E-004
 -1.510655739352982E-004 -1.510924586226340E-004
 -1.510709151951797E-004 -1.510871616589643E-004
 -1.510823103946592E-004 -1.510757101073401E-004
 -1.510732460662903E-004 -1.510847935442236E-004
 -1.510746627324300E-004 -1.510833695493644E-004
 -1.510856819544516E-004 -1.510723313491019E-004
 -1.510791260739764E-004 -1.510789207889139E-004
 -1.510768381693904E-004 -1.510812234668908E-004
 -1.510777959022075E-004 -1.510802599349340E-004
 -1.510838339911469E-004 -1.510741724987283E-004
 -1.510842895160885E-004 -1.510737469864302E-004
 -1.510733828833255E-004 -1.510846572958459E-004
 -1.510726335224352E-004 -1.510853996898222E-004
 -1.510726471711838E-004 -1.510853945257433E-004
 -1.510817440147247E-004 -1.510762696390854E-004
 -1.510747577280864E-004 -1.510832693597440E-004
 -1.510724028761143E-004 -1.510856425754968E-004
 -1.510765166354634E-004 -1.510815057166059E-004
 -1.510820099207196E-004 -1.510760270275900E-004
 -1.510732354679997E-004 -1.510848235173380E-004
 -1.510756432456655E-004 -1.510824059301890E-004
 -1.510820332579241E-004 -1.510759955503518E-004
 -1.510859308979016E-004 -1.510721258147681E-004
 -1.510642954210241E-004 -1.510937488400704E-004
 -1.510716736430469E-004 -1.510863547265782E-004
 -1.510859326197817E-004 -1.510720935590299E-004
 -1.510837383850294E-004 -1.510742896262769E-004
 -1.510794357950643E-004 -1.510786123391521E-004
 -1.510791277166734E-004 -1.510789214800036E-004
 -1.510898054378810E-004 -1.510682168091235E-004
 -1.510796879146750E-004 -1.510783576169684E-004
 -1.510850428329743E-004 -1.510730195256659E-004
 -1.510799032447811E-004 -1.510781423442482E-004
 -1.510762326794885E-004 -1.510818006816417E-004
 -1.510804535046897E-004 -1.510775650482424E-004
 -1.510831065907190E-004 -1.510749307485387E-004
 -1.510796426352250E-004 -1.510783994906050E-004
 -1.510842867208819E-004 -1.510737673843644E-004
 -1.510838378684089E-004 -1.510742049180938E-004
 -1.510801373825022E-004 -1.510778975556782E-004
 -1.510840207352832E-004 -1.510740072842826E-004
 -1.510786496248126E-004 -1.510793770520689E-004
 -1.510759205736732E-004 -1.510821043397456E-004
 -1.510898129368187E-004 -1.510682144676064E-004
 -1.510787956711239E-004 -1.510792361181132E-004
 -1.510762073355954E-004 -1.510818384762808E-004
 -1.510819864162689E-004 -1.510760695910065E-004
 -1.510838900081952E-004 -1.510741607943117E-004
 -1.510872463042147E-004 -1.510707762775631E-004
 -1.510858617287125E-004 -1.510721873247780E-004
 -1.510807698779336E-004 -1.510772772927265E-004
 -1.510821769393569E-004 -1.510758455833129E-004
 -1.510813287886262E-004 -1.510767007622650E-004
 -1.510710789671581E-004 -1.510869567877758E-004
 -1.510807868727103E-004 -1.510772547890536E-004
 -1.510723687823952E-004 -1.510856849519995E-004
 -1.510770702142477E-004 -1.510809791686955E-004
 -1.510795490067326E-004 -1.510784808891105E-004
 -1.510768313076073E-004 -1.510811957260764E-004
 -1.510714473515586E-004 -1.510865905626360E-004
 Gradient of SCF Energy
            1           2           3           4           5           6
    1  -0.0488256   0.0110342   0.0259465  -0.0448552  -0.0250034   0.0372019
    2   0.0142849  -0.0050076   0.0278113   0.0719873  -0.0537019  -0.0458296
    3  -0.0315366   0.0053635   0.0451737   0.0186863  -0.0637236  -0.0018359
            7           8           9          10          11          12
    1   0.0081040   0.0112013   0.0065503  -0.0022237  -0.0069363  -0.0006031
    2  -0.0069291   0.0076196   0.0166490  -0.0278817   0.0248708  -0.0172696
    3   0.0011174   0.0158505   0.0189038  -0.0247477   0.0119764  -0.0140602
           13          14          15          16          17          18
    1   0.0267707   0.0086400   0.0139759  -0.0050915  -0.0076833  -0.0173041
    2  -0.0008357  -0.0059863  -0.0131598  -0.0013985   0.0159911   0.0079857
    3   0.0232460   0.0023736   0.0019526  -0.0062765   0.0060088  -0.0089679
           19          20          21          22          23          24
    1  -0.0166385  -0.0051961  -0.0038793   0.0132382   0.0103287   0.0062264
    2   0.0026967  -0.0112561   0.0071873   0.0039150   0.0137293   0.0074025
    3  -0.0125138  -0.0130341   0.0010978   0.0146589   0.0189822  -0.0308425
           25          26          27          28          29          30
    1  -0.0252601  -0.0168347   0.0232584  -0.0094921   0.0150578   0.0154306
    2  -0.0185723   0.0212105   0.0009272  -0.0235258   0.0089779  -0.0009885
    3   0.0048709   0.0020199  -0.0211800   0.0067024   0.0208784  -0.0211973
           31          32          33          34          35          36
    1  -0.0076632  -0.0191385   0.0115923  -0.0079114  -0.0247946   0.0056946
    2  -0.0252260   0.0142405   0.0093736  -0.0272352  -0.0073828   0.0179633
    3   0.0035880  -0.0065321   0.0202531   0.0133796   0.0030001   0.0177551
           37          38          39          40          41          42
    1   0.0173431  -0.0234806   0.0179034   0.0018956  -0.0013501   0.0192383
    2  -0.0188263  -0.0085237  -0.0193093   0.0126213   0.0116416  -0.0172860
    3   0.0042052   0.0064527   0.0017982  -0.0223007  -0.0231506   0.0019490
           43          44          45          46
    1   0.0050592   0.0148974   0.0132051  -0.0196284
    2   0.0175762  -0.0050465   0.0107969   0.0137188
    3   0.0182830  -0.0213823   0.0185137  -0.0057589
 Max gradient component =       7.199E-02
 RMS gradient           =       1.925E-02
 Computing fast IEFPCM-SWIG gradient.
 Updating gradient with PCM contributions...
 -- total gradient after adding PCM contribution --
---------------------------------------------------
  Atom         X              Y              Z     
---------------------------------------------------
   1      -0.022332       0.006484      -0.014440
   2       0.006367      -0.003484       0.002627
   3       0.020972       0.027791       0.040695
   4      -0.040160       0.056908       0.011270
   5      -0.025881      -0.041250      -0.054677
   6       0.031432      -0.042946      -0.004601
   7       0.015260      -0.011942       0.003632
   8       0.003046      -0.004967      -0.001521
   9      -0.001740       0.022413       0.016169
  10      -0.009022      -0.019617      -0.024109
  11      -0.013432       0.022397       0.004830
  12      -0.003846      -0.019834      -0.018879
  13       0.008597       0.011736       0.016729
  14       0.013670       0.000137       0.011489
  15      -0.001493      -0.002341      -0.003461
  16      -0.005232       0.000722      -0.004735
  17      -0.001046       0.000323      -0.000686
  18      -0.000271      -0.001312      -0.001312
  19      -0.000649       0.002242       0.001106
  20      -0.002128       0.001676      -0.000592
  21      -0.002142       0.006396       0.001960
  22      -0.000839       0.002145       0.000806
  23       0.004287      -0.000541       0.003148
  24       0.004336      -0.000822      -0.007857
  25      -0.003871      -0.007515       0.001419
  26       0.000714       0.005621       0.005079
  27       0.008021       0.001784      -0.003575
  28      -0.005351      -0.011582       0.003688
  29       0.008863       0.003957       0.011240
  30       0.007600       0.000189      -0.010877
  31      -0.003798      -0.013751       0.001606
  32      -0.009251       0.007012      -0.003758
  33       0.005571       0.004899       0.010953
  34      -0.000907      -0.006335       0.006256
  35      -0.012969      -0.003532       0.001261
  36       0.002838       0.009021       0.008597
  37       0.008970      -0.009860       0.003094
  38      -0.011929      -0.004027       0.004312
  39       0.009373      -0.010686       0.000556
  40       0.001520       0.007184      -0.010971
  41      -0.001034       0.006057      -0.011984
  42       0.010704      -0.008527       0.001066
  43       0.002098       0.008567       0.009255
  44       0.007998      -0.003256      -0.011396
  45       0.007009       0.006150       0.009424
  46      -0.009924       0.006315      -0.002833
---------------------------------------------------
 Number of fixed atoms: 0
 Gradient time:  CPU 104.72 s  wall 39.27 s
 Geometry Optimization Parameters
   NAtoms,    NIC,     NZ,  NCons,   NDum,   NFix, NCnnct, MaxDiis
       46     353       0       0       0       0       0       0


** GEOMETRY OPTIMIZATION IN DELOCALIZED INTERNAL COORDINATES **
   Searching for a Minimum

   Optimization Cycle:   1

                       Coordinates (Angstroms)
     ATOM                X               Y               Z
      1  H        -0.1536500000   -1.6822000000    2.5353400000
      2  N         0.6985900000   -1.9343000000    3.0854300000
      3  C         1.4829500000   -3.0258500000    2.9305700000
      4  C         2.5066900000   -3.0148600000    3.8397300000
      5  C         2.3584600000   -1.8880100000    4.5848000000
      6  C         1.2478600000   -1.2418400000    4.1107100000
      7  C         3.1159700000   -1.4092400000    5.6342700000
      8  C         2.7243700000   -0.1993300000    6.2497000000
      9  C         1.5617300000    0.4768600000    5.7521900000
     10  C         0.8186700000   -0.0482000000    4.6736300000
     11  C         1.3480300000   -4.0631500000    2.0177900000
     12  C         2.2950100000   -5.1096500000    2.0588900000
     13  C         3.3670000000   -5.0983800000    3.0153800000
     14  C         3.4559000000   -4.0130800000    3.9123100000
     15  H         3.9767600000   -1.9756100000    5.9526000000
     16  C         3.5168600000    0.3830200000    7.4300800000
     17  H         1.2324400000    1.4038800000    6.1996500000
     18  H        -0.0602200000    0.4617900000    4.3008900000
     19  H         0.5378000000   -4.0720000000    1.3002900000
     20  H         2.1806100000   -5.9151500000    1.3507400000
     21  C         4.4177400000   -6.2160600000    3.1169400000
     22  H         4.2401400000   -3.9511000000    4.6537600000
     23  C         4.1875100000   -7.3393800000    2.0859400000
     24  C         4.3575200000   -6.8424900000    4.5299600000
     25  C         5.8252800000   -5.6229900000    2.8777000000
     26  C         4.7429000000   -0.4776300000    7.8364300000
     27  C         2.5852700000    0.4697900000    8.6548400000
     28  H         4.4304900000   -1.4977100000    8.1512500000
     29  H         5.2821000000   -0.0187200000    8.6927000000
     30  H         5.4674200000   -0.5651900000    6.9970700000
     31  H         2.2146300000   -0.5454100000    8.9209900000
     32  H         1.7050000000    1.1145400000    8.4557800000
     33  H         3.1222100000    0.8867600000    9.5327000000
     34  C         4.0383800000    1.7789500000    7.0381200000
     35  H         3.3431700000   -7.2504400000    4.7301700000
     36  H         4.5873900000   -6.0991000000    5.3226600000
     37  H         5.0959200000   -7.6659700000    4.6314200000
     38  H         3.1938800000   -7.8130300000    2.2401600000
     39  H         4.9597700000   -8.1310700000    2.1896100000
     40  H         4.2479500000   -6.9390400000    1.0510500000
     41  H         5.8809600000   -5.1480300000    1.8745500000
     42  H         6.6031500000   -6.4139800000    2.9374300000
     43  H         6.0833200000   -4.8526200000    3.6351700000
     44  H         4.7050400000    1.6986000000    6.1506900000
     45  H         4.6165800000    2.2333400000    7.8700800000
     46  H         3.2088000000    2.4695100000    6.7830200000
   Point Group: c1    Number of degrees of freedom:   132


   Energy is   -829.921576760


 Attempting to Generate Delocalized Internal Coordinates

132 Hessian modes will be used to form the next step
  Hessian Eigenvalues:
     0.002287    0.002985    0.003093    0.003621    0.003723    0.003774
     0.004232    0.004366    0.013311    0.013462    0.018934    0.019175
     0.019645    0.019786    0.021818    0.022368    0.022480    0.022591
     0.022613    0.022725    0.022935    0.023582    0.024037    0.024321
     0.025784    0.025852    0.026391    0.050078    0.050169    0.051137
     0.051477    0.053162    0.053465    0.053628    0.054193    0.054336
     0.054752    0.054800    0.054858    0.055033    0.055191    0.055559
     0.056258    0.056384    0.056416    0.145057    0.147265    0.152438
     0.154829    0.159994    0.159994    0.159996    0.159997    0.159998
     0.159999    0.160000    0.160000    0.160000    0.160000    0.160000
     0.160000    0.160000    0.160000    0.160000    0.160000    0.160000
     0.160000    0.160000    0.160000    0.160000    0.160000    0.160000
     0.160000    0.160000    0.224506    0.224675    0.234966    0.235218
     0.238122    0.246410    0.247222    0.249986    0.249992    0.249997
     0.274734    0.279228    0.279934    0.283411    0.284092    0.284433
     0.287511    0.288419    0.322811    0.323007    0.323547    0.323620
     0.324419    0.324426    0.324623    0.324659    0.324843    0.324947
     0.325141    0.325171    0.325184    0.325263    0.325599    0.325663
     0.326907    0.326931    0.357124    0.357187    0.358704    0.359040
     0.361631    0.361815    0.378625    0.385468    0.405474    0.410112
     0.411202    0.420828    0.430546    0.439527    0.460713    0.466044
     0.467326    0.481498    0.483209    0.505133    0.534396    0.537197

 Minimum Search - Taking Simple RFO Step
 Searching for Lamda that Minimizes Along All modes
 Value Taken    Lamda =  -0.05251043
 Calculated Step too Large.  Step scaled by  0.822419
 Step Taken.  Stepsize is  0.300000

                             Maximum     Tolerance    Cnvgd?
         Gradient           0.059709      0.000075      NO
         Displacement       0.120429      0.001200      NO
         Energy change     *********      0.000000      NO


 New Cartesian Coordinates Obtained by Inverse Iteration

 Displacement from previous Coordinates is:  1.776224
 Adding empirical dispersion correction 
 ----------------------------------------------------------------
 Doing -D3(BJ) with
 s6 =   1.00000
 s8 =   0.00000
 a1 =   0.48600
 a2 =   4.50000
 -D3 energy including 3body term =     -0.0334578202 hartrees
 ----------------------------------------------------------------
 Adding gCP correction 
 ----------------------------------------------------------------
 gCP energy =      0.0613180892 hartrees
 ----------------------------------------------------------------
             Standard Nuclear Orientation (Angstroms)
    I     Atom           X                Y                Z
 ----------------------------------------------------------------
    1      H      -0.0135784015    -1.7147263397     2.6208705861
    2      N       0.8182681876    -1.9593518261     3.1565564363
    3      C       1.5774776627    -3.0756396441     2.9614540269
    4      C       2.6209826974    -3.0650964354     3.8862550069
    5      C       2.4636959791    -1.8808462554     4.6703646359
    6      C       1.3306259884    -1.2257283785     4.1845423551
    7      C       3.1736514436    -1.3501971729     5.7244916647
    8      C       2.7365423689    -0.1436612216     6.3043346614
    9      C       1.5848539680     0.4966427884     5.7919395156
   10      C       0.8700329929    -0.0291565405     4.7314793243
   11      C       1.4158726248    -4.1073861345     2.0366285574
   12      C       2.3351879814    -5.1481869204     2.0640937537
   13      C       3.3976883978    -5.1665192838     2.9873240761
   14      C       3.5320894803    -4.0979537642     3.9040433717
   15      H       4.0462712458    -1.8696553383     6.0905092815
   16      C       3.4737494315     0.4830808187     7.4725530246
   17      H       1.2419354224     1.4216633609     6.2324318648
   18      H      -0.0116093896     0.4708149183     4.3518546137
   19      H       0.6015601393    -4.1102822899     1.3233088118
   20      H       2.2103268329    -5.9519946545     1.3547576816
   21      C       4.4012659048    -6.3057410043     3.0374970188
   22      H       4.3371135424    -4.0882503869     4.6253877127
   23      C       4.1049303859    -7.3851719478     1.9909765226
   24      C       4.3515974039    -6.9547229651     4.4312074648
   25      C       5.8099245600    -5.7481109390     2.7762009919
   26      C       4.7005078439    -0.3344992402     7.9001001853
   27      C       2.5164447870     0.5712227359     8.6708507724
   28      H       4.4235101777    -1.3443696941     8.2271121055
   29      H       5.1951427608     0.1576259413     8.7430342761
   30      H       5.4367726858    -0.4183028955     7.0911251338
   31      H       2.1684014543    -0.4271649498     8.9615796925
   32      H       1.6335486171     1.1811236801     8.4512965634
   33      H       3.0253642631     1.0186978793     9.5311153912
   34      C       3.9492507234     1.8849922007     7.0619642137
   35      H       3.3486698059    -7.3379294826     4.6515447039
   36      H       4.6222251386    -6.2508002274     5.2266515821
   37      H       5.0584553000    -7.7895237941     4.4833880084
   38      H       3.1168566724    -7.8343556789     2.1466251782
   39      H       4.8465464338    -8.1869813209     2.0620639405
   40      H       4.1512124382    -6.9808504836     0.9729364260
   41      H       5.8635325099    -5.2616625454     1.7956489563
   42      H       6.5456951350    -6.5591638016     2.7987477169
   43      H       6.1134119030    -5.0135914390     3.5310794833
   44      H       4.6264661714     1.8279307082     6.2014864611
   45      H       4.4871225000     2.3608318547     7.8887294801
   46      H       3.1147558280     2.5391781094     6.7870367684
 ----------------------------------------------------------------
 Nuclear Repulsion Energy =  1622.5291690148 hartrees
 There are       76 alpha and       75 beta electrons
 Discretize the solute cavity surface with Lebedev spheres
	Using 302 Lebedev grid points for each H atom
	Using 302 Lebedev grid points for other atoms
	Atomic van der Waals radii will be scaled by 1.20
 Remove points where switching function is < 1.0e-08
 Keep 5114 surface tesserae and discard 8778 interior tesserae
 Molecular Surface Area = 349.458 Angst**2
 Nucleus-field energy     =    -0.0000000196 hartrees
 Requested basis set is def2-mSVP
 There are 197 shells and 365 basis functions
 A cutoff of  1.0D-11 yielded  11639 shell pairs
 There are     42401 function pairs (     46998 Cartesian)
 Smallest overlap matrix eigenvalue = 3.16E-04
 Guess MOs from SCF MO coefficient file

 -----------------------------------------------------------------------
  General SCF calculation program by
  Eric Jon Sundstrom, Paul Horn, Yuezhi Mao, Dmitri Zuev, Alec White,
  David Stuck, Shaama M.S., Shane Yost, Joonho Lee, David Small,
  Daniel Levine, Susi Lehtola, Hugh Burton, Evgeny Epifanovsky
 -----------------------------------------------------------------------
 Exchange:     0.4200 Hartree-Fock + 0.5800 PBEh-3c
 Correlation:  1.0000 PBEh-3c
 Using SG-1 standard quadrature grid
 Dispersion:   Grimme D3
 using 4 threads for integral computing
 -------------------------------------------------------
 OpenMP Integral computing Module                
 Release: version 2.0, May 2017, Q-Chem Inc. Pleasanton 
 -------------------------------------------------------
 -------------------------------------------------------
 OpenMP BLAS3 based DFT computing Module                
 Release: version 1.0, May 2013, Q-Chem Inc. Pittsburgh 
 -------------------------------------------------------
 A unrestricted SCF calculation will be
 performed using DIIS
 SCF converges when DIIS error is below 1.0e-08
 ---------------------------------------
  Cycle       Energy         DIIS error
 ---------------------------------------
 Using non-symmetric K matrix
    1    -840.0263547441      4.18e-04  
    2    -829.9449279859      1.59e-04  
    3    -829.9459753456      1.32e-04  
    4    -829.9471237948      2.51e-05  
    5    -829.9471679244      1.09e-05  
    6    -829.9471777483      5.21e-06  
    7    -829.9471812474      2.17e-06  
    8    -829.9471826450      1.60e-06  
    9    -829.9471836049      6.16e-07  
   10    -829.9471837757      3.24e-07  
   11    -829.9471838073      1.60e-07  
   12    -829.9471838218      1.06e-07  
   13    -829.9471838286      6.30e-08  
   14    -829.9471838315      3.79e-08  
   15    -829.9471838325      2.62e-08  
   16    -829.9471838332      1.96e-08  
   17    -829.9471838337      1.32e-08  
   18    -829.9471838340      6.85e-09  Convergence criterion met
 ---------------------------------------
 SCF time:   CPU 1221.11s  wall 310.00s 
<S^2> =          0.794984867

************** Final PCM Free Energy Summary **************
 G_electrostatic  =      -0.04199725 hartree =     -26.35367173 kcal/mol
 G_cavitation     =       0.00000000 hartree =       0.00000000 kcal/mol
 G_dispersion     =       0.00000000 hartree =       0.00000000 kcal/mol
 G_repulsion      =       0.00000000 hartree =       0.00000000 kcal/mol
 --------------------------------------------------
 Non-electrostatic Free Energy =       0.00000000 hartree =       0.00000000 kcal/mol
 Total                         =      -0.04199725 hartree =     -26.35367173 kcal/mol
 --------------------------------------------------
 SCF Energy (H0 + V/2)                       =    -829.94718383 
 Solute Internal Energy (H0)                 =    -829.90518658 
 Total Free Energy (H0 + V/2 + non-elec)     =    -829.94718383 hartree
                                             = -520799.71828561 kcal/mol
***********************************************************

 SCF   energy in the final basis set =     -829.9471838340
 Total energy in the final basis set =     -829.9471838340
 
 --------------------------------------------------------------
 
                    Orbital Energies (a.u.)
 --------------------------------------------------------------
 
 Alpha MOs
 -- Occupied --
-14.815 -10.574 -10.573 -10.544 -10.544 -10.543 -10.540 -10.538
-10.536 -10.535 -10.530 -10.521 -10.519 -10.514 -10.513 -10.471
-10.471 -10.470 -10.470 -10.470 -10.468  -1.213  -1.044  -1.044
 -0.983  -0.977  -0.952  -0.914  -0.892  -0.892  -0.827  -0.812
 -0.812  -0.811  -0.805  -0.779  -0.765  -0.736  -0.700  -0.696
 -0.682  -0.658  -0.616  -0.611  -0.609  -0.588  -0.586  -0.584
 -0.578  -0.565  -0.548  -0.546  -0.537  -0.531  -0.521  -0.515
 -0.506  -0.501  -0.492  -0.482  -0.477  -0.474  -0.473  -0.472
 -0.459  -0.459  -0.435  -0.435  -0.431  -0.430  -0.419  -0.417
 -0.411  -0.375  -0.337  -0.334
 -- Virtual --
 -0.094  -0.063  -0.040  -0.017   0.061   0.079   0.081   0.102
  0.104   0.105   0.109   0.129   0.137   0.143   0.143   0.150
  0.151   0.153   0.155   0.162   0.168   0.175   0.181   0.181
  0.182   0.183   0.190   0.195   0.199   0.206   0.211   0.212
  0.223   0.223   0.224   0.226   0.231   0.238   0.246   0.248
  0.249   0.257   0.278   0.292   0.306   0.314   0.346   0.352
  0.361   0.377   0.399   0.426   0.430   0.432   0.442   0.453
  0.461   0.462   0.468   0.483   0.490   0.492   0.495   0.499
  0.507   0.508   0.513   0.518   0.535   0.538   0.545   0.550
  0.556   0.559   0.559   0.576   0.580   0.585   0.590   0.594
  0.601   0.601   0.623   0.631   0.641   0.655   0.675   0.684
  0.702   0.706   0.708   0.715   0.716   0.722   0.731   0.744
  0.755   0.771   0.772   0.778   0.790   0.796   0.827   0.835
  0.840   0.841   0.861   0.873   0.890   0.899   0.913   0.921
  0.938   0.950   0.970   0.972   0.983   0.985   0.989   0.990
  0.992   0.992   0.994   0.995   1.005   1.008   1.014   1.031
  1.031   1.038   1.048   1.052   1.058   1.059   1.062   1.070
  1.080   1.095   1.118   1.130   1.139   1.153   1.165   1.170
  1.203   1.221   1.233   1.238   1.271   1.277   1.285   1.290
  1.312   1.319   1.329   1.346   1.348   1.388   1.412   1.417
  1.435   1.440   1.456   1.462   1.469   1.479   1.485   1.486
  1.496   1.506   1.556   1.597   1.613   1.644   1.648   1.666
  1.669   1.681   1.732   1.744   1.754   1.756   1.766   1.792
  1.803   1.818   1.833   1.847   1.852   1.864   1.867   1.880
  1.894   1.899   1.923   1.930   1.947   1.977   2.003   2.017
  2.030   2.052   2.057   2.058   2.077   2.077   2.087   2.090
  2.096   2.116   2.120   2.134   2.159   2.178   2.182   2.191
  2.220   2.226   2.240   2.253   2.261   2.263   2.268   2.278
  2.284   2.287   2.290   2.292   2.295   2.295   2.307   2.328
  2.358   2.377   2.381   2.409   2.456   2.472   2.503   2.527
  2.548   2.572   2.587   2.606   2.613   2.622   2.651   2.658
  2.670   2.685   2.686   2.713   2.733   2.736   2.747   2.762
  2.799   2.830   2.861   2.879   2.884   2.984   2.998   3.024
  3.218   3.362   3.373   3.525  13.160  13.365  13.558  13.600
 13.609  13.735  13.793  13.827  13.828  13.860  13.886  13.943
 14.067  14.123  14.145  14.157  14.180  14.251  14.465  14.529
 19.349
 
 Beta MOs
 -- Occupied --
-14.806 -10.576 -10.574 -10.540 -10.540 -10.539 -10.537 -10.536
-10.535 -10.534 -10.530 -10.522 -10.521 -10.514 -10.513 -10.471
-10.471 -10.470 -10.469 -10.469 -10.468  -1.200  -1.039  -1.037
 -0.978  -0.973  -0.949  -0.911  -0.892  -0.884  -0.824  -0.812
 -0.810  -0.810  -0.803  -0.774  -0.763  -0.733  -0.696  -0.694
 -0.680  -0.657  -0.614  -0.607  -0.586  -0.585  -0.584  -0.583
 -0.576  -0.564  -0.544  -0.543  -0.536  -0.531  -0.520  -0.514
 -0.499  -0.492  -0.491  -0.480  -0.473  -0.472  -0.471  -0.459
 -0.458  -0.445  -0.433  -0.433  -0.427  -0.424  -0.418  -0.416
 -0.400  -0.349  -0.334
 -- Virtual --
 -0.222  -0.083  -0.047  -0.016  -0.004   0.065   0.079   0.082
  0.103   0.105   0.110   0.118   0.129   0.138   0.143   0.148
  0.151   0.152   0.153   0.157   0.162   0.169   0.176   0.182
  0.182   0.183   0.185   0.190   0.196   0.200   0.206   0.212
  0.214   0.223   0.223   0.224   0.228   0.232   0.240   0.247
  0.249   0.251   0.259   0.279   0.293   0.306   0.316   0.347
  0.354   0.363   0.379   0.401   0.429   0.432   0.434   0.443
  0.457   0.462   0.463   0.469   0.486   0.491   0.494   0.501
  0.501   0.508   0.513   0.515   0.521   0.536   0.540   0.546
  0.552   0.558   0.562   0.564   0.578   0.583   0.587   0.593
  0.596   0.603   0.605   0.625   0.636   0.643   0.655   0.678
  0.684   0.704   0.709   0.716   0.718   0.719   0.727   0.733
  0.746   0.757   0.771   0.772   0.779   0.792   0.797   0.837
  0.842   0.843   0.853   0.863   0.873   0.892   0.901   0.916
  0.921   0.939   0.952   0.972   0.973   0.984   0.985   0.990
  0.991   0.993   0.993   0.995   0.995   1.005   1.008   1.014
  1.032   1.032   1.038   1.048   1.053   1.059   1.059   1.062
  1.071   1.081   1.097   1.120   1.131   1.141   1.156   1.170
  1.171   1.204   1.226   1.234   1.241   1.275   1.283   1.289
  1.294   1.318   1.322   1.332   1.349   1.356   1.390   1.416
  1.420   1.437   1.441   1.460   1.465   1.470   1.482   1.488
  1.488   1.498   1.509   1.559   1.598   1.614   1.644   1.649
  1.669   1.673   1.689   1.736   1.747   1.754   1.757   1.768
  1.794   1.806   1.819   1.837   1.856   1.858   1.867   1.868
  1.882   1.894   1.900   1.927   1.931   1.948   1.979   2.005
  2.023   2.033   2.054   2.059   2.060   2.078   2.079   2.087
  2.092   2.098   2.117   2.121   2.135   2.161   2.180   2.185
  2.195   2.224   2.227   2.243   2.257   2.264   2.266   2.270
  2.282   2.286   2.289   2.292   2.293   2.296   2.296   2.308
  2.329   2.359   2.382   2.393   2.416   2.457   2.473   2.504
  2.528   2.550   2.577   2.588   2.609   2.615   2.625   2.655
  2.659   2.670   2.686   2.688   2.715   2.736   2.738   2.749
  2.763   2.801   2.831   2.865   2.881   2.888   2.986   3.000
  3.026   3.219   3.364   3.375   3.526  13.161  13.366  13.559
 13.601  13.610  13.736  13.794  13.827  13.829  13.861  13.887
 13.943  14.067  14.123  14.145  14.158  14.181  14.253  14.466
 14.530  19.361
 --------------------------------------------------------------
 
          Ground-State Mulliken Net Atomic Charges

     Atom                 Charge (a.u.)    Spin (a.u.)
  --------------------------------------------------------
      1 H                     0.431427      -0.016550
      2 N                    -0.708396       0.359509
      3 C                     0.345732      -0.088441
      4 C                     0.166182       0.047507
      5 C                     0.182737       0.112262
      6 C                     0.348301      -0.076448
      7 C                    -0.436997      -0.039362
      8 C                     0.217551       0.278811
      9 C                    -0.288496      -0.146471
     10 C                    -0.236052       0.200925
     11 C                    -0.222386       0.238803
     12 C                    -0.318306      -0.146636
     13 C                     0.223807       0.253899
     14 C                    -0.402348       0.026784
     15 H                     0.261565       0.001325
     16 C                    -0.194273      -0.020179
     17 H                     0.268966       0.006366
     18 H                     0.278619      -0.010714
     19 H                     0.279962      -0.012656
     20 H                     0.276094       0.006015
     21 C                    -0.192221      -0.018861
     22 H                     0.258249      -0.001911
     23 C                    -0.657537       0.000310
     24 C                    -0.617397       0.009094
     25 C                    -0.616749       0.009154
     26 C                    -0.659501       0.000686
     27 C                    -0.614032       0.009537
     28 H                     0.228496       0.000056
     29 H                     0.254804      -0.000410
     30 H                     0.229201       0.000056
     31 H                     0.233106      -0.000356
     32 H                     0.227424      -0.000498
     33 H                     0.242227       0.002443
     34 C                    -0.614441       0.009439
     35 H                     0.236612      -0.000399
     36 H                     0.222274      -0.000449
     37 H                     0.244132       0.003344
     38 H                     0.231701       0.000138
     39 H                     0.251752      -0.000315
     40 H                     0.232022       0.000137
     41 H                     0.236745      -0.000390
     42 H                     0.243862       0.003323
     43 H                     0.222679      -0.000454
     44 H                     0.233541      -0.000351
     45 H                     0.242260       0.002419
     46 H                     0.227103      -0.000494
  --------------------------------------------------------
  Sum of atomic charges =     1.000000
  Sum of spin   charges =     1.000000

 -----------------------------------------------------------------
                    Cartesian Multipole Moments
 -----------------------------------------------------------------
    Charge (ESU x 10^10)
                 4.8032
    Dipole Moment (Debye)
         X      10.1174      Y     -11.4113      Z      19.3489
       Tot      24.6365
    Quadrupole Moments (Debye-Ang)
        XX     -80.8133     XY     -37.3889     YY     -59.1168
        XZ      54.2636     YZ     -24.7675     ZZ     -22.4028
    Octopole Moments (Debye-Ang^2)
       XXX    -928.1084    XXY     154.7668    XYY    -132.9815
       YYY     608.8618    XXZ    -346.9294    XYZ    -116.9631
       YYZ    -399.2967    XZZ     -36.3920    YZZ     283.4458
       ZZZ   -1087.6075
    Hexadecapole Moments (Debye-Ang^3)
      XXXX   -7509.6046   XXXY    2670.0426   XXYY   -2173.6523
      XYYY    1955.9109   YYYY   -8984.0278   XXXZ   -4310.3361
      XXYZ     358.0288   XYYZ    -992.5563   YYYZ    1858.2055
      XXZZ   -3238.7371   XYZZ     809.7153   YYZZ   -4522.7417
      XZZZ   -2982.0826   YZZZ    2892.5922   ZZZZ  -14898.3598
 -----------------------------------------------------------------
 Calculating analytic gradient of the SCF energy
 -1.429875554828901E-004 -1.429958773447144E-004
 -1.429925842344606E-004 -1.429908403079151E-004
 -1.429896821056786E-004 -1.429937504520205E-004
 -1.429921914690594E-004 -1.429912497625153E-004
 -1.429918009556511E-004 -1.429916536079159E-004
 -1.429920901570930E-004 -1.429913645806447E-004
 -1.429908798087400E-004 -1.429925616144525E-004
 -1.429945253453520E-004 -1.429889090653036E-004
 -1.429923588972762E-004 -1.429910932696943E-004
 -1.429987437788183E-004 -1.429846857382060E-004
 -1.429883890463870E-004 -1.429950498209591E-004
 -1.429934524025525E-004 -1.429899925839802E-004
 -1.429986253800115E-004 -1.429848050409248E-004
 -1.429928721987664E-004 -1.429905666395759E-004
 -1.429970943408098E-004 -1.429863451529825E-004
 -1.429918769451077E-004 -1.429915668937865E-004
 -1.429891981679019E-004 -1.429942419552357E-004
 -1.429893744346122E-004 -1.429940668250580E-004
 -1.430057509427169E-004 -1.429776854812088E-004
 -1.429718948725544E-004 -1.430115309900683E-004
 -1.429872710539461E-004 -1.429961646907607E-004
 -1.429840673507805E-004 -1.429993707642060E-004
 -1.429987427722121E-004 -1.429847124155313E-004
 -1.429908416103345E-004 -1.429925997837451E-004
 -1.429830492025908E-004 -1.430003814782572E-004
 -1.429901658265600E-004 -1.429932663164410E-004
 -1.429831154409547E-004 -1.430003244957390E-004
 -1.429902578785023E-004 -1.429931629802308E-004
 -1.430081592120678E-004 -1.429752801623373E-004
 -1.430038004964920E-004 -1.429796306406947E-004
 -1.429945705388983E-004 -1.429888475113981E-004
 -1.429743972322804E-004 -1.430090343604531E-004
 -1.429810513168596E-004 -1.430023869965058E-004
 -1.429828687654710E-004 -1.430005645687847E-004
 -1.429995433269281E-004 -1.429838891803748E-004
 -1.429896426323396E-004 -1.429937960217158E-004
 -1.429856246048298E-004 -1.429978120595052E-004
 -1.429874749181548E-004 -1.429959679686346E-004
 -1.429829657171904E-004 -1.430004870445688E-004
 -1.430015646449436E-004 -1.429818706202579E-004
 -1.430051858750475E-004 -1.429782368593948E-004
 -1.430089903004252E-004 -1.429744491524017E-004
 -1.429968855210038E-004 -1.429865264870547E-004
 -1.429889415903493E-004 -1.429944688352576E-004
 -1.429935712230245E-004 -1.429898409638071E-004
 -1.430019669752187E-004 -1.429814551163797E-004
 -1.429941427049503E-004 -1.429892926978191E-004
 -1.430041552564978E-004 -1.429792638565015E-004
 -1.429888744637121E-004 -1.429945510712559E-004
 -1.429991179050266E-004 -1.429842984387513E-004
 -1.429959314774909E-004 -1.429874993499657E-004
 -1.429945528228631E-004 -1.429888680989570E-004
 -1.429911853203135E-004 -1.429922448066061E-004
 -1.429945555289710E-004 -1.429888643941810E-004
 -1.429956632783919E-004 -1.429877554744950E-004
 -1.429897460961169E-004 -1.429936749466225E-004
 -1.429944838718424E-004 -1.429889480974855E-004
 -1.429905290802004E-004 -1.429928977184250E-004
 -1.429860549032400E-004 -1.429973667022006E-004
 -1.429870686343725E-004 -1.429963526310774E-004
 -1.430081485735810E-004 -1.429752792176514E-004
 -1.429874772467716E-004 -1.429959452294599E-004
 -1.430035366962337E-004 -1.429798916612472E-004
 -1.429988698452188E-004 -1.429845404460440E-004
 -1.429901931884981E-004 -1.429932121318702E-004
 -1.429962402813265E-004 -1.429871749813178E-004
 -1.429826234315234E-004 -1.430007915341539E-004
 -1.429817677186071E-004 -1.430016424928514E-004
 -1.429770157140629E-004 -1.430064100167641E-004
 -1.429742555010462E-004 -1.430091614460104E-004
 -1.429922872925348E-004 -1.429911403294037E-004
 -1.429935846592327E-004 -1.429898337341415E-004
 -1.429872213402682E-004 -1.429961763078211E-004
 -1.430022636291654E-004 -1.429811613333953E-004
 -1.429797001559140E-004 -1.430037401578014E-004
 -1.429909719144034E-004 -1.429924360280421E-004
 -1.429804543058684E-004 -1.430029872989344E-004
 -1.429811492976934E-004 -1.430022543580575E-004
 -1.429777813496156E-004 -1.430056268982949E-004
 -1.429836252359911E-004 -1.429998256367733E-004
 -1.429953212150948E-004 -1.429880715480398E-004
 -1.429863098741735E-004 -1.429971045155389E-004
 -1.429874128616059E-004 -1.429959947749195E-004
 -1.429985841849743E-004 -1.429848019902111E-004
 -1.429917478030812E-004 -1.429916736361058E-004
 -1.429903554370195E-004 -1.429930808759026E-004
 -1.429910976287391E-004 -1.429923307243240E-004
 -1.429966244611139E-004 -1.429867553107207E-004
 -1.429969328082959E-004 -1.429864775553514E-004
 -1.429864265651729E-004 -1.429969890074560E-004
 -1.429854050915940E-004 -1.429980027515546E-004
 -1.429854765730564E-004 -1.429979399386703E-004
 -1.429947459517586E-004 -1.429886404392358E-004
 -1.429876009019034E-004 -1.429958005425628E-004
 -1.429850692079436E-004 -1.429983501038509E-004
 -1.429898633445463E-004 -1.429935325461880E-004
 -1.429948431061480E-004 -1.429885683908257E-004
 -1.429860818867181E-004 -1.429973520730525E-004
 -1.429885540742015E-004 -1.429948688122645E-004
 -1.429947387011583E-004 -1.429886672064374E-004
 -1.429993563062032E-004 -1.429840724525296E-004
 -1.429767605358355E-004 -1.430066565443462E-004
 -1.429846958171477E-004 -1.429987083757954E-004
 -1.429978019446751E-004 -1.429855972143865E-004
 -1.429966132933280E-004 -1.429867889547023E-004
 -1.429925417701079E-004 -1.429908785927377E-004
 -1.429914494535318E-004 -1.429919750582316E-004
 -1.430025840246185E-004 -1.429808116006134E-004
 -1.429925772656302E-004 -1.429908423113944E-004
 -1.429970011024390E-004 -1.429864351551896E-004
 -1.429925163608462E-004 -1.429909046418882E-004
 -1.429890827864460E-004 -1.429943248821414E-004
 -1.429925834397075E-004 -1.429908083100172E-004
 -1.429959162410157E-004 -1.429874951960970E-004
 -1.429925683220527E-004 -1.429908475735469E-004
 -1.429968249330699E-004 -1.429866034531658E-004
 -1.429966299033024E-004 -1.429867880311485E-004
 -1.429932810649207E-004 -1.429901279791622E-004
 -1.429963440945067E-004 -1.429870576054141E-004
 -1.429911056989145E-004 -1.429922948036612E-004
 -1.429894378408411E-004 -1.429939610338828E-004
 -1.430020398905920E-004 -1.429813617079655E-004
 -1.429911707625601E-004 -1.429922361022765E-004
 -1.429893005978350E-004 -1.429941185990639E-004
 -1.429941617890811E-004 -1.429892682636517E-004
 -1.429962935830457E-004 -1.429871330845373E-004
 -1.430004067921631E-004 -1.429829873066848E-004
 -1.429982116572040E-004 -1.429852124907890E-004
 -1.429933878951487E-004 -1.429900334834328E-004
 -1.429950218503419E-004 -1.429883758740472E-004
 -1.429942675900768E-004 -1.429891340285901E-004
 -1.429840063570548E-004 -1.429994043194461E-004
 -1.429936486615353E-004 -1.429897682303695E-004
 -1.429852239949024E-004 -1.429982043549802E-004
 -1.429899536438528E-004 -1.429934690808053E-004
 -1.429928111203548E-004 -1.429905939135487E-004
 -1.429899898780100E-004 -1.429934100238924E-004
 -1.429844667594067E-004 -1.429989449424098E-004
 Gradient of SCF Energy
            1           2           3           4           5           6
    1  -0.0306448   0.0089722   0.0125916  -0.0210053  -0.0096630   0.0138470
    2   0.0088867  -0.0037209   0.0008301   0.0346301  -0.0232174  -0.0059394
    3  -0.0196801   0.0041585   0.0126272   0.0095114  -0.0266761   0.0084218
            7           8           9          10          11          12
    1  -0.0002632   0.0069747   0.0081370   0.0063780   0.0063990   0.0005431
    2   0.0047989   0.0120317   0.0019423  -0.0126579   0.0038535  -0.0041844
    3   0.0027887   0.0156490   0.0088271  -0.0050642   0.0076624  -0.0026908
           13          14          15          16          17          18
    1   0.0207004   0.0026869   0.0153193  -0.0030760  -0.0072709  -0.0171651
    2  -0.0088510  -0.0129348  -0.0108933  -0.0011582   0.0153095   0.0098548
    3   0.0118377  -0.0083816   0.0051404  -0.0039014   0.0059067  -0.0072071
           19          20          21          22          23          24
    1  -0.0158531  -0.0036108  -0.0025987   0.0134389   0.0079966   0.0025738
    2  -0.0000757  -0.0126367   0.0037509   0.0020920   0.0133024   0.0082779
    3  -0.0137829  -0.0125213  -0.0004168   0.0136678   0.0166698  -0.0258482
           25          26          27          28          29          30
    1  -0.0233939  -0.0174359   0.0188718  -0.0053148   0.0069683   0.0098920
    2  -0.0130410   0.0157790  -0.0002682  -0.0153922   0.0069740  -0.0014777
    3   0.0039412  -0.0024262  -0.0187385   0.0036648   0.0119386  -0.0133779
           31          32          33          34          35          36
    1  -0.0047947  -0.0129421   0.0069949  -0.0066405  -0.0153112   0.0041218
    2  -0.0151334   0.0084860   0.0060894  -0.0235806  -0.0039801   0.0110392
    3   0.0026612  -0.0042462   0.0117860   0.0097247   0.0027292   0.0118320
           37          38          39          40          41          42
    1   0.0102624  -0.0150550   0.0104189   0.0000897  -0.0006873   0.0103333
    2  -0.0112588  -0.0046975  -0.0113337   0.0079757   0.0078840  -0.0111422
    3   0.0011139   0.0032818   0.0010689  -0.0139809  -0.0138828   0.0008511
           43          44          45          46
    1   0.0043107   0.0092422   0.0074377  -0.0127760
    2   0.0110877  -0.0023685   0.0065080   0.0085597
    3   0.0115109  -0.0129642   0.0113491  -0.0045348
 Max gradient component =       3.463E-02
 RMS gradient           =       1.140E-02
 Computing fast IEFPCM-SWIG gradient.
 Updating gradient with PCM contributions...
 -- total gradient after adding PCM contribution --
---------------------------------------------------
  Atom         X              Y              Z     
---------------------------------------------------
   1      -0.004885       0.001377      -0.003102
   2       0.001051      -0.001287      -0.000520
   3       0.009126       0.002779       0.011165
   4      -0.016370       0.018158       0.001012
   5      -0.011135      -0.009743      -0.017316
   6       0.010302      -0.006366       0.005034
   7       0.007237      -0.001266       0.004890
   8      -0.000634      -0.001109      -0.001834
   9      -0.000388       0.007308       0.005567
  10      -0.000865      -0.004328      -0.004658
  11      -0.000965       0.001862       0.000095
  12      -0.002026      -0.006477      -0.006675
  13       0.002125       0.004228       0.005314
  14       0.007970      -0.005245       0.002192
  15      -0.000560      -0.000955      -0.001134
  16      -0.003575       0.000528      -0.003016
  17      -0.000402      -0.000114      -0.000407
  18      -0.000145       0.000400       0.000233
  19      -0.000048      -0.000181      -0.000132
  20      -0.000609       0.000152      -0.000362
  21      -0.001155       0.003612       0.000677
  22      -0.001093       0.001223      -0.000032
  23       0.001453      -0.001152       0.000346
  24       0.001524      -0.001093      -0.003045
  25      -0.001239      -0.003131       0.000168
  26       0.001005       0.001183       0.002007
  27       0.003330       0.000728      -0.000537
  28      -0.001746      -0.003338       0.000574
  29       0.001544       0.001312       0.002465
  30       0.001821      -0.000126      -0.003342
  31      -0.001013      -0.003732       0.000199
  32      -0.002812       0.001526      -0.001488
  33       0.001173       0.001224       0.002658
  34       0.000445      -0.001944       0.002696
  35      -0.003614      -0.000304       0.000583
  36       0.000824       0.002529       0.002455
  37       0.002246      -0.002214       0.000758
  38      -0.003479      -0.000387       0.001407
  39       0.002111      -0.002598       0.000104
  40       0.000061       0.002641      -0.002672
  41      -0.000509       0.002107      -0.002915
  42       0.002439      -0.002067       0.000380
  43       0.000812       0.002307       0.002441
  44       0.002061      -0.001041      -0.003122
  45       0.001646       0.001648       0.002193
  46      -0.003038       0.001367      -0.001305
---------------------------------------------------
 Number of fixed atoms: 0
 Gradient time:  CPU 104.24 s  wall 39.91 s
 Geometry Optimization Parameters
   NAtoms,    NIC,     NZ,  NCons,   NDum,   NFix, NCnnct, MaxDiis
       46     353       0       0       0       0       0       0

 Cartesian Hessian Update
 Hessian Updated using BFGS Update


** GEOMETRY OPTIMIZATION IN DELOCALIZED INTERNAL COORDINATES **
   Searching for a Minimum

   Optimization Cycle:   2

                       Coordinates (Angstroms)
     ATOM                X               Y               Z
      1  H        -0.0135784015   -1.7147263397    2.6208705861
      2  N         0.8182681876   -1.9593518261    3.1565564363
      3  C         1.5774776627   -3.0756396441    2.9614540269
      4  C         2.6209826974   -3.0650964354    3.8862550069
      5  C         2.4636959791   -1.8808462554    4.6703646359
      6  C         1.3306259884   -1.2257283785    4.1845423551
      7  C         3.1736514436   -1.3501971729    5.7244916647
      8  C         2.7365423689   -0.1436612216    6.3043346614
      9  C         1.5848539680    0.4966427884    5.7919395156
     10  C         0.8700329929   -0.0291565405    4.7314793243
     11  C         1.4158726248   -4.1073861345    2.0366285574
     12  C         2.3351879814   -5.1481869204    2.0640937537
     13  C         3.3976883978   -5.1665192838    2.9873240761
     14  C         3.5320894803   -4.0979537642    3.9040433717
     15  H         4.0462712458   -1.8696553383    6.0905092815
     16  C         3.4737494315    0.4830808187    7.4725530246
     17  H         1.2419354224    1.4216633609    6.2324318648
     18  H        -0.0116093896    0.4708149183    4.3518546137
     19  H         0.6015601393   -4.1102822899    1.3233088118
     20  H         2.2103268329   -5.9519946545    1.3547576816
     21  C         4.4012659048   -6.3057410043    3.0374970188
     22  H         4.3371135424   -4.0882503869    4.6253877127
     23  C         4.1049303859   -7.3851719478    1.9909765226
     24  C         4.3515974039   -6.9547229651    4.4312074648
     25  C         5.8099245600   -5.7481109390    2.7762009919
     26  C         4.7005078439   -0.3344992402    7.9001001853
     27  C         2.5164447870    0.5712227359    8.6708507724
     28  H         4.4235101777   -1.3443696941    8.2271121055
     29  H         5.1951427608    0.1576259413    8.7430342761
     30  H         5.4367726858   -0.4183028955    7.0911251338
     31  H         2.1684014543   -0.4271649498    8.9615796925
     32  H         1.6335486171    1.1811236801    8.4512965634
     33  H         3.0253642631    1.0186978793    9.5311153912
     34  C         3.9492507234    1.8849922007    7.0619642137
     35  H         3.3486698059   -7.3379294826    4.6515447039
     36  H         4.6222251386   -6.2508002274    5.2266515821
     37  H         5.0584553000   -7.7895237941    4.4833880084
     38  H         3.1168566724   -7.8343556789    2.1466251782
     39  H         4.8465464338   -8.1869813209    2.0620639405
     40  H         4.1512124382   -6.9808504836    0.9729364260
     41  H         5.8635325099   -5.2616625454    1.7956489563
     42  H         6.5456951350   -6.5591638016    2.7987477169
     43  H         6.1134119030   -5.0135914390    3.5310794833
     44  H         4.6264661714    1.8279307082    6.2014864611
     45  H         4.4871225000    2.3608318547    7.8887294801
     46  H         3.1147558280    2.5391781094    6.7870367684
   Point Group: c1    Number of degrees of freedom:   132


   Energy is   -829.947183834

 Hessian Updated using BFGS Update

116 Hessian modes will be used to form the next step
  Hessian Eigenvalues:
     0.002287    0.002985    0.003093    0.003621    0.003723    0.003774
     0.004233    0.004366    0.013311    0.013462    0.018934    0.019175
     0.019645    0.019786    0.021818    0.022368    0.022480    0.022591
     0.022613    0.022726    0.022936    0.023583    0.024037    0.024324
     0.025785    0.025854    0.026390    0.050078    0.050172    0.051235
     0.051679    0.053150    0.053469    0.053637    0.054199    0.054342
     0.054749    0.054800    0.054855    0.055029    0.055193    0.055543
     0.056258    0.056381    0.056414    0.145244    0.147210    0.152432
     0.154829    0.159168    0.159994    0.159995    0.159997    0.159998
     0.159999    0.159999    0.160000    0.160849    0.223970    0.224697
     0.233087    0.234981    0.244798    0.246410    0.248670    0.249791
     0.249986    0.255852    0.274982    0.279355    0.280137    0.283440
     0.284158    0.284512    0.287878    0.292501    0.322817    0.322993
     0.323366    0.323590    0.324322    0.324424    0.324579    0.324642
     0.324895    0.325022    0.325080    0.325178    0.325214    0.325490
     0.325634    0.326713    0.326919    0.328190    0.357122    0.357189
     0.358679    0.359041    0.361635    0.361809    0.378453    0.389732
     0.405801    0.409161    0.411190    0.420564    0.430851    0.439288
     0.448294    0.467294    0.468538    0.477288    0.483389    0.504323
     0.534446    0.562061

 Minimum Search - Taking Simple RFO Step
 Searching for Lamda that Minimizes Along All modes
 Value Taken    Lamda =  -0.00401937
 Step Taken.  Stepsize is  0.158072

                             Maximum     Tolerance    Cnvgd?
         Gradient           0.013540      0.000075      NO
         Displacement       0.051884      0.001200      NO
         Energy change     -0.025607      0.000000      NO


 New Cartesian Coordinates Obtained by Inverse Iteration

 Displacement from previous Coordinates is:  0.830707
 Adding empirical dispersion correction 
 ----------------------------------------------------------------
 Doing -D3(BJ) with
 s6 =   1.00000
 s8 =   0.00000
 a1 =   0.48600
 a2 =   4.50000
 -D3 energy including 3body term =     -0.0334751733 hartrees
 ----------------------------------------------------------------
 Adding gCP correction 
 ----------------------------------------------------------------
 gCP energy =      0.0614562333 hartrees
 ----------------------------------------------------------------
             Standard Nuclear Orientation (Angstroms)
    I     Atom           X                Y                Z
 ----------------------------------------------------------------
    1      H       0.0409539881    -1.7072970791     2.6324440496
    2      N       0.8652868446    -1.9545055995     3.1632448578
    3      C       1.6144493862    -3.0736685033     2.9588527981
    4      C       2.6687083001    -3.0832119498     3.8925441688
    5      C       2.5121776079    -1.8823034720     4.6925307924
    6      C       1.3687707385    -1.2255797876     4.1939963905
[...]
     43  H         6.1067664044   -5.0772922784    3.5002683463
     44  H         4.5370368698    1.9341993705    6.2182541219
     45  H         4.4048258329    2.4261593158    7.9069697130
     46  H         3.0170854633    2.5752081047    6.8399853819
   Point Group: c1    Number of degrees of freedom:   132


   Energy is   -829.949128678

 Hessian Updated using BFGS Update

126 Hessian modes will be used to form the next step
  Hessian Eigenvalues:
     0.003005    0.003102    0.003620    0.003679    0.003781    0.004405
     0.008012    0.009591    0.015453    0.016109    0.018933    0.019639
     0.019983    0.020568    0.021045    0.022370    0.022486    0.022505
     0.022780    0.023140    0.023449    0.023638    0.024109    0.024833
     0.025461    0.025581    0.026757    0.050656    0.050969    0.051519
     0.053567    0.053683    0.054278    0.054468    0.054782    0.054825
     0.054984    0.055295    0.055487    0.055802    0.056154    0.056415
     0.057114    0.060408    0.066900    0.077821    0.147160    0.154942
     0.156241    0.157264    0.158319    0.158706    0.159885    0.159983
     0.159994    0.159997    0.159999    0.159999    0.160000    0.160000
     0.160000    0.160118    0.160653    0.161672    0.162905    0.166486
     0.166923    0.172201    0.175902    0.224430    0.225736    0.228583
     0.235609    0.245507    0.246759    0.250719    0.253316    0.266778
     0.271978    0.277989    0.280812    0.281878    0.283776    0.287068
     0.288305    0.317923    0.322775    0.323067    0.323514    0.323716
     0.324135    0.324341    0.324517    0.324600    0.324760    0.324933
     0.325079    0.325224    0.325571    0.325674    0.326556    0.327665
     0.329302    0.337116    0.337558    0.354837    0.357127    0.357190
     0.359215    0.361416    0.362285    0.368997    0.390157    0.404429
     0.408649    0.417159    0.420032    0.432232    0.440840    0.442413
     0.470148    0.475044    0.483368    0.485899    0.505068    0.556928

 Minimum Search - Taking Simple RFO Step
 Searching for Lamda that Minimizes Along All modes
 Value Taken    Lamda =   0.00000000
 Step Taken.  Stepsize is  0.002303

                             Maximum     Tolerance    Cnvgd?
         Gradient           0.000038      0.000075     YES
         Displacement       0.000938      0.001200     YES
         Energy change     -0.000001      0.000000      NO

 Final energy is   -829.949128678158     


 ******************************
 **  OPTIMIZATION CONVERGED  **
 ******************************

                       Coordinates (Angstroms)
     ATOM                X               Y               Z
      1  H         0.0483423997   -1.7030565771    2.6343695310
      2  N         0.8736504423   -1.9501719821    3.1666771054
      3  C         1.6251110939   -3.0711441023    2.9558555223
      4  C         2.6802423409   -3.0808271106    3.8893005116
      5  C         2.5187237778   -1.8778029568    4.6952222173
      6  C         1.3706407313   -1.2228856957    4.1935261674
      7  C         3.1995139977   -1.3318111948    5.7523977118
      8  C         2.7449639208   -0.1291341175    6.3280509341
      9  C         1.5870904568    0.4870573601    5.8058122897
     10  C         0.8877245993   -0.0346725574    4.7445595011
     11  C         1.4427948806   -4.0907684028    2.0324671505
     12  C         2.3473025278   -5.1438469124    2.0589782776
     13  C         3.4032091883   -5.1951946455    2.9690434525
     14  C         3.5584378117   -4.1314603456    3.8950339698
     15  H         4.0791498878   -1.8273417554    6.1376081702
     16  C         3.4629676815    0.5236021368    7.4923129168
     17  H         1.2312600977    1.4059146759    6.2506008000
     18  H         0.0018644244    0.4516670728    4.3580566686
     19  H         0.6264125250   -4.0789222097    1.3219888239
     20  H         2.2109427227   -5.9445619988    1.3475550066
     21  C         4.3846217876   -6.3532754314    3.0099685811
     22  H         4.3691857027   -4.1568561535    4.6116922568
     23  C         4.0785944472   -7.4175533197    1.9569880467
     24  C         4.3222394277   -7.0113000292    4.3967620064
     25  C         5.7995953940   -5.8124208584    2.7553977268
     26  C         4.7192406085   -0.2413649523    7.9066867771
     27  C         2.5066734712    0.5794673433    8.6932955506
     28  H         4.4956148410   -1.2542352493    8.2463803523
     29  H         5.1992720205    0.2742751282    8.7384618953
     30  H         5.4526988922   -0.3002023803    7.1004139798
     31  H         2.1923358259   -0.4203007671    8.9954631910
     32  H         1.6102893935    1.1641001897    8.4853561246
     33  H         3.0102986187    1.0437866808    9.5422863643
     34  C         3.8735535596    1.9466173427    7.0839459990
     35  H         3.3264754025   -7.4050464789    4.6042387178
     36  H         4.5859639948   -6.3218828711    5.1995364366
     37  H         5.0270163945   -7.8428000143    4.4396522442
     38  H         3.0948660676   -7.8684616798    2.0983213759
     39  H         4.8130614519   -8.2198983915    2.0297504283
     40  H         4.1352017360   -7.0222605636    0.9413940571
     41  H         5.8719364470   -5.3457474975    1.7722589231
     42  H         6.5195544370   -6.6313232402    2.7920346737
     43  H         6.1067664044   -5.0772922784    3.5002683463
     44  H         4.5370368698    1.9341993705    6.2182541219
     45  H         4.4048258329    2.4261593158    7.9069697130
     46  H         3.0170854633    2.5752081047    6.8399853819

Z-matrix Print:
$molecule
1 2
N 
H  1 1.012695
C  1 1.352909 2 124.551861
C  1 1.365913 2 124.574980 3 179.124416 0
C  4 1.387631 1 129.305400 2 -0.972344 0
H  5 1.082312 4 121.862867 1 1.220169 0
C  5 1.388456 4 117.323228 1 -178.254354 0
H  7 1.079751 5 117.878487 4 179.702788 0
C  7 1.394917 5 122.242333 4 0.038942 0
C  3 1.395957 1 129.056937 2 0.716362 0
H  10 1.081970 3 121.656833 1 -0.530622 0
C  10 1.373889 3 116.875101 1 179.209136 0
H  12 1.081088 10 118.230445 3 -179.892037 0
C  4 1.408799 1 108.385919 2 -179.577592 0
C  14 1.369339 4 119.233851 1 178.510884 0
H  15 1.082384 14 120.076354 4 -179.492580 0
C  12 1.411771 10 122.512736 3 0.235679 0
C  17 1.408696 12 119.085502 10 -0.616460 0
H  18 1.080600 17 120.563813 12 -179.576757 0
C  18 1.370840 17 119.665381 12 0.372343 0
C  17 1.515619 12 118.994478 10 179.371628 0
C  9 1.518551 7 122.335083 5 179.311567 0
C  21 1.528104 17 112.468487 12 -178.078639 0
H  23 1.090030 21 109.399814 17 179.499513 0
H  23 1.091470 21 112.365007 17 -61.858363 0
H  23 1.091558 21 112.277573 17 60.799500 0
C  22 1.528106 9 112.528541 7 0.183517 0
H  27 1.090181 22 109.370200 9 179.824887 0
H  27 1.091280 22 112.247950 9 61.123360 0
H  27 1.091336 22 112.274297 9 -61.397465 0
C  22 1.536060 9 108.804907 7 120.321473 0
H  31 1.090678 22 111.170468 9 -61.282417 0
H  31 1.090688 22 112.554826 9 59.990477 0
H  31 1.091002 22 109.757033 9 179.398900 0
C  21 1.536222 17 108.741804 12 61.677417 0
H  35 1.090201 21 112.471156 17 -60.726878 0
H  35 1.090711 21 111.262965 17 60.467907 0
H  35 1.090879 21 109.664912 17 179.779946 0
C  22 1.536256 9 108.949743 7 -120.058508 0
H  39 1.090547 22 112.575699 9 -60.454480 0
H  39 1.090701 22 111.310195 9 60.968375 0
H  39 1.090845 22 109.618370 9 -179.749950 0
C  21 1.536332 17 108.743243 12 -57.979880 0
H  43 1.090037 21 112.559328 17 61.366480 0
H  43 1.090678 21 109.684788 17 -179.199645 0
H  43 1.090773 21 111.282861 17 -59.861387 0
$end

 
 --------------------------------------------------------------
 
                    Orbital Energies (a.u.)
 --------------------------------------------------------------
 
 Alpha MOs
 -- Occupied --
-14.814 -10.578 -10.572 -10.545 -10.544 -10.541 -10.540 -10.539
-10.538 -10.533 -10.530 -10.521 -10.516 -10.514 -10.512 -10.469
-10.469 -10.469 -10.468 -10.468 -10.465  -1.212  -1.045  -1.043
 -0.982  -0.977  -0.953  -0.916  -0.893  -0.891  -0.828  -0.814
 -0.813  -0.812  -0.806  -0.782  -0.763  -0.735  -0.700  -0.696
 -0.683  -0.660  -0.615  -0.611  -0.610  -0.589  -0.586  -0.585
 -0.578  -0.564  -0.549  -0.546  -0.538  -0.532  -0.522  -0.515
 -0.507  -0.501  -0.491  -0.479  -0.477  -0.474  -0.472  -0.471
 -0.461  -0.459  -0.436  -0.434  -0.432  -0.430  -0.421  -0.418
 -0.411  -0.376  -0.336  -0.334
 -- Virtual --
 -0.092  -0.064  -0.039  -0.017   0.063   0.079   0.082   0.102
  0.105   0.106   0.112   0.127   0.138   0.141   0.142   0.151
  0.153   0.155   0.155   0.162   0.169   0.175   0.182   0.183
  0.184   0.184   0.191   0.195   0.200   0.207   0.213   0.215
  0.223   0.224   0.226   0.227   0.233   0.238   0.246   0.248
  0.249   0.260   0.281   0.291   0.305   0.316   0.347   0.350
  0.360   0.376   0.401   0.423   0.426   0.430   0.442   0.452
  0.462   0.463   0.466   0.483   0.489   0.493   0.495   0.497
  0.507   0.507   0.515   0.519   0.533   0.539   0.546   0.551
  0.556   0.559   0.561   0.576   0.580   0.584   0.592   0.593
  0.600   0.601   0.624   0.631   0.642   0.655   0.672   0.681
  0.705   0.708   0.710   0.716   0.718   0.722   0.732   0.743
  0.754   0.774   0.776   0.777   0.794   0.798   0.827   0.832
  0.842   0.845   0.861   0.872   0.891   0.900   0.915   0.920
  0.936   0.951   0.969   0.970   0.985   0.986   0.992   0.993
  0.995   0.996   0.996   0.998   1.005   1.011   1.015   1.033
  1.034   1.039   1.048   1.053   1.062   1.063   1.067   1.073
  1.082   1.096   1.122   1.126   1.142   1.153   1.167   1.171
  1.206   1.219   1.229   1.237   1.267   1.275   1.285   1.290
  1.312   1.316   1.330   1.345   1.349   1.388   1.413   1.421
  1.436   1.439   1.459   1.463   1.470   1.483   1.484   1.490
  1.493   1.516   1.555   1.598   1.610   1.645   1.648   1.666
  1.668   1.680   1.730   1.735   1.751   1.753   1.760   1.788
  1.799   1.823   1.826   1.847   1.848   1.866   1.868   1.882
  1.899   1.904   1.919   1.931   1.942   1.978   2.006   2.016
  2.027   2.053   2.061   2.066   2.074   2.079   2.085   2.091
  2.095   2.114   2.122   2.132   2.157   2.175   2.177   2.194
  2.216   2.224   2.239   2.257   2.268   2.269   2.271   2.283
  2.291   2.291   2.293   2.299   2.302   2.304   2.313   2.335
  2.360   2.375   2.381   2.413   2.458   2.472   2.504   2.532
  2.543   2.565   2.586   2.611   2.617   2.628   2.655   2.657
  2.672   2.685   2.687   2.714   2.731   2.737   2.748   2.760
  2.802   2.833   2.857   2.880   2.886   2.993   3.002   3.022
  3.221   3.348   3.372   3.520  13.163  13.359  13.563  13.598
 13.607  13.741  13.795  13.831  13.832  13.865  13.887  13.935
 14.071  14.130  14.148  14.161  14.183  14.231  14.470  14.520
 19.349
 
 Beta MOs
 -- Occupied --
-14.805 -10.579 -10.573 -10.542 -10.541 -10.537 -10.537 -10.537
-10.536 -10.533 -10.530 -10.523 -10.518 -10.514 -10.512 -10.469
-10.469 -10.469 -10.468 -10.468 -10.465  -1.199  -1.040  -1.036
 -0.977  -0.974  -0.949  -0.913  -0.893  -0.883  -0.826  -0.813
 -0.812  -0.811  -0.804  -0.777  -0.761  -0.732  -0.697  -0.694
 -0.681  -0.659  -0.613  -0.609  -0.588  -0.585  -0.583  -0.583
 -0.575  -0.563  -0.545  -0.543  -0.537  -0.531  -0.522  -0.514
 -0.500  -0.492  -0.490  -0.478  -0.474  -0.471  -0.471  -0.461
 -0.459  -0.446  -0.434  -0.432  -0.428  -0.425  -0.420  -0.418
 -0.400  -0.352  -0.334
 -- Virtual --
 -0.220  -0.081  -0.048  -0.015  -0.004   0.068   0.079   0.082
  0.104   0.106   0.112   0.119   0.128   0.138   0.143   0.147
  0.152   0.153   0.155   0.157   0.162   0.170   0.176   0.183
  0.184   0.185   0.186   0.192   0.195   0.201   0.207   0.214
  0.216   0.224   0.224   0.227   0.228   0.234   0.240   0.247
  0.250   0.251   0.261   0.282   0.292   0.306   0.317   0.348
  0.352   0.362   0.378   0.403   0.425   0.430   0.431   0.444
  0.455   0.464   0.465   0.467   0.486   0.490   0.494   0.499
  0.501   0.508   0.513   0.517   0.522   0.535   0.542   0.547
  0.553   0.559   0.563   0.564   0.578   0.583   0.586   0.594
  0.595   0.602   0.603   0.626   0.636   0.644   0.656   0.675
  0.682   0.707   0.710   0.716   0.721   0.723   0.726   0.734
  0.745   0.756   0.775   0.777   0.777   0.796   0.799   0.834
  0.843   0.845   0.853   0.862   0.873   0.893   0.901   0.918
  0.921   0.937   0.952   0.970   0.971   0.985   0.986   0.993
  0.994   0.995   0.996   0.997   0.998   1.006   1.011   1.016
  1.034   1.034   1.040   1.048   1.054   1.063   1.064   1.067
  1.074   1.083   1.098   1.123   1.128   1.143   1.156   1.172
  1.173   1.207   1.224   1.231   1.240   1.271   1.278   1.290
  1.296   1.317   1.320   1.333   1.347   1.357   1.390   1.417
  1.424   1.437   1.441   1.463   1.466   1.471   1.486   1.486
  1.493   1.495   1.519   1.557   1.599   1.612   1.646   1.649
  1.670   1.671   1.689   1.734   1.739   1.751   1.754   1.763
  1.790   1.802   1.824   1.830   1.851   1.858   1.867   1.870
  1.884   1.899   1.904   1.924   1.932   1.944   1.980   2.007
  2.022   2.029   2.055   2.063   2.068   2.075   2.080   2.086
  2.093   2.097   2.115   2.123   2.134   2.159   2.178   2.181
  2.198   2.221   2.226   2.243   2.261   2.271   2.272   2.274
  2.286   2.293   2.294   2.296   2.300   2.303   2.304   2.314
  2.336   2.361   2.386   2.388   2.419   2.458   2.473   2.505
  2.533   2.546   2.570   2.588   2.614   2.619   2.630   2.658
  2.659   2.673   2.687   2.689   2.716   2.734   2.739   2.750
  2.761   2.803   2.835   2.861   2.881   2.891   2.994   3.005
  3.025   3.223   3.349   3.373   3.521  13.164  13.361  13.564
 13.599  13.608  13.742  13.797  13.832  13.833  13.865  13.888
 13.935  14.071  14.130  14.148  14.162  14.183  14.233  14.471
 14.520  19.361
 --------------------------------------------------------------
 
          Ground-State Mulliken Net Atomic Charges

     Atom                 Charge (a.u.)    Spin (a.u.)
  --------------------------------------------------------
      1 H                     0.429481      -0.016105
      2 N                    -0.703878       0.350902
      3 C                     0.339472      -0.096328
      4 C                     0.172836       0.033571
      5 C                     0.184610       0.139209
      6 C                     0.348932      -0.067668
      7 C                    -0.447749      -0.064065
      8 C                     0.228569       0.311457
      9 C                    -0.291974      -0.150825
     10 C                    -0.228683       0.201349
     11 C                    -0.219300       0.233445
     12 C                    -0.328938      -0.135857
     13 C                     0.235435       0.230013
     14 C                    -0.416967       0.034659
     15 H                     0.262708       0.002490
     16 C                    -0.198809      -0.022528
     17 H                     0.268831       0.006506
     18 H                     0.279594      -0.010781
     19 H                     0.278839      -0.012297
     20 H                     0.274068       0.005578
     21 C                    -0.194994      -0.017124
     22 H                     0.257231      -0.002325
     23 C                    -0.661183       0.000289
     24 C                    -0.618701       0.008207
     25 C                    -0.618550       0.008200
     26 C                    -0.663293       0.000722
     27 C                    -0.615579       0.011100
     28 H                     0.231079       0.000072
     29 H                     0.255635      -0.000446
     30 H                     0.232555       0.000073
     31 H                     0.235816      -0.000422
     32 H                     0.229590      -0.000576
     33 H                     0.243358       0.002912
     34 C                    -0.617789       0.010358
     35 H                     0.237812      -0.000356
     36 H                     0.223776      -0.000395
     37 H                     0.243146       0.003001
     38 H                     0.233496       0.000124
     39 H                     0.251686      -0.000289
     40 H                     0.233710       0.000124
     41 H                     0.237967      -0.000350
     42 H                     0.242993       0.003051
     43 H                     0.224035      -0.000393
     44 H                     0.236387      -0.000391
     45 H                     0.243685       0.002657
     46 H                     0.229056      -0.000549
  --------------------------------------------------------
  Sum of atomic charges =     1.000000
  Sum of spin   charges =     1.000000

 -----------------------------------------------------------------
                    Cartesian Multipole Moments
 -----------------------------------------------------------------
    Charge (ESU x 10^10)
                 4.8032
    Dipole Moment (Debye)
         X      10.1837      Y     -11.0501      Z      19.6466
       Tot      24.7346
    Quadrupole Moments (Debye-Ang)
        XX     -81.0186     XY     -36.4413     YY     -60.0870
        XZ      55.1037     YZ     -23.3264     ZZ     -19.1724
    Octopole Moments (Debye-Ang^2)
       XXX    -932.1874    XXY     159.6478    XYY    -136.2666
       YYY     612.0964    XXZ    -344.9901    XYZ    -112.3591
       YYZ    -402.3513    XZZ     -28.7674    YZZ     290.3139
       ZZZ   -1059.2309
    Hexadecapole Moments (Debye-Ang^3)
      XXXX   -7514.5208   XXXY    2706.3742   XXYY   -2209.2983
      XYYY    1978.1383   YYYY   -9099.9884   XXXZ   -4305.5267
      XXYZ     366.2074   XYYZ   -1003.7041   YYYZ    1840.4750
      XXZZ   -3216.3496   XYZZ     834.6697   YYZZ   -4554.9409
      XZZZ   -2908.9438   YZZZ    2895.4442   ZZZZ  -14700.8893
 -----------------------------------------------------------------
Archival summary:
1\1\ctcp037\OPT\ProcedureUnspecified\BasisUnspecified\12025(1+,2)\mewes1\MonDec312:43:022018MonDec312:43:022018\0\\#,OPT,ProcedureUnspecified,BasisUnspecified,\\1,2\N\H,1,1.01269\C,1,1.35291,2,124.552\C,1,1.36591,2,124.575,3,179.124,0\C,4,1.38763,1,129.305,2,-0.972344,0\H,5,1.08231,4,121.863,1,1.22017,0\C,5,1.38846,4,117.323,1,-178.254,0\H,7,1.07975,5,117.878,4,179.703,0\C,7,1.39492,5,122.242,4,0.0389418,0\C,3,1.39596,1,129.057,2,0.716362,0\H,10,1.08197,3,121.657,1,-0.530622,0\C,10,1.37389,3,116.875,1,179.209,0\H,12,1.08109,10,118.23,3,-179.892,0\C,4,1.4088,1,108.386,2,-179.578,0\C,14,1.36934,4,119.234,1,178.511,0\H,15,1.08238,14,120.076,4,-179.493,0\C,12,1.41177,10,122.513,3,0.235679,0\C,17,1.4087,12,119.086,10,-0.61646,0\H,18,1.0806,17,120.564,12,-179.577,0\C,18,1.37084,17,119.665,12,0.372343,0\C,17,1.51562,12,118.994,10,179.372,0\C,9,1.51855,7,122.335,5,179.312,0\C,21,1.5281,17,112.468,12,-178.079,0\H,23,1.09003,21,109.4,17,179.5,0\H,23,1.09147,21,112.365,17,-61.8584,0\H,23,1.09156,21,112.278,17,60.7995,0\C,22,1.52811,9,112.529,7,0.183517,0\H,27,1.09018,22,109.37,9,179.825,0\H,27,1.09128,22,112.248,9,61.1234,0\H,27,1.09134,22,112.274,9,-61.3975,0\C,22,1.53606,9,108.805,7,120.321,0\H,31,1.09068,22,111.17,9,-61.2824,0\H,31,1.09069,22,112.555,9,59.9905,0\H,31,1.091,22,109.757,9,179.399,0\C,21,1.53622,17,108.742,12,61.6774,0\H,35,1.0902,21,112.471,17,-60.7269,0\H,35,1.09071,21,111.263,17,60.4679,0\H,35,1.09088,21,109.665,17,179.78,0\C,22,1.53626,9,108.95,7,-120.059,0\H,39,1.09055,22,112.576,9,-60.4545,0\H,39,1.0907,22,111.31,9,60.9684,0\H,39,1.09084,22,109.618,9,-179.75,0\C,21,1.53633,17,108.743,12,-57.9799,0\H,43,1.09004,21,112.559,17,61.3665,0\H,43,1.09068,21,109.685,17,-179.2,0\H,43,1.09077,21,111.283,17,-59.8614,0\\\@

 Total job time:  4000.74s(wall), 15089.94s(cpu) 
 Mon Dec  3 12:43:02 2018

        *************************************************************
        *                                                           *
        *  Thank you very much for using Q-Chem.  Have a nice day.  *
        *                                                           *
        *************************************************************


0 sent ACK to 0 
now end server 0 ... 
