mFile = /cm/shared/apps/q-chem/intel/QCHEM_5.1.0_Trunk/bin/mpi/machines
Process 0 of 1 is on ctcp005 - thread support 0
initial socket setup ...start
initial socket setup ...done 
now start server 0 ... 
Q-Chem Developer Version!
                  Welcome to Q-Chem
     A Quantum Leap Into The Future Of Chemistry


 Q-Chem 5.1, Q-Chem, Inc., Pleasanton, CA (2018)

 Yihan Shao,  Zhengting Gan,  E. Epifanovsky,  A. T. B. Gilbert,  M. Wormit,  
 J. Kussmann,  A. W. Lange,  A. Behn,  Jia Deng,  Xintian Feng,  D. Ghosh,  
 M. Goldey,  P. R. Horn,  L. D. Jacobson,  I. Kaliman,  T. Kus,  A. Landau,  
 Jie Liu,  E. I. Proynov,  R. M. Richard,  R. P. Steele,  E. J. Sundstrom,  
 H. L. Woodcock III,  P. M. Zimmerman,  D. Zuev,  B. Albrecht,  E. Alguire,  
 S. A. Baeppler,  D. Barton,  Z. Benda,  Y. A. Bernard,  E. J. Berquist,  
 K. B. Bravaya,  H. Burton,  D. Casanova,  Chun-Min Chang,  Yunqing Chen,  
 A. Chien,  K. D. Closser,  M. P. Coons,  S. Coriani,  S. Dasgupta,  
 A. L. Dempwolff,  M. Diedenhofen,  Hainam Do,  R. G. Edgar,  Po-Tung Fang,  
 S. Faraji,  S. Fatehi,  Qingguo Feng,  K. D. Fenk,  J. Fosso-Tande,  
 Qinghui Ge,  A. Ghysels,  G. Gidofalvi,  J. Gomes,  J. Gonthier,  A. Gunina,  
 D. Hait,  M. W. D. Hanson-Heine,  P. H. P. Harbach,  A. W. Hauser,  
 J. E. Herr,  E. G. Hohenstein,  Z. C. Holden,  Kerwin Hui,  B. C. Huynh,  
 T.-C. Jagau,  Hyunjun Ji,  B. Kaduk,  K. Khistyaev,  Jaehoon Kim,  
 P. Klunzinger,  K. Koh,  D. Kosenkov,  L. Koulias,  T. Kowalczyk,  
 C. M. Krauter,  A. Kunitsa,  Ka Un Lao,  A. Laurent,  K. V. Lawler,  
 Joonho Lee,  D. Lefrancois,  S. Lehtola,  D. S. Levine,  Yi-Pei Li,  
 You-Sheng Lin,  Fenglai Liu,  E. Livshits,  A. Luenser,  P. Manohar,  
 E. Mansoor,  S. F. Manzer,  Shan-Ping Mao,  Yuezhi Mao,  N. Mardirossian,  
 A. V. Marenich,  T. Markovich,  L. A. Martinez-Martinez,  S. A. Maurer,  
 N. J. Mayhall,  S. C. McKenzie,  J.-M. Mewes,  A. F. Morrison,  
 J. W. Mullinax,  K. Nanda,  T. S. Nguyen-Beck,  R. Olivares-Amaya,  
 J. A. Parkhill,  T. M. Perrine,  F. Plasser,  P. Pokhilko,  S. Prager,  
 A. Prociuk,  E. Ramos,  D. R. Rehn,  F. Rob,  M. Schneider,  N. Sergueev,  
 S. M. Sharada,  S. Sharma,  D. W. Small,  T. Stauch,  T. Stein,  
 Yu-Chuan Su,  A. J. W. Thom,  A. Tkatchenko,  T. Tsuchimochi,  N. M. Tubman,  
 L. Vogt,  M. L. Vidal,  O. Vydrov,  M. A. Watson,  J. Wenzel,  
 M. de Wergifosse,  T. A. Wesolowski,  A. White,  J. Witte,  A. Yamada,  
 Jun Yang,  K. Yao,  S. Yeganeh,  S. R. Yost,  Zhi-Qiang You,  A. Zech,  
 Igor Ying Zhang,  Xing Zhang,  Yan Zhao,  Ying Zhu,  B. R. Brooks,  
 G. K. L. Chan,  C. J. Cramer,  M. S. Gordon,  W. J. Hehre,  A. Klamt,  
 M. W. Schmidt,  C. D. Sherrill,  D. G. Truhlar,  A. Aspuru-Guzik,  R. Baer,  
 A. T. Bell,  N. A. Besley,  Jeng-Da Chai,  A. E. DePrince, III,  
 R. A. DiStasio Jr.,  A. Dreuw,  B. D. Dunietz,  T. R. Furlani,  
 Chao-Ping Hsu,  Yousung Jung,  Jing Kong,  D. S. Lambrecht,  WanZhen Liang,  
 C. Ochsenfeld,  V. A. Rassolov,  L. V. Slipchenko,  J. E. Subotnik,  
 T. Van Voorhis,  J. M. Herbert,  A. I. Krylov,  P. M. W. Gill,  M. Head-Gordon

 Contributors to earlier versions of Q-Chem not listed above: 
 R. D. Adamson,  B. Austin,  J. Baker,  G. J. O. Beran,  K. Brandhorst,  
 S. T. Brown,  E. F. C. Byrd,  A. K. Chakraborty,  C.-L. Cheng,  
 Siu Hung Chien,  D. M. Chipman,  D. L. Crittenden,  H. Dachsel,  
 R. J. Doerksen,  A. D. Dutoi,  L. Fusti-Molnar,  W. A. Goddard III,  
 A. Golubeva-Zadorozhnaya,  S. R. Gwaltney,  G. Hawkins,  A. Heyden,  
 S. Hirata,  G. Kedziora,  F. J. Keil,  C. Kelley,  Jihan Kim,  R. A. King,  
 R. Z. Khaliullin,  P. P. Korambath,  W. Kurlancheek,  A. M. Lee,  M. S. Lee,  
 S. V. Levchenko,  Ching Yeh Lin,  D. Liotard,  R. C. Lochan,  I. Lotan,  
 P. E. Maslen,  N. Nair,  D. P. O'Neill,  D. Neuhauser,  E. Neuscamman,  
 C. M. Oana,  R. Olson,  B. Peters,  R. Peverati,  P. A. Pieniazek,  
 Y. M. Rhee,  J. Ritchie,  M. A. Rohrdanz,  E. Rosta,  N. J. Russ,  
 H. F. Schaefer III,  N. E. Schultz,  N. Shenvi,  A. C. Simmonett,  A. Sodt,  
 D. Stuck,  K. S. Thanthiriwatte,  V. Vanovschi,  Tao Wang,  A. Warshel,  
 C. F. Williams,  Q. Wu,  X. Xu,  W. Zhang

 Please cite Q-Chem as follows:
 Y. Shao et al., Mol. Phys. 113, 184-215 (2015)
 DOI: 10.1080/00268976.2014.952696

 Q-Chem 5.1.1 for Intel X86 EM64T Linux

 Parts of Q-Chem use Armadillo 8.300.2 (Tropical Shenanigans).
 http://arma.sourceforge.net/

 Q-Chem begins on Mon Dec  3 10:16:50 2018  

Host: ctcp005
0

     Scratch files written to /scratch/mewes1/141094/qchem3438//
 Parallel job on  1  processors
The previous job contains 0 fragments, simply inherited here
Symmetry turned off for PCM/SM12/SMD calculation
Input Ideriv = 2
Curr. Ideriv = -1
Max.  Ideriv = 2
Input Ideriv = 2
Curr. Ideriv = 2
Max.  Ideriv = 2

Checking the input file for inconsistencies... 	...done.

--------------------------------------------------------------
User input:
--------------------------------------------------------------
$rem
threads 4
jobtype	opt
method PBEh-3c
basis def2-mSVP
mem_static	1024
mem_total	3000
sym_ignore	true
scf_convergence	9
solvent_method	pcm
$end

$molecule
read Cz_tBu.mol
$end

$solvent
dielectric	2.38 
$end

$pcm
theory iefpcm
$end

--------------------------------------------------------------
 Adding empirical dispersion correction 
 ----------------------------------------------------------------
 Doing -D3(BJ) with
 s6 =   1.00000
 s8 =   0.00000
 a1 =   0.48600
 a2 =   4.50000
 -D3 energy including 3body term =     -0.0330678152 hartrees
 ----------------------------------------------------------------
 Adding gCP correction 
 ----------------------------------------------------------------
 gCP energy =      0.0602877014 hartrees
 ----------------------------------------------------------------
             Standard Nuclear Orientation (Angstroms)
    I     Atom           X                Y                Z
 ----------------------------------------------------------------
    1      H      -0.1536500000    -1.6822000000     2.5353400000
    2      N       0.6985900000    -1.9343000000     3.0854300000
    3      C       1.4829500000    -3.0258500000     2.9305700000
    4      C       2.5066900000    -3.0148600000     3.8397300000
    5      C       2.3584600000    -1.8880100000     4.5848000000
    6      C       1.2478600000    -1.2418400000     4.1107100000
    7      C       3.1159700000    -1.4092400000     5.6342700000
    8      C       2.7243700000    -0.1993300000     6.2497000000
    9      C       1.5617300000     0.4768600000     5.7521900000
   10      C       0.8186700000    -0.0482000000     4.6736300000
   11      C       1.3480300000    -4.0631500000     2.0177900000
   12      C       2.2950100000    -5.1096500000     2.0588900000
   13      C       3.3670000000    -5.0983800000     3.0153800000
   14      C       3.4559000000    -4.0130800000     3.9123100000
   15      H       3.9767600000    -1.9756100000     5.9526000000
   16      C       3.5168600000     0.3830200000     7.4300800000
   17      H       1.2324400000     1.4038800000     6.1996500000
   18      H      -0.0602200000     0.4617900000     4.3008900000
   19      H       0.5378000000    -4.0720000000     1.3002900000
   20      H       2.1806100000    -5.9151500000     1.3507400000
   21      C       4.4177400000    -6.2160600000     3.1169400000
   22      H       4.2401400000    -3.9511000000     4.6537600000
   23      C       4.1875100000    -7.3393800000     2.0859400000
   24      C       4.3575200000    -6.8424900000     4.5299600000
   25      C       5.8252800000    -5.6229900000     2.8777000000
   26      C       4.7429000000    -0.4776300000     7.8364300000
   27      C       2.5852700000     0.4697900000     8.6548400000
   28      H       4.4304900000    -1.4977100000     8.1512500000
   29      H       5.2821000000    -0.0187200000     8.6927000000
   30      H       5.4674200000    -0.5651900000     6.9970700000
   31      H       2.2146300000    -0.5454100000     8.9209900000
   32      H       1.7050000000     1.1145400000     8.4557800000
   33      H       3.1222100000     0.8867600000     9.5327000000
   34      C       4.0383800000     1.7789500000     7.0381200000
   35      H       3.3431700000    -7.2504400000     4.7301700000
   36      H       4.5873900000    -6.0991000000     5.3226600000
   37      H       5.0959200000    -7.6659700000     4.6314200000
   38      H       3.1938800000    -7.8130300000     2.2401600000
   39      H       4.9597700000    -8.1310700000     2.1896100000
   40      H       4.2479500000    -6.9390400000     1.0510500000
   41      H       5.8809600000    -5.1480300000     1.8745500000
   42      H       6.6031500000    -6.4139800000     2.9374300000
   43      H       6.0833200000    -4.8526200000     3.6351700000
   44      H       4.7050400000     1.6986000000     6.1506900000
   45      H       4.6165800000     2.2333400000     7.8700800000
   46      H       3.2088000000     2.4695100000     6.7830200000
 ----------------------------------------------------------------
 Nuclear Repulsion Energy =  1625.8429494356 hartrees
 There are       76 alpha and       76 beta electrons
 Requested basis set is def2-mSVP
 There are 197 shells and 365 basis functions

 Total QAlloc Memory Limit   3000 MB
 Mega-Array Size      1001 MB
 MEM_STATIC part      1024 MB
 Discretize the solute cavity surface with Lebedev spheres
	Using 302 Lebedev grid points for each H atom
	Using 302 Lebedev grid points for other atoms
	Atomic van der Waals radii will be scaled by 1.20
 Remove points where switching function is < 1.0e-08
 Keep 5144 surface tesserae and discard 8748 interior tesserae
 Molecular Surface Area = 352.265 Angst**2
 A cutoff of  1.0D-12 yielded  12374 shell pairs
 There are     44864 function pairs (     49731 Cartesian)
 
 -------------------------------------------------------
 OpenMP Integral Computing Module                       
 Release: version 1.0, May 2013, Q-Chem Inc. Pittsburgh 
 -------------------------------------------------------
 Integral Job Info:
 Integral job number is                      11
 Integral operator is                         1
 short-range coefficients                     0
 long-range coefficients              100000000
 Omega coefficients                           0
 if combine SR and LR in K                    0
 Integral screening is                        0
 Integral computing path is                   2
 max size of driver memory is            800000
 size of driver memory is                593474
 size of scratch memory is              1809772
 max col of scratch BK array               1296
 max len of scratch array in speh3          155
 max len of scratch index in speh4           18
 max int batch size is                      520
 min int batch size is                       52
 fixed nKL is                                52
 max L of basis functions is                  2
 order of int derivative is                   0
 number of shells is                        197
 number of basis is                         386
 number of cartesian basis is               386
 number of contracted shell pairs         12374
 number of primitive shell pairs          28121
 maxK2 (contraction) of shell pair           25
 max number of K2 of shell pair               1
 max number of CS2 of shell pair           3113
 max number of PS2 of shell pair           5200
 mem total for path MDJ                  608940
 -------------------------------------------------------
 Smallest overlap matrix eigenvalue = 3.10E-04

 Scale SEOQF with 1.000000e-02/1.000000e-02/1.000000e-02

 Standard Electronic Orientation quadrupole field applied
 Nucleus-field energy     =    -0.0000000197 hartrees
 Guess from superposition of atomic densities
 Warning:  Energy on first SCF cycle will be non-variational
 SAD guess density has 152.000000 electrons

 -----------------------------------------------------------------------
  General SCF calculation program by
  Eric Jon Sundstrom, Paul Horn, Yuezhi Mao, Dmitri Zuev, Alec White,
  David Stuck, Shaama M.S., Shane Yost, Joonho Lee, David Small,
  Daniel Levine, Susi Lehtola, Hugh Burton, Evgeny Epifanovsky
 -----------------------------------------------------------------------
 Exchange:     0.4200 Hartree-Fock + 0.5800 PBEh-3c
 Correlation:  1.0000 PBEh-3c
 Using SG-1 standard quadrature grid
 Dispersion:   Grimme D3
 using 4 threads for integral computing
 -------------------------------------------------------
 OpenMP Integral computing Module                
 Release: version 2.0, May 2017, Q-Chem Inc. Pleasanton 
 -------------------------------------------------------
 -------------------------------------------------------
 OpenMP BLAS3 based DFT computing Module                
 Release: version 1.0, May 2013, Q-Chem Inc. Pittsburgh 
 -------------------------------------------------------
 A restricted SCF calculation will be
 performed using DIIS
 SCF converges when DIIS error is below 1.0e-09
 ---------------------------------------
  Cycle       Energy         DIIS error
 ---------------------------------------
 Using non-symmetric K matrix
    1    -836.3633956187      4.36e-02  
    2    -829.9361121144      3.36e-03  
    3    -830.0171646268      2.76e-03  
    4    -830.1475213832      5.00e-04  
    5    -830.1505602717      2.76e-04  
    6    -830.1518114446      5.00e-05  
    7    -830.1518526748      1.13e-05  
    8    -830.1518545396      4.59e-06  
    9    -830.1518548957      1.22e-06  
   10    -830.1518549227      4.62e-07  
   11    -830.1518549271      1.36e-07  
   12    -830.1518549276      4.33e-08  
   13    -830.1518549276      1.56e-08  
   14    -830.1518549276      5.28e-09  
   15    -830.1518549276      2.46e-09  
   16    -830.1518549276      5.49e-10  Convergence criterion met
 ---------------------------------------
 SCF time:   CPU 1283.99s  wall 340.00s 

************** Final PCM Free Energy Summary **************
 G_electrostatic  =      -0.00753179 hartree =      -4.72626653 kcal/mol
 G_cavitation     =       0.00000000 hartree =       0.00000000 kcal/mol
 G_dispersion     =       0.00000000 hartree =       0.00000000 kcal/mol
 G_repulsion      =       0.00000000 hartree =       0.00000000 kcal/mol
 --------------------------------------------------
 Non-electrostatic Free Energy =       0.00000000 hartree =       0.00000000 kcal/mol
 Total                         =      -0.00753179 hartree =      -4.72626653 kcal/mol
 --------------------------------------------------
 SCF Energy (H0 + V/2)                       =    -830.15185493 
 Solute Internal Energy (H0)                 =    -830.14432314 
 Total Free Energy (H0 + V/2 + non-elec)     =    -830.15185493 hartree
                                             = -520928.15133530 kcal/mol
***********************************************************

 SCF   energy in the final basis set =     -830.1518549276
 Total energy in the final basis set =     -830.1518549276
 
 --------------------------------------------------------------
 
                    Orbital Energies (a.u.)
 --------------------------------------------------------------
 
 Alpha MOs
 -- Occupied --
-14.678 -10.474 -10.474 -10.458 -10.458 -10.450 -10.450 -10.448
-10.447 -10.446 -10.445 -10.441 -10.441 -10.429 -10.428 -10.428
-10.427 -10.425 -10.425 -10.425 -10.425  -1.108  -0.951  -0.948
 -0.907  -0.901  -0.867  -0.826  -0.804  -0.799  -0.759  -0.756
 -0.755  -0.754  -0.727  -0.686  -0.681  -0.648  -0.624  -0.608
 -0.600  -0.574  -0.540  -0.529  -0.518  -0.509  -0.508  -0.502
 -0.490  -0.488  -0.487  -0.480  -0.471  -0.468  -0.456  -0.441
 -0.439  -0.438  -0.423  -0.422  -0.409  -0.408  -0.408  -0.401
 -0.398  -0.384  -0.372  -0.369  -0.367  -0.367  -0.360  -0.356
 -0.323  -0.284  -0.244  -0.234
 -- Virtual --
 -0.013   0.030   0.052   0.069   0.124   0.130   0.135   0.157
  0.166   0.169   0.177   0.185   0.190   0.194   0.196   0.197
  0.199   0.201   0.211   0.219   0.221   0.224   0.231   0.232
  0.235   0.241   0.247   0.251   0.254   0.255   0.258   0.263
  0.268   0.269   0.284   0.285   0.291   0.294   0.298   0.309
  0.321   0.325   0.344   0.354   0.381   0.390   0.418   0.424
  0.452   0.454   0.486   0.495   0.504   0.508   0.519   0.519
  0.522   0.535   0.540   0.550   0.553   0.561   0.567   0.568
  0.569   0.580   0.594   0.599   0.605   0.606   0.608   0.620
  0.623   0.629   0.634   0.640   0.643   0.651   0.656   0.663
  0.675   0.675   0.693   0.704   0.707   0.722   0.746   0.748
  0.764   0.775   0.777   0.782   0.791   0.794   0.807   0.810
  0.816   0.817   0.832   0.837   0.842   0.879   0.901   0.910
  0.918   0.930   0.936   0.946   0.965   0.969   0.986   0.991
  1.012   1.013   1.021   1.026   1.029   1.029   1.032   1.036
  1.037   1.042   1.049   1.053   1.059   1.068   1.071   1.072
  1.073   1.091   1.093   1.094   1.098   1.100   1.121   1.135
  1.146   1.165   1.187   1.194   1.209   1.227   1.232   1.252
  1.272   1.306   1.312   1.326   1.342   1.375   1.380   1.387
  1.396   1.399   1.408   1.425   1.434   1.450   1.477   1.482
  1.512   1.525   1.532   1.538   1.545   1.557   1.565   1.568
  1.570   1.584   1.626   1.659   1.669   1.692   1.708   1.731
  1.737   1.775   1.806   1.806   1.811   1.836   1.854   1.864
  1.885   1.891   1.911   1.919   1.923   1.937   1.956   1.956
  1.967   1.976   2.001   2.005   2.032   2.043   2.082   2.103
  2.109   2.126   2.130   2.134   2.139   2.144   2.148   2.156
  2.172   2.179   2.191   2.212   2.228   2.239   2.264   2.278
  2.287   2.296   2.298   2.304   2.313   2.314   2.317   2.321
  2.325   2.336   2.343   2.348   2.357   2.359   2.370   2.371
  2.451   2.470   2.489   2.513   2.523   2.539   2.557   2.574
  2.642   2.645   2.655   2.676   2.699   2.710   2.731   2.734
  2.744   2.750   2.753   2.767   2.809   2.831   2.832   2.847
  2.878   2.899   2.953   2.966   2.980   3.045   3.086   3.105
  3.343   3.457   3.509   3.646  13.247  13.470  13.607  13.656
 13.715  13.796  13.854  13.863  13.866  13.900  13.944  14.040
 14.133  14.168  14.179  14.237  14.272  14.381  14.551  14.682
 19.512
 --------------------------------------------------------------
 
          Ground-State Mulliken Net Atomic Charges

     Atom                 Charge (a.u.)
  ----------------------------------------
      1 H                     0.386387
      2 N                    -0.792231
      3 C                     0.351490
      4 C                     0.140750
      5 C                     0.154356
      6 C                     0.347051
      7 C                    -0.450809
      8 C                     0.153710
      9 C                    -0.300865
     10 C                    -0.310481
     11 C                    -0.305169
     12 C                    -0.325212
     13 C                     0.155060
     14 C                    -0.414996
     15 H                     0.220672
     16 C                    -0.157300
     17 H                     0.223663
     18 H                     0.225299
     19 H                     0.224504
     20 H                     0.228924
     21 C                    -0.159017
     22 H                     0.215584
     23 C                    -0.642119
     24 C                    -0.608851
     25 C                    -0.608124
     26 C                    -0.647381
     27 C                    -0.607902
     28 H                     0.218561
     29 H                     0.226771
     30 H                     0.218713
     31 H                     0.221614
     32 H                     0.214169
     33 H                     0.210851
     34 C                    -0.608260
     35 H                     0.222340
     36 H                     0.213451
     37 H                     0.211151
     38 H                     0.218283
     39 H                     0.223490
     40 H                     0.218177
     41 H                     0.222144
     42 H                     0.211060
     43 H                     0.213641
     44 H                     0.221723
     45 H                     0.210915
     46 H                     0.214210
  ----------------------------------------
  Sum of atomic charges =    -0.000000

 -----------------------------------------------------------------
                    Cartesian Multipole Moments
 -----------------------------------------------------------------
    Charge (ESU x 10^10)
                -0.0000
    Dipole Moment (Debye)
         X      -1.5010      Y       0.4467      Z      -0.8888
       Tot       1.8006
    Quadrupole Moments (Debye-Ang)
        XX    -124.4667     XY      -1.8535     YY    -125.2131
        XZ       2.0828     YZ       7.4417     ZZ    -130.4933
    Octopole Moments (Debye-Ang^2)
       XXX   -1117.8713    XXY     304.9556    XYY    -354.8243
       YYY     974.2533    XXZ    -545.5011    XYZ     -14.2692
       YYZ    -600.0761    XZZ    -332.9477    YZZ     382.6618
       ZZZ   -1760.7478
    Hexadecapole Moments (Debye-Ang^3)
      XXXX   -8510.4424   XXXY    3383.5926   XXYY   -3123.3187
      XYYY    3295.2451   YYYY  -11112.7406   XXXZ   -5199.6054
      XXYZ     834.5264   XYYZ   -1715.3198   YYYZ    2976.6024
      XXZZ   -4372.2058   XYZZ    1135.9357   YYZZ   -5256.2311
      XZZZ   -4970.8020   YZZZ    3257.2437   ZZZZ  -19512.3339
 -----------------------------------------------------------------
 Calculating analytic gradient of the SCF energy
 -1.510750726658845E-004 -1.510829859217538E-004
 -1.510799245080628E-004 -1.510781275785495E-004
 -1.510770534596863E-004 -1.510810055644626E-004
 -1.510813050920880E-004 -1.510767621655083E-004
 -1.510782649443138E-004 -1.510798131180591E-004
 -1.510806232855152E-004 -1.510774563443308E-004
 -1.510779717300172E-004 -1.510800943682849E-004
 -1.510816798837614E-004 -1.510763771903677E-004
 -1.510797072655407E-004 -1.510783684873747E-004
 -1.510855669074390E-004 -1.510724862940612E-004
 -1.510766810297611E-004 -1.510813808798708E-004
 -1.510816515283508E-004 -1.510764164937337E-004
 -1.510855717273798E-004 -1.510724822288921E-004
 -1.510790307100621E-004 -1.510790314372427E-004
 -1.510835691297508E-004 -1.510744940500404E-004
 -1.510789693877032E-004 -1.510790989926678E-004
 -1.510766654618018E-004 -1.510813971382359E-004
 -1.510768621105157E-004 -1.510812024045366E-004
 -1.510903161802366E-004 -1.510677467230965E-004
 -1.510604998628861E-004 -1.510975518730345E-004
 -1.510732528421758E-004 -1.510848088924930E-004
 -1.510718591847270E-004 -1.510862033807603E-004
 -1.510864977206013E-004 -1.510715824499809E-004
 -1.510786539004228E-004 -1.510794129641135E-004
 -1.510705286848651E-004 -1.510875283990494E-004
 -1.510776438670313E-004 -1.510804124906421E-004
 -1.510704954875052E-004 -1.510875701482382E-004
 -1.510796121009460E-004 -1.510784353264221E-004
 -1.510939126009162E-004 -1.510641520038484E-004
 -1.510914551461583E-004 -1.510666030912991E-004
 -1.510836557768747E-004 -1.510743889698908E-004
 -1.510621179432159E-004 -1.510959401880721E-004
 -1.510701316499604E-004 -1.510879316778824E-004
 -1.510704142633854E-004 -1.510876449689826E-004
 -1.510865608251964E-004 -1.510714968060079E-004
 -1.510769093138030E-004 -1.510811537024643E-004
 -1.510736337203675E-004 -1.510844278711086E-004
 -1.510743611497659E-004 -1.510837074056086E-004
 -1.510704448482891E-004 -1.510876331298309E-004
 -1.510859148418106E-004 -1.510721461846312E-004
 -1.510927717584830E-004 -1.510652770882804E-004
 -1.510941760727502E-004 -1.510638896264032E-004
 -1.510851056344462E-004 -1.510729341715831E-004
 -1.510775733026610E-004 -1.510804641067557E-004
 -1.510825731809725E-004 -1.510754667435177E-004
 -1.510888742086651E-004 -1.510691722829193E-004
 -1.510809847371945E-004 -1.510770750617761E-004
 -1.510905642152298E-004 -1.510674803169998E-004
 -1.510773534302407E-004 -1.510806993831424E-004
 -1.510859282032546E-004 -1.510721142214510E-004
 -1.510836304514709E-004 -1.510744256322864E-004
 -1.510818791158208E-004 -1.510761691888616E-004
 -1.510783485956846E-004 -1.510797088715204E-004
 -1.510816176980183E-004 -1.510764297065199E-004
 -1.510830410133796E-004 -1.510750051957230E-004
 -1.510773055442974E-004 -1.510807432023667E-004
 -1.510818881193495E-004 -1.510761708708676E-004
 -1.510791055421730E-004 -1.510789487203623E-004
 -1.510735175551484E-004 -1.510845291043334E-004
 -1.510753891930142E-004 -1.510826586052972E-004
 -1.510948790935640E-004 -1.510631746769375E-004
 -1.510765585568405E-004 -1.510814877929221E-004
 -1.510915253677613E-004 -1.510665274163572E-004
 -1.510868926378994E-004 -1.510711453868655E-004
 -1.510758819418291E-004 -1.510821512333320E-004
 -1.510829038713060E-004 -1.510751394624545E-004
 -1.510704468386097E-004 -1.510875940117438E-004
 -1.510687119537670E-004 -1.510893250387634E-004
 -1.510642673622985E-004 -1.510937835512179E-004
 -1.510623725901988E-004 -1.510956699380605E-004
 -1.510789280362376E-004 -1.510791255831704E-004
 -1.510801719468369E-004 -1.510778702451863E-004
 -1.510745561734770E-004 -1.510834679262943E-004
 -1.510885349864116E-004 -1.510695158269744E-004
 -1.510670094295446E-004 -1.510910541926916E-004
 -1.510781972418534E-004 -1.510798348493063E-004
 -1.510683034479691E-004 -1.510897623553699E-004
 -1.510691224853893E-004 -1.510889087242638E-004
 -1.510655739352982E-004 -1.510924586226340E-004
 -1.510709151951797E-004 -1.510871616589643E-004
 -1.510823103946592E-004 -1.510757101073401E-004
 -1.510732460662903E-004 -1.510847935442236E-004
 -1.510746627324300E-004 -1.510833695493644E-004
 -1.510856819544516E-004 -1.510723313491019E-004
 -1.510791260739764E-004 -1.510789207889139E-004
 -1.510768381693904E-004 -1.510812234668908E-004
 -1.510777959022075E-004 -1.510802599349340E-004
 -1.510838339911469E-004 -1.510741724987283E-004
 -1.510842895160885E-004 -1.510737469864302E-004
 -1.510733828833255E-004 -1.510846572958459E-004
 -1.510726335224352E-004 -1.510853996898222E-004
 -1.510726471711838E-004 -1.510853945257433E-004
 -1.510817440147247E-004 -1.510762696390854E-004
 -1.510747577280864E-004 -1.510832693597440E-004
 -1.510724028761143E-004 -1.510856425754968E-004
 -1.510765166354634E-004 -1.510815057166059E-004
 -1.510820099207196E-004 -1.510760270275900E-004
 -1.510732354679997E-004 -1.510848235173380E-004
 -1.510756432456655E-004 -1.510824059301890E-004
 -1.510820332579241E-004 -1.510759955503518E-004
 -1.510859308979016E-004 -1.510721258147681E-004
 -1.510642954210241E-004 -1.510937488400704E-004
 -1.510716736430469E-004 -1.510863547265782E-004
 -1.510859326197817E-004 -1.510720935590299E-004
 -1.510837383850294E-004 -1.510742896262769E-004
 -1.510794357950643E-004 -1.510786123391521E-004
 -1.510791277166734E-004 -1.510789214800036E-004
 -1.510898054378810E-004 -1.510682168091235E-004
 -1.510796879146750E-004 -1.510783576169684E-004
 -1.510850428329743E-004 -1.510730195256659E-004
 -1.510799032447811E-004 -1.510781423442482E-004
 -1.510762326794885E-004 -1.510818006816417E-004
 -1.510804535046897E-004 -1.510775650482424E-004
 -1.510831065907190E-004 -1.510749307485387E-004
 -1.510796426352250E-004 -1.510783994906050E-004
 -1.510842867208819E-004 -1.510737673843644E-004
 -1.510838378684089E-004 -1.510742049180938E-004
 -1.510801373825022E-004 -1.510778975556782E-004
 -1.510840207352832E-004 -1.510740072842826E-004
 -1.510786496248126E-004 -1.510793770520689E-004
 -1.510759205736732E-004 -1.510821043397456E-004
 -1.510898129368187E-004 -1.510682144676064E-004
 -1.510787956711239E-004 -1.510792361181132E-004
 -1.510762073355954E-004 -1.510818384762807E-004
 -1.510819864162689E-004 -1.510760695910065E-004
 -1.510838900081952E-004 -1.510741607943117E-004
 -1.510872463042147E-004 -1.510707762775631E-004
 -1.510858617287125E-004 -1.510721873247780E-004
 -1.510807698779336E-004 -1.510772772927265E-004
 -1.510821769393569E-004 -1.510758455833129E-004
 -1.510813287886262E-004 -1.510767007622650E-004
 -1.510710789671581E-004 -1.510869567877758E-004
 -1.510807868727103E-004 -1.510772547890536E-004
 -1.510723687823952E-004 -1.510856849519995E-004
 -1.510770702142477E-004 -1.510809791686955E-004
 -1.510795490067326E-004 -1.510784808891105E-004
 -1.510768313076073E-004 -1.510811957260764E-004
 -1.510714473515586E-004 -1.510865905626360E-004
 Gradient of SCF Energy
            1           2           3           4           5           6
    1  -0.0342621   0.0333388   0.0199313  -0.0277312  -0.0148821   0.0282061
    2   0.0101223  -0.0102642   0.0311488   0.0396812  -0.0320748  -0.0461140
    3  -0.0221558   0.0215325   0.0422278   0.0090391  -0.0377272  -0.0101275
            7           8           9          10          11          12
    1   0.0116457  -0.0028627  -0.0043962  -0.0102964  -0.0144215  -0.0015662
    2  -0.0324082   0.0099435   0.0229536  -0.0127251   0.0190581  -0.0215934
    3  -0.0158456   0.0052029   0.0142097  -0.0196698   0.0013088  -0.0181993
           13          14          15          16          17          18
    1   0.0049961   0.0039300  -0.0015395  -0.0023275  -0.0011605  -0.0016604
    2  -0.0036885   0.0276619  -0.0019616  -0.0004356   0.0002393  -0.0005012
    3   0.0021108   0.0236954  -0.0030400  -0.0031337  -0.0007950  -0.0019202
           19          20          21          22          23          24
    1  -0.0019278  -0.0021434  -0.0023669  -0.0007737   0.0027362   0.0006221
    2   0.0022411   0.0019918   0.0034622   0.0018555   0.0004499   0.0012249
    3  -0.0000158  -0.0004050  -0.0004614   0.0006038   0.0025067  -0.0053662
           25          26          27          28          29          30
    1  -0.0043310   0.0002482   0.0039844  -0.0051844   0.0084296   0.0084688
    2  -0.0027433   0.0043740   0.0000911  -0.0120216   0.0040537   0.0003863
    3   0.0004118   0.0037449  -0.0045809   0.0044480   0.0109169  -0.0108884
           31          32          33          34          35          36
    1  -0.0036005  -0.0093343   0.0062963  -0.0019651  -0.0123679   0.0036635
    2  -0.0134096   0.0075349   0.0046327  -0.0053863  -0.0041125   0.0087873
    3   0.0023335  -0.0033348   0.0095201   0.0019538   0.0013994   0.0093840
           37          38          39          40          41          42
    1   0.0088123  -0.0120381   0.0092929   0.0018757  -0.0004389   0.0090758
    2  -0.0088308  -0.0046492  -0.0101017   0.0070058   0.0054866  -0.0087074
    3   0.0017731   0.0043957   0.0009019  -0.0114065  -0.0118258   0.0013947
           43          44          45          46
    1   0.0032241   0.0083779   0.0063727  -0.0099499
    2   0.0085351  -0.0027526   0.0046678   0.0068915
    3   0.0097176  -0.0108896   0.0095018  -0.0024461
 Max gradient component =       4.611E-02
 RMS gradient           =       1.315E-02
 Computing fast IEFPCM-SWIG gradient.
 Updating gradient with PCM contributions...
 -- total gradient after adding PCM contribution --
---------------------------------------------------
  Atom         X              Y              Z     
---------------------------------------------------
   1      -0.028533       0.008422      -0.018472
   2       0.026272      -0.008151       0.016999
   3       0.019972       0.031855       0.042818
   4      -0.028101       0.040946       0.009638
   5      -0.014872      -0.033121      -0.038550
   6       0.028414      -0.046903      -0.010566
   7       0.013444      -0.033714      -0.015286
   8      -0.002284       0.011048       0.006605
   9      -0.005190       0.024929       0.015082
  10      -0.013078      -0.012034      -0.021584
  11      -0.017199       0.020054      -0.000390
  12      -0.002020      -0.022989      -0.019625
  13       0.006244      -0.005002       0.002210
  14       0.005808       0.027644       0.025393
  15      -0.001844      -0.001801      -0.003234
  16      -0.002189      -0.000381      -0.002956
  17      -0.000783      -0.000605      -0.001152
  18       0.000141      -0.001296      -0.000962
  19      -0.000276       0.001969       0.001223
  20      -0.001959       0.002369       0.000041
  21      -0.002216       0.003307      -0.000429
  22      -0.001243       0.001897       0.000227
  23       0.002684      -0.000018       0.002114
  24       0.001322       0.001242      -0.005450
  25      -0.004166      -0.003191       0.000907
  26       0.000832       0.004054       0.004026
  27       0.004236       0.000701      -0.004483
  28      -0.005145      -0.011586       0.004323
  29       0.008111       0.003732       0.010370
  30       0.008141       0.000483      -0.010606
  31      -0.003766      -0.013572       0.002223
  32      -0.009168       0.007216      -0.003235
  33       0.005964       0.004423       0.009192
  34      -0.002178      -0.005191       0.002557
  35      -0.012635      -0.004011       0.001454
  36       0.003444       0.008603       0.009278
  37       0.008451      -0.008509       0.001828
  38      -0.011652      -0.004431       0.004417
  39       0.008831      -0.009672       0.000810
  40       0.001895       0.006919      -0.010972
  41      -0.000545       0.005725      -0.011956
  42       0.008819      -0.008300       0.001333
  43       0.003159       0.008483       0.009436
  44       0.008342      -0.002800      -0.011137
  45       0.006146       0.004548       0.009060
  46      -0.009634       0.006708      -0.002519
---------------------------------------------------
 Number of fixed atoms: 0
 Gradient time:  CPU 126.55 s  wall 48.08 s
 Geometry Optimization Parameters
   NAtoms,    NIC,     NZ,  NCons,   NDum,   NFix, NCnnct, MaxDiis
       46     353       0       0       0       0       0       0


** GEOMETRY OPTIMIZATION IN DELOCALIZED INTERNAL COORDINATES **
   Searching for a Minimum

   Optimization Cycle:   1

                       Coordinates (Angstroms)
     ATOM                X               Y               Z
      1  H        -0.1536500000   -1.6822000000    2.5353400000
      2  N         0.6985900000   -1.9343000000    3.0854300000
      3  C         1.4829500000   -3.0258500000    2.9305700000
      4  C         2.5066900000   -3.0148600000    3.8397300000
      5  C         2.3584600000   -1.8880100000    4.5848000000
      6  C         1.2478600000   -1.2418400000    4.1107100000
      7  C         3.1159700000   -1.4092400000    5.6342700000
      8  C         2.7243700000   -0.1993300000    6.2497000000
      9  C         1.5617300000    0.4768600000    5.7521900000
     10  C         0.8186700000   -0.0482000000    4.6736300000
     11  C         1.3480300000   -4.0631500000    2.0177900000
     12  C         2.2950100000   -5.1096500000    2.0588900000
     13  C         3.3670000000   -5.0983800000    3.0153800000
     14  C         3.4559000000   -4.0130800000    3.9123100000
     15  H         3.9767600000   -1.9756100000    5.9526000000
     16  C         3.5168600000    0.3830200000    7.4300800000
     17  H         1.2324400000    1.4038800000    6.1996500000
     18  H        -0.0602200000    0.4617900000    4.3008900000
     19  H         0.5378000000   -4.0720000000    1.3002900000
     20  H         2.1806100000   -5.9151500000    1.3507400000
     21  C         4.4177400000   -6.2160600000    3.1169400000
     22  H         4.2401400000   -3.9511000000    4.6537600000
     23  C         4.1875100000   -7.3393800000    2.0859400000
     24  C         4.3575200000   -6.8424900000    4.5299600000
     25  C         5.8252800000   -5.6229900000    2.8777000000
     26  C         4.7429000000   -0.4776300000    7.8364300000
     27  C         2.5852700000    0.4697900000    8.6548400000
     28  H         4.4304900000   -1.4977100000    8.1512500000
     29  H         5.2821000000   -0.0187200000    8.6927000000
     30  H         5.4674200000   -0.5651900000    6.9970700000
     31  H         2.2146300000   -0.5454100000    8.9209900000
     32  H         1.7050000000    1.1145400000    8.4557800000
     33  H         3.1222100000    0.8867600000    9.5327000000
     34  C         4.0383800000    1.7789500000    7.0381200000
     35  H         3.3431700000   -7.2504400000    4.7301700000
     36  H         4.5873900000   -6.0991000000    5.3226600000
     37  H         5.0959200000   -7.6659700000    4.6314200000
     38  H         3.1938800000   -7.8130300000    2.2401600000
     39  H         4.9597700000   -8.1310700000    2.1896100000
     40  H         4.2479500000   -6.9390400000    1.0510500000
     41  H         5.8809600000   -5.1480300000    1.8745500000
     42  H         6.6031500000   -6.4139800000    2.9374300000
     43  H         6.0833200000   -4.8526200000    3.6351700000
     44  H         4.7050400000    1.6986000000    6.1506900000
     45  H         4.6165800000    2.2333400000    7.8700800000
     46  H         3.2088000000    2.4695100000    6.7830200000
   Point Group: c1    Number of degrees of freedom:   132


   Energy is   -830.151854928


 Attempting to Generate Delocalized Internal Coordinates

132 Hessian modes will be used to form the next step
  Hessian Eigenvalues:
     0.002287    0.002985    0.003093    0.003621    0.003723    0.003774
     0.004232    0.004366    0.013311    0.013462    0.018934    0.019175
     0.019645    0.019786    0.021818    0.022368    0.022480    0.022591
     0.022613    0.022725    0.022935    0.023582    0.024037    0.024321
     0.025784    0.025852    0.026391    0.050078    0.050169    0.051137
     0.051477    0.053162    0.053465    0.053628    0.054193    0.054336
     0.054752    0.054800    0.054858    0.055033    0.055191    0.055559
     0.056258    0.056384    0.056416    0.145057    0.147265    0.152438
     0.154829    0.159994    0.159994    0.159996    0.159997    0.159998
     0.159999    0.160000    0.160000    0.160000    0.160000    0.160000
     0.160000    0.160000    0.160000    0.160000    0.160000    0.160000
     0.160000    0.160000    0.160000    0.160000    0.160000    0.160000
     0.160000    0.160000    0.224506    0.224675    0.234966    0.235218
     0.238122    0.246410    0.247222    0.249986    0.249992    0.249997
     0.274734    0.279228    0.279934    0.283411    0.284092    0.284433
     0.287511    0.288419    0.322811    0.323007    0.323547    0.323620
     0.324419    0.324426    0.324623    0.324659    0.324843    0.324947
     0.325141    0.325171    0.325184    0.325263    0.325599    0.325663
     0.326907    0.326931    0.357124    0.357187    0.358704    0.359040
     0.361631    0.361815    0.378625    0.385468    0.405474    0.410112
     0.411202    0.420828    0.430546    0.439527    0.460713    0.466044
     0.467326    0.481498    0.483209    0.505133    0.534396    0.537197

 Minimum Search - Taking Simple RFO Step
 Searching for Lamda that Minimizes Along All modes
 Value Taken    Lamda =  -0.04831254
 Calculated Step too Large.  Step scaled by  0.872635
 Step Taken.  Stepsize is  0.300000

                             Maximum     Tolerance    Cnvgd?
         Gradient           0.054721      0.000300      NO
         Displacement       0.121677      0.001200      NO
         Energy change     *********      0.000001      NO


 New Cartesian Coordinates Obtained by Inverse Iteration

 Displacement from previous Coordinates is:  1.608148
 Adding empirical dispersion correction 
 ----------------------------------------------------------------
 Doing -D3(BJ) with
 s6 =   1.00000
 s8 =   0.00000
 a1 =   0.48600
 a2 =   4.50000
 -D3 energy including 3body term =     -0.0334346157 hartrees
 ----------------------------------------------------------------
 Adding gCP correction 
 ----------------------------------------------------------------
 gCP energy =      0.0613161233 hartrees
 ----------------------------------------------------------------
             Standard Nuclear Orientation (Angstroms)
    I     Atom           X                Y                Z
 ----------------------------------------------------------------
    1      H      -0.0431148548    -1.7067114467     2.5971995544
    2      N       0.7811781284    -1.9479395106     3.1278553505
    3      C       1.5504883084    -3.0672595410     2.9404693588
    4      C       2.5942765927    -3.0534075996     3.8672677737
    5      C       2.4360083126    -1.8706197339     4.6489456375
    6      C       1.3033996091    -1.2160224503     4.1639503599
    7      C       3.1566055578    -1.3385216736     5.7140424188
    8      C       2.7358174044    -0.1487400126     6.2977738435
    9      C       1.5860701812     0.4903280461     5.7874700099
   10      C       0.8620001206    -0.0252801910     4.7252157682
   11      C       1.4098865189    -4.1080911003     2.0295419824
   12      C       2.3369194181    -5.1406734039     2.0713073134
   13      C       3.3990451982    -5.1557959189     2.9959344900
   14      C       3.5182413230    -4.0943188032     3.8918952415
   15      H       4.0288646912    -1.8641539125     6.0739225315
   16      C       3.4785526143     0.4758514721     7.4714052247
   17      H       1.2468514799     1.4155048117     6.2333832051
   18      H      -0.0187763496     0.4845674610     4.3554023968
   19      H       0.6004745711    -4.1258518551     1.3102397772
   20      H       2.2184780595    -5.9500345458     1.3654905226
   21      C       4.4090547469    -6.2993071373     3.0508390538
   22      H       4.3203831988    -4.0758917620     4.6174572768
   23      C       4.1139518879    -7.3799677540     2.0063658953
   24      C       4.3640773661    -6.9533937791     4.4401454536
   25      C       5.8192249011    -5.7518700995     2.7883322818
   26      C       4.7035127869    -0.3451028158     7.8896440657
   27      C       2.5333258092     0.5624203037     8.6776687900
   28      H       4.4244745686    -1.3554545364     8.2090911186
   29      H       5.2040949717     0.1395911466     8.7335890520
   30      H       5.4335660194    -0.4269925434     7.0765663280
   31      H       2.1838434125    -0.4361621072     8.9615181470
   32      H       1.6516072270     1.1745211761     8.4644055279
   33      H       3.0433195024     1.0031299304     9.5415436440
   34      C       3.9592543148     1.8785360682     7.0748993060
   35      H       3.3608502080    -7.3333354882     4.6597292624
   36      H       4.6331050988    -6.2480836436     5.2328546799
   37      H       5.0688701492    -7.7905189244     4.4968678281
   38      H       3.1257326700    -7.8265401510     2.1614112811
   39      H       4.8539664582    -8.1835431492     2.0762841800
   40      H       4.1589812854    -6.9763852500     0.9890417323
   41      H       5.8710294248    -5.2651637030     1.8088644351
   42      H       6.5582981399    -6.5608514341     2.8096017988
   43      H       6.1195261857    -5.0169267273     3.5419576353
   44      H       4.6307149237     1.8237356792     6.2112419776
   45      H       4.5027732747     2.3521149970     7.9000492865
   46      H       3.1255445833     2.5348416125     6.8064972020
 ----------------------------------------------------------------
 Nuclear Repulsion Energy =  1621.4665527063 hartrees
 There are       76 alpha and       76 beta electrons
 Discretize the solute cavity surface with Lebedev spheres
	Using 302 Lebedev grid points for each H atom
	Using 302 Lebedev grid points for other atoms
	Atomic van der Waals radii will be scaled by 1.20
 Remove points where switching function is < 1.0e-08
 Keep 5122 surface tesserae and discard 8770 interior tesserae
 Molecular Surface Area = 349.793 Angst**2
 Nucleus-field energy     =    -0.0000000195 hartrees
 Requested basis set is def2-mSVP
 There are 197 shells and 365 basis functions
 A cutoff of  1.0D-12 yielded  12224 shell pairs
 There are     44400 function pairs (     49229 Cartesian)
 Smallest overlap matrix eigenvalue = 3.15E-04
 Guess MOs from SCF MO coefficient file

 -----------------------------------------------------------------------
  General SCF calculation program by
  Eric Jon Sundstrom, Paul Horn, Yuezhi Mao, Dmitri Zuev, Alec White,
  David Stuck, Shaama M.S., Shane Yost, Joonho Lee, David Small,
  Daniel Levine, Susi Lehtola, Hugh Burton, Evgeny Epifanovsky
 -----------------------------------------------------------------------
 Exchange:     0.4200 Hartree-Fock + 0.5800 PBEh-3c
 Correlation:  1.0000 PBEh-3c
 Using SG-1 standard quadrature grid
 Dispersion:   Grimme D3
 using 4 threads for integral computing
 -------------------------------------------------------
 OpenMP Integral computing Module                
 Release: version 2.0, May 2017, Q-Chem Inc. Pleasanton 
 -------------------------------------------------------
 -------------------------------------------------------
 OpenMP BLAS3 based DFT computing Module                
 Release: version 1.0, May 2013, Q-Chem Inc. Pittsburgh 
 -------------------------------------------------------
 A restricted SCF calculation will be
 performed using DIIS
 SCF converges when DIIS error is below 1.0e-09
 ---------------------------------------
  Cycle       Energy         DIIS error
 ---------------------------------------
 Using non-symmetric K matrix
    1    -829.8657815494      7.67e-04  
    2    -830.1730470587      3.76e-04  
    3    -830.1742063510      3.02e-04  
    4    -830.1757872260      5.37e-05  
    5    -830.1758318798      2.14e-05  
    6    -830.1758390511      5.69e-06  
    7    -830.1758395049      2.05e-06  
    8    -830.1758395745      6.84e-07  
    9    -830.1758395832      1.98e-07  
   10    -830.1758395840      4.87e-08  
   11    -830.1758395841      2.53e-08  
   12    -830.1758395841      7.18e-09  
   13    -830.1758395841      2.78e-09  
   14    -830.1758395841      8.31e-10  Convergence criterion met
 ---------------------------------------
 SCF time:   CPU 1205.82s  wall 319.00s 

************** Final PCM Free Energy Summary **************
 G_electrostatic  =      -0.00707626 hartree =      -4.44041820 kcal/mol
 G_cavitation     =       0.00000000 hartree =       0.00000000 kcal/mol
 G_dispersion     =       0.00000000 hartree =       0.00000000 kcal/mol
 G_repulsion      =       0.00000000 hartree =       0.00000000 kcal/mol
 --------------------------------------------------
 Non-electrostatic Free Energy =       0.00000000 hartree =       0.00000000 kcal/mol
 Total                         =      -0.00707626 hartree =      -4.44041820 kcal/mol
 --------------------------------------------------
 SCF Energy (H0 + V/2)                       =    -830.17583958 
 Solute Internal Energy (H0)                 =    -830.16876333 
 Total Free Energy (H0 + V/2 + non-elec)     =    -830.17583958 hartree
                                             = -520943.20193440 kcal/mol
***********************************************************

 SCF   energy in the final basis set =     -830.1758395841
 Total energy in the final basis set =     -830.1758395841
 
 --------------------------------------------------------------
 
                    Orbital Energies (a.u.)
 --------------------------------------------------------------
 
 Alpha MOs
 -- Occupied --
-14.675 -10.480 -10.480 -10.454 -10.454 -10.445 -10.444 -10.444
-10.444 -10.443 -10.442 -10.441 -10.441 -10.441 -10.440 -10.421
-10.421 -10.420 -10.420 -10.419 -10.419  -1.093  -0.955  -0.952
 -0.905  -0.905  -0.867  -0.829  -0.806  -0.805  -0.765  -0.761
 -0.760  -0.760  -0.724  -0.690  -0.679  -0.650  -0.625  -0.607
 -0.602  -0.579  -0.542  -0.529  -0.523  -0.507  -0.504  -0.500
 -0.494  -0.491  -0.490  -0.480  -0.473  -0.472  -0.457  -0.444
 -0.441  -0.441  -0.425  -0.424  -0.411  -0.411  -0.409  -0.402
 -0.400  -0.385  -0.374  -0.371  -0.369  -0.365  -0.362  -0.359
 -0.324  -0.287  -0.248  -0.234
 -- Virtual --
 -0.010   0.030   0.056   0.068   0.130   0.133   0.148   0.162
  0.166   0.170   0.180   0.187   0.192   0.198   0.199   0.202
  0.204   0.204   0.217   0.223   0.226   0.227   0.233   0.233
  0.237   0.244   0.249   0.256   0.258   0.259   0.261   0.264
  0.273   0.274   0.284   0.288   0.294   0.296   0.302   0.308
  0.320   0.324   0.349   0.358   0.375   0.388   0.418   0.428
  0.443   0.456   0.479   0.491   0.503   0.506   0.515   0.516
  0.520   0.532   0.539   0.550   0.554   0.560   0.564   0.575
  0.578   0.580   0.592   0.599   0.604   0.607   0.614   0.620
  0.630   0.631   0.640   0.644   0.647   0.653   0.660   0.661
  0.669   0.674   0.695   0.707   0.715   0.719   0.745   0.753
  0.772   0.776   0.783   0.788   0.789   0.795   0.801   0.808
  0.815   0.818   0.826   0.840   0.850   0.863   0.905   0.911
  0.918   0.931   0.935   0.949   0.962   0.972   0.990   1.007
  1.011   1.020   1.030   1.036   1.038   1.039   1.040   1.043
  1.043   1.044   1.051   1.056   1.063   1.070   1.071   1.079
  1.079   1.098   1.106   1.108   1.109   1.113   1.120   1.138
  1.149   1.164   1.187   1.202   1.213   1.227   1.237   1.257
  1.274   1.308   1.309   1.316   1.345   1.367   1.378   1.383
  1.393   1.398   1.402   1.422   1.436   1.457   1.485   1.491
  1.507   1.516   1.537   1.539   1.546   1.564   1.570   1.572
  1.573   1.589   1.633   1.660   1.676   1.704   1.711   1.732
  1.735   1.776   1.806   1.806   1.825   1.839   1.841   1.860
  1.888   1.901   1.922   1.923   1.924   1.939   1.949   1.949
  1.957   1.974   2.004   2.006   2.024   2.045   2.089   2.096
  2.116   2.130   2.134   2.137   2.142   2.149   2.151   2.160
  2.177   2.189   2.196   2.212   2.231   2.246   2.268   2.273
  2.295   2.299   2.319   2.322   2.326   2.336   2.339   2.342
  2.344   2.350   2.360   2.363   2.369   2.373   2.381   2.382
  2.430   2.469   2.485   2.511   2.527   2.542   2.567   2.589
  2.636   2.656   2.669   2.675   2.693   2.695   2.732   2.736
  2.744   2.756   2.764   2.780   2.815   2.816   2.834   2.848
  2.883   2.919   2.946   2.969   2.976   3.072   3.093   3.109
  3.316   3.446   3.468   3.619  13.247  13.450  13.622  13.663
 13.703  13.806  13.861  13.879  13.880  13.915  13.947  14.031
 14.146  14.192  14.206  14.252  14.275  14.348  14.561  14.623
 19.485
 --------------------------------------------------------------
 
          Ground-State Mulliken Net Atomic Charges

     Atom                 Charge (a.u.)
  ----------------------------------------
      1 H                     0.376701
      2 N                    -0.799950
      3 C                     0.341037
      4 C                     0.116261
      5 C                     0.125427
      6 C                     0.340333
      7 C                    -0.459758
      8 C                     0.189221
      9 C                    -0.302605
     10 C                    -0.287538
     11 C                    -0.281539
     12 C                    -0.329924
     13 C                     0.190891
     14 C                    -0.430992
     15 H                     0.221244
     16 C                    -0.172226
     17 H                     0.222512
     18 H                     0.226976
     19 H                     0.225566
     20 H                     0.229969
     21 C                    -0.169972
     22 H                     0.213200
     23 C                    -0.654288
     24 C                    -0.612754
     25 C                    -0.612146
     26 C                    -0.655062
     27 C                    -0.612615
     28 H                     0.222807
     29 H                     0.229317
     30 H                     0.223248
     31 H                     0.225482
     32 H                     0.217100
     33 H                     0.214165
     34 C                    -0.613363
     35 H                     0.225655
     36 H                     0.217152
     37 H                     0.213732
     38 H                     0.222618
     39 H                     0.228185
     40 H                     0.222470
     41 H                     0.225385
     42 H                     0.213652
     43 H                     0.217396
     44 H                     0.225747
     45 H                     0.214297
     46 H                     0.216986
  ----------------------------------------
  Sum of atomic charges =    -0.000000

 -----------------------------------------------------------------
                    Cartesian Multipole Moments
 -----------------------------------------------------------------
    Charge (ESU x 10^10)
                -0.0000
    Dipole Moment (Debye)
         X      -1.3303      Y       0.4019      Z      -0.7394
       Tot       1.5742
    Quadrupole Moments (Debye-Ang)
        XX    -124.1850     XY      -2.3109     YY    -123.3338
        XZ       2.4331     YZ       7.9482     ZZ    -128.7131
    Octopole Moments (Debye-Ang^2)
       XXX   -1119.3905    XXY     303.3869    XYY    -349.6782
       YYY     960.7397    XXZ    -545.3233    XYZ     -13.1979
       YYZ    -597.0156    XZZ    -331.9915    YZZ     386.6786
       ZZZ   -1746.2498
    Hexadecapole Moments (Debye-Ang^3)
      XXXX   -8471.8613   XXXY    3397.6846   XXYY   -3137.9173
      XYYY    3273.9269   YYYY  -11269.5600   XXXZ   -5182.1981
      XXYZ     807.7365   XYYZ   -1698.3381   YYYZ    2868.1600
      XXZZ   -4382.3865   XYZZ    1154.6112   YYZZ   -5305.1434
      XZZZ   -4938.8759   YZZZ    3198.1969   ZZZZ  -19478.5538
 -----------------------------------------------------------------
 Calculating analytic gradient of the SCF energy
 -1.408174840322413E-004 -1.408258186996713E-004
 -1.408225095046274E-004 -1.408207849567885E-004
 -1.408196672991217E-004 -1.408236352402561E-004
 -1.408221038609161E-004 -1.408212075481581E-004
 -1.408217743348942E-004 -1.408215499199051E-004
 -1.408219691138949E-004 -1.408213555962667E-004
 -1.408205502867078E-004 -1.408227605722141E-004
 -1.408242308213926E-004 -1.408190724739521E-004
 -1.408218597124564E-004 -1.408214621306309E-004
 -1.408290030627091E-004 -1.408142958280766E-004
 -1.408181215894319E-004 -1.408251869222270E-004
 -1.408234121639577E-004 -1.408199023709981E-004
 -1.408288120138333E-004 -1.408144879056431E-004
 -1.408229013608798E-004 -1.408204073720300E-004
 -1.408271983207744E-004 -1.408161107824631E-004
 -1.408214226405041E-004 -1.408218909579188E-004
 -1.408196290249867E-004 -1.408236806295705E-004
 -1.408193103174606E-004 -1.408240000143594E-004
 -1.408353482467446E-004 -1.408079581349528E-004
 -1.408020279107443E-004 -1.408412684457308E-004
 -1.408168958824895E-004 -1.408264096475620E-004
 -1.408141138143927E-004 -1.408291939399192E-004
 -1.408284664312512E-004 -1.408148584217669E-004
 -1.408207496799368E-004 -1.408225612514132E-004
 -1.408128098318667E-004 -1.408304905824421E-004
 -1.408200413076041E-004 -1.408232601327366E-004
 -1.408128895310484E-004 -1.408304196005313E-004
 -1.408208052335640E-004 -1.408224850140060E-004
 -1.408377646673679E-004 -1.408055441194733E-004
 -1.408340612854250E-004 -1.408092397362663E-004
 -1.408251507543686E-004 -1.408181369740509E-004
 -1.408042853581656E-004 -1.408390161907414E-004
 -1.408115782007660E-004 -1.408317294982862E-004
 -1.408125527289269E-004 -1.408307503491558E-004
 -1.408296350769435E-004 -1.408136663554961E-004
 -1.408194787578919E-004 -1.408238295697573E-004
 -1.408156954443265E-004 -1.408276108104718E-004
 -1.408176702271033E-004 -1.408256423726432E-004
 -1.408132481814959E-004 -1.408300745215557E-004
 -1.408311465435690E-004 -1.408121583800172E-004
 -1.408352836247142E-004 -1.408080089114741E-004
 -1.408386497623701E-004 -1.408046600133419E-004
 -1.408270127088910E-004 -1.408162689216910E-004
 -1.408189636838398E-004 -1.408243166480461E-004
 -1.408236543647958E-004 -1.408196275631692E-004
 -1.408318473778835E-004 -1.408114440074749E-004
 -1.408238225161019E-004 -1.408194823962786E-004
 -1.408339853293834E-004 -1.408093034212265E-004
 -1.408187210030137E-004 -1.408245739837509E-004
 -1.408290850835709E-004 -1.408142009956940E-004
 -1.408259032830058E-004 -1.408173968181563E-004
 -1.408243166102915E-004 -1.408189735109472E-004
 -1.408212903213648E-004 -1.408220094627933E-004
 -1.408245390390656E-004 -1.408187507927051E-004
 -1.408253482305947E-004 -1.408179398616078E-004
 -1.408196005099169E-004 -1.408236905789982E-004
 -1.408241956621646E-004 -1.408191057352000E-004
 -1.408204342387759E-004 -1.408228621574227E-004
 -1.408158401290182E-004 -1.408274508354755E-004
 -1.408169283503118E-004 -1.408263628193782E-004
 -1.408381700792088E-004 -1.408051271192741E-004
 -1.408174114140157E-004 -1.408258804456469E-004
 -1.408335897996144E-004 -1.408097078358377E-004
 -1.408289244932677E-004 -1.408143553652062E-004
 -1.408200090754233E-004 -1.408232657002786E-004
 -1.408261694444934E-004 -1.408171156536285E-004
 -1.408125020301704E-004 -1.408307824243489E-004
 -1.408116751231605E-004 -1.408316043621100E-004
 -1.408069182912042E-004 -1.408363772343396E-004
 -1.408041425759875E-004 -1.408391440089557E-004
 -1.408225390228525E-004 -1.408207580667981E-004
 -1.408234307807934E-004 -1.408198570966627E-004
 -1.408169264930094E-004 -1.408263407141156E-004
 -1.408322969627719E-004 -1.408109974827666E-004
 -1.408097746295711E-004 -1.408335353058398E-004
 -1.408209609138796E-004 -1.408223162284928E-004
 -1.408104535421493E-004 -1.408328576480747E-004
 -1.408110239907763E-004 -1.408322495371316E-004
 -1.408078015412868E-004 -1.408354760989556E-004
 -1.408135985904848E-004 -1.408297219813943E-004
 -1.408251731059080E-004 -1.408180891728988E-004
 -1.408162753303944E-004 -1.408270085223901E-004
 -1.408171476540446E-004 -1.408261292811375E-004
 -1.408287132986504E-004 -1.408145426590495E-004
 -1.408217846867321E-004 -1.408215061905677E-004
 -1.408201312194487E-004 -1.408231746838726E-004
 -1.408210352578714E-004 -1.408222629086653E-004
 -1.408267266573134E-004 -1.408165225161831E-004
 -1.408268536677199E-004 -1.408164261685676E-004
 -1.408162975284180E-004 -1.408269873404810E-004
 -1.408152223324733E-004 -1.408280550395905E-004
 -1.408153486160358E-004 -1.408279373412007E-004
 -1.408248351721113E-004 -1.408184207389676E-004
 -1.408173610034543E-004 -1.408259098060228E-004
 -1.408151214651997E-004 -1.408281673879346E-004
 -1.408197695317117E-004 -1.408234957113786E-004
 -1.408247413035973E-004 -1.408185397836142E-004
 -1.408160615513239E-004 -1.408272418679959E-004
 -1.408185352181395E-004 -1.408247572673645E-004
 -1.408246573280214E-004 -1.408186175474257E-004
 -1.408293515590623E-004 -1.408139469513555E-004
 -1.408067653019186E-004 -1.408365216384313E-004
 -1.408146072345168E-004 -1.408286663564396E-004
 -1.408276416221389E-004 -1.408156267995088E-004
 -1.408266153552550E-004 -1.408166563483849E-004
 -1.408225250843103E-004 -1.408207646679660E-004
 -1.408214964442994E-004 -1.408217974530746E-004
 -1.408324624419481E-004 -1.408108027351501E-004
 -1.408225307348600E-004 -1.408207585789085E-004
 -1.408268080501522E-004 -1.408164977974173E-004
 -1.408224754058500E-004 -1.408208152025991E-004
 -1.408189686429757E-004 -1.408243085477413E-004
 -1.408222869424296E-004 -1.408209740073134E-004
 -1.408257751814067E-004 -1.408175057834600E-004
 -1.408225389710905E-004 -1.408207464542010E-004
 -1.408266247535593E-004 -1.408166732042944E-004
 -1.408265018676951E-004 -1.408167857410226E-004
 -1.408232625498377E-004 -1.408200159315046E-004
 -1.408261365044238E-004 -1.408171345441854E-004
 -1.408208479392423E-004 -1.408224220392970E-004
 -1.408194826960561E-004 -1.408237855270835E-004
 -1.408319717495269E-004 -1.408112992961452E-004
 -1.408210298560252E-004 -1.408222463796400E-004
 -1.408193335981834E-004 -1.408239552476368E-004
 -1.408240262739459E-004 -1.408192734128343E-004
 -1.408261679188018E-004 -1.408171283633248E-004
 -1.408302865270002E-004 -1.408129770577632E-004
 -1.408281352185528E-004 -1.408151583438222E-004
 -1.408234228971426E-004 -1.408198679667157E-004
 -1.408250187927302E-004 -1.408182483190207E-004
 -1.408243471814585E-004 -1.408189239161468E-004
 -1.408139032016543E-004 -1.408293769748995E-004
 -1.408235826476337E-004 -1.408197036195630E-004
 -1.408152515930539E-004 -1.408280462854248E-004
 -1.408199103187429E-004 -1.408233821005278E-004
 -1.408226006151249E-004 -1.408206737264651E-004
 -1.408201063024631E-004 -1.408231630124410E-004
 -1.408144050507693E-004 -1.408288761852166E-004
 Gradient of SCF Energy
            1           2           3           4           5           6
    1  -0.0091914   0.0112920   0.0061750  -0.0098165  -0.0064664   0.0054091
    2   0.0027170  -0.0034860   0.0012939   0.0069343  -0.0024556  -0.0037311
    3  -0.0059782   0.0073092   0.0071201  -0.0019251  -0.0074416   0.0025272
            7           8           9          10          11          12
    1   0.0047552  -0.0027406  -0.0002576   0.0011509   0.0005815   0.0001935
    2  -0.0056150   0.0019424   0.0040456  -0.0030007   0.0009539  -0.0044217
    3  -0.0009017  -0.0011763   0.0031932  -0.0017599   0.0008416  -0.0032239
           13          14          15          16          17          18
    1  -0.0009611   0.0037773  -0.0002623  -0.0011793  -0.0004063  -0.0017950
    2   0.0006022   0.0034049  -0.0001532  -0.0008709   0.0003120   0.0008887
    3  -0.0000175   0.0049384  -0.0002393  -0.0020546  -0.0001035  -0.0008557
           19          20          21          22          23          24
    1  -0.0015888  -0.0003936  -0.0010436  -0.0006559   0.0007338  -0.0006441
    2   0.0002697  -0.0002265   0.0019993   0.0001166  -0.0000114   0.0002757
    3  -0.0011390  -0.0004737  -0.0004081  -0.0004090   0.0005499  -0.0012748
           25          26          27          28          29          30
    1  -0.0013569  -0.0000711   0.0008515  -0.0015234   0.0013340   0.0018400
    2  -0.0001567   0.0007297  -0.0004362  -0.0029514   0.0013981   0.0001787
    3  -0.0003814   0.0007509  -0.0010855   0.0008587   0.0023409  -0.0028886
           31          32          33          34          35          36
    1  -0.0003818  -0.0022179   0.0015046  -0.0001340  -0.0024845   0.0012760
    2  -0.0027716   0.0017507   0.0011541  -0.0014118  -0.0004876   0.0018471
    3   0.0003092  -0.0010323   0.0023002  -0.0000476   0.0002412   0.0020296
           37          38          39          40          41          42
    1   0.0022253  -0.0030962   0.0020597   0.0002855  -0.0003127   0.0019512
    2  -0.0019938  -0.0006149  -0.0024017   0.0023159   0.0011571  -0.0022151
    3   0.0003021   0.0013910   0.0001840  -0.0025094  -0.0022323   0.0004393
           43          44          45          46
    1   0.0009243   0.0017946   0.0015410  -0.0026751
    2   0.0014969  -0.0008774   0.0011843   0.0013217
    3   0.0023106  -0.0020235   0.0023059  -0.0006608
 Max gradient component =       1.129E-02
 RMS gradient           =       2.826E-03
 Computing fast IEFPCM-SWIG gradient.
 Updating gradient with PCM contributions...
 -- total gradient after adding PCM contribution --
---------------------------------------------------
  Atom         X              Y              Z     
---------------------------------------------------
   1      -0.004082       0.001216      -0.002710
   2       0.004677      -0.001522       0.003104
   3       0.006171       0.001822       0.007524
   4      -0.010125       0.008352      -0.001150
   5      -0.006325      -0.003650      -0.008273
   6       0.005538      -0.004287       0.002180
   7       0.006470      -0.006522      -0.000126
   8      -0.002251       0.002976       0.000109
   9      -0.001079       0.006013       0.004054
  10      -0.001486      -0.002181      -0.003441
  11      -0.001936       0.001711      -0.000826
  12      -0.000264      -0.005864      -0.004652
  13       0.000201      -0.000650       0.000034
  14       0.005624       0.003000       0.006311
  15      -0.000549      -0.000017      -0.000388
  16      -0.001076      -0.000794      -0.001895
  17       0.000024      -0.000589      -0.000458
  18      -0.000041       0.000060       0.000026
  19      -0.000050       0.000083       0.000059
  20      -0.000196       0.000210       0.000025
  21      -0.000907       0.001848      -0.000383
  22      -0.001062       0.000183      -0.000751
  23       0.000579      -0.000594      -0.000029
  24       0.000037       0.000175      -0.001274
  25      -0.001085      -0.000598       0.000048
  26       0.000588       0.000357       0.001060
  27       0.000937       0.000216      -0.000827
  28      -0.001496      -0.002474       0.000716
  29       0.001040       0.001028       0.001775
  30       0.001477       0.000277      -0.002591
  31      -0.000503      -0.002857       0.000182
  32      -0.001949       0.001362      -0.000924
  33       0.001134       0.000881       0.001889
  34      -0.000311      -0.001016       0.000490
  35      -0.002677      -0.000356       0.000295
  36       0.001042       0.001653       0.001887
  37       0.001825      -0.001604       0.000379
  38      -0.002610      -0.000359       0.001417
  39       0.001552      -0.001896       0.000108
  40       0.000326       0.002191      -0.001966
  41      -0.000411       0.001374      -0.002292
  42       0.001663      -0.001737       0.000393
  43       0.000844       0.001429       0.002003
  44       0.001715      -0.000927      -0.002192
  45       0.001275       0.001005       0.001780
  46      -0.002270       0.001073      -0.000701
---------------------------------------------------
 Number of fixed atoms: 0
 Gradient time:  CPU 135.86 s  wall 53.73 s
 Geometry Optimization Parameters
   NAtoms,    NIC,     NZ,  NCons,   NDum,   NFix, NCnnct, MaxDiis
       46     353       0       0       0       0       0       0

 Cartesian Hessian Update
 Hessian Updated using BFGS Update


** GEOMETRY OPTIMIZATION IN DELOCALIZED INTERNAL COORDINATES **
   Searching for a Minimum

   Optimization Cycle:   2

                       Coordinates (Angstroms)
     ATOM                X               Y               Z
      1  H        -0.0431148548   -1.7067114467    2.5971995544
      2  N         0.7811781284   -1.9479395106    3.1278553505
      3  C         1.5504883084   -3.0672595410    2.9404693588
      4  C         2.5942765927   -3.0534075996    3.8672677737
      5  C         2.4360083126   -1.8706197339    4.6489456375
      6  C         1.3033996091   -1.2160224503    4.1639503599
      7  C         3.1566055578   -1.3385216736    5.7140424188
      8  C         2.7358174044   -0.1487400126    6.2977738435
      9  C         1.5860701812    0.4903280461    5.7874700099
     10  C         0.8620001206   -0.0252801910    4.7252157682
     11  C         1.4098865189   -4.1080911003    2.0295419824
     12  C         2.3369194181   -5.1406734039    2.0713073134
     13  C         3.3990451982   -5.1557959189    2.9959344900
     14  C         3.5182413230   -4.0943188032    3.8918952415
     15  H         4.0288646912   -1.8641539125    6.0739225315
     16  C         3.4785526143    0.4758514721    7.4714052247
     17  H         1.2468514799    1.4155048117    6.2333832051
     18  H        -0.0187763496    0.4845674610    4.3554023968
     19  H         0.6004745711   -4.1258518551    1.3102397772
     20  H         2.2184780595   -5.9500345458    1.3654905226
     21  C         4.4090547469   -6.2993071373    3.0508390538
     22  H         4.3203831988   -4.0758917620    4.6174572768
     23  C         4.1139518879   -7.3799677540    2.0063658953
     24  C         4.3640773661   -6.9533937791    4.4401454536
     25  C         5.8192249011   -5.7518700995    2.7883322818
     26  C         4.7035127869   -0.3451028158    7.8896440657
     27  C         2.5333258092    0.5624203037    8.6776687900
     28  H         4.4244745686   -1.3554545364    8.2090911186
     29  H         5.2040949717    0.1395911466    8.7335890520
     30  H         5.4335660194   -0.4269925434    7.0765663280
     31  H         2.1838434125   -0.4361621072    8.9615181470
     32  H         1.6516072270    1.1745211761    8.4644055279
     33  H         3.0433195024    1.0031299304    9.5415436440
     34  C         3.9592543148    1.8785360682    7.0748993060
     35  H         3.3608502080   -7.3333354882    4.6597292624
     36  H         4.6331050988   -6.2480836436    5.2328546799
     37  H         5.0688701492   -7.7905189244    4.4968678281
     38  H         3.1257326700   -7.8265401510    2.1614112811
     39  H         4.8539664582   -8.1835431492    2.0762841800
     40  H         4.1589812854   -6.9763852500    0.9890417323
     41  H         5.8710294248   -5.2651637030    1.8088644351
     42  H         6.5582981399   -6.5608514341    2.8096017988
     43  H         6.1195261857   -5.0169267273    3.5419576353
     44  H         4.6307149237    1.8237356792    6.2112419776
     45  H         4.5027732747    2.3521149970    7.9000492865
     46  H         3.1255445833    2.5348416125    6.8064972020
   Point Group: c1    Number of degrees of freedom:   132


   Energy is   -830.175839584

 Hessian Updated using BFGS Update

116 Hessian modes will be used to form the next step
  Hessian Eigenvalues:
     0.002287    0.002985    0.003093    0.003621    0.003723    0.003774
     0.004233    0.004366    0.013311    0.013462    0.018934    0.019175
     0.019645    0.019786    0.021818    0.022368    0.022480    0.022591
     0.022613    0.022726    0.022937    0.023583    0.024037    0.024327
     0.025786    0.025854    0.026390    0.050078    0.050172    0.051149
     0.051487    0.053201    0.053509    0.053631    0.054193    0.054336
     0.054750    0.054800    0.054856    0.055031    0.055191    0.055552
     0.056258    0.056383    0.056416    0.145263    0.147324    0.152434
     0.154831    0.159429    0.159994    0.159995    0.159997    0.159998
     0.159999    0.159999    0.160000    0.160689    0.224447    0.224689
     0.231778    0.234981    0.245166    0.246411    0.247660    0.249505
     0.249986    0.252207    0.275246    0.279330    0.280141    0.283551
     0.284149    0.284523    0.287791    0.290074    0.322866    0.323108
     0.323530    0.323612    0.324411    0.324458    0.324640    0.324654
     0.324895    0.325014    0.325145    0.325177    0.325245    0.325528
     0.325637    0.326551    0.326920    0.327580    0.357125    0.357190
     0.358606    0.359016    0.361640    0.361796    0.378709    0.390569
     0.408212    0.410183    0.411504    0.420831    0.430725    0.439512
     0.456376    0.465817    0.467449    0.481475    0.483469    0.504296
     0.534400    0.559491

 Minimum Search - Taking Simple RFO Step
 Searching for Lamda that Minimizes Along All modes
 Value Taken    Lamda =  -0.00211289
 Step Taken.  Stepsize is  0.150996

                             Maximum     Tolerance    Cnvgd?
         Gradient           0.010561      0.000300      NO
         Displacement       0.059041      0.001200      NO
         Energy change     -0.023985      0.000001      NO


 New Cartesian Coordinates Obtained by Inverse Iteration

 Displacement from previous Coordinates is:  0.712893
 Adding empirical dispersion correction 
 ----------------------------------------------------------------
 Doing -D3(BJ) with
 s6 =   1.00000
 s8 =   0.00000
 a1 =   0.48600
 a2 =   4.50000
 -D3 energy including 3body term =     -0.0334125022 hartrees
 ----------------------------------------------------------------
 Adding gCP correction 
 ----------------------------------------------------------------
 gCP energy =      0.0613137732 hartrees
 ----------------------------------------------------------------
             Standard Nuclear Orientation (Angstroms)
    I     Atom           X                Y                Z
 ----------------------------------------------------------------
    1      H      -0.0093042517    -1.6925145624     2.5916957463
    2      N       0.8092056247    -1.9356656706     3.1177926547
    3      C       1.5730197244    -3.0588574799     2.9293742394
    4      C       2.6232737724    -3.0604201035     3.8635743522
    5      C       2.4665074552    -1.8684241438     4.6545794632
    6      C       1.3292063001    -1.2112272944     4.1606300531
    7      C       3.1706234571    -1.3265667100     5.7272157012
    8      C       2.7464388340    -0.1441658559     6.3118224670
    9      C       1.5974301160     0.4803774472     5.7932362007
   10      C       0.8816009058    -0.0270876415     4.7287124183
   11      C       1.4236588113    -4.0963260745     2.0205334590
   12      C       2.3376880415    -5.1342524748     2.0647423218
   13      C       3.3967190501    -5.1748366664     2.9835687891
   14      C       3.5254182408    -4.1196098572     3.8788750065
   15      H       4.0453532675    -1.8455078320     6.0934539641
   16      C       3.4750790192     0.5030163436     7.4863714501
   17      H       1.2511490704     1.4036063516     6.2406072182
   18      H       0.0006689982     0.4820341261     4.3585422414
   19      H       0.6151113200    -4.1071947196     1.3001674445
   20      H       2.2093308389    -5.9403546591     1.3566137249
   21      C       4.3937135528    -6.3337347610     3.0348668874
   22      H       4.3293500366    -4.1185877631     4.6059931508
   23      C       4.1072279784    -7.4098973549     1.9854920316
   24      C       4.3361108400    -6.9973665637     4.4167344416
   25      C       5.8088844900    -5.7978671238     2.7861808862
   26      C       4.7332947305    -0.2664207923     7.8895069299
   27      C       2.5407420924     0.5530705432     8.7021035839
   28      H       4.5069477475    -1.2840557598     8.2105231831
   29      H       5.2186598705     0.2366565909     8.7266432398
   30      H       5.4598204220    -0.3184766650     7.0774015613
   31      H       2.2278830642    -0.4503811799     8.9929927924
   32      H       1.6396050170     1.1337135712     8.5041833300
   33      H       3.0443068630     1.0102087420     9.5560981614
   34      C       3.8943594426     1.9279112226     7.1015414057
   35      H       3.3397752967    -7.3904967213     4.6215772220
   36      H       4.5865416224    -6.2995171355     5.2159160406
   37      H       5.0440258029    -7.8265762084     4.4729859111
   38      H       3.1239567084    -7.8626329009     2.1203111608
   39      H       4.8453141174    -8.2085835143     2.0675494419
   40      H       4.1666469002    -7.0185505077     0.9689742440
   41      H       5.8796586740    -5.3231533514     1.8069605905
   42      H       6.5393950819    -6.6086274576     2.8218326722
   43      H       6.1030771665    -5.0598067395     3.5329039562
   44      H       4.5534677837     1.9194138717     6.2327321479
   45      H       4.4263196421     2.4086692757     7.9246311993
   46      H       3.0370864607     2.5552961600     6.8564349126
 ----------------------------------------------------------------
 Nuclear Repulsion Energy =  1619.1455230977 hartrees
 There are       76 alpha and       76 beta electrons
 Discretize the solute cavity surface with Lebedev spheres
	Using 302 Lebedev grid points for each H atom
	Using 302 Lebedev grid points for other atoms
	Atomic van der Waals radii will be scaled by 1.20
 Remove points where switching function is < 1.0e-08
 Keep 5119 surface tesserae and discard 8773 interior tesserae
 Molecular Surface Area = 349.489 Angst**2
 Nucleus-field energy     =    -0.0000000195 hartrees
 Requested basis set is def2-mSVP
 There are 197 shells and 365 basis functions
 A cutoff of  1.0D-12 yielded  12166 shell pairs
 There are     44236 function pairs (     49052 Cartesian)
 Smallest overlap matrix eigenvalue = 3.13E-04
 Guess MOs from SCF MO coefficient file

 -----------------------------------------------------------------------
  General SCF calculation program by
  Eric Jon Sundstrom, Paul Horn, Yuezhi Mao, Dmitri Zuev, Alec White,
  David Stuck, Shaama M.S., Shane Yost, Joonho Lee, David Small,
  Daniel Levine, Susi Lehtola, Hugh Burton, Evgeny Epifanovsky
 -----------------------------------------------------------------------
 Exchange:     0.4200 Hartree-Fock + 0.5800 PBEh-3c
 Correlation:  1.0000 PBEh-3c
 Using SG-1 standard quadrature grid
 Dispersion:   Grimme D3
 using 4 threads for integral computing
 -------------------------------------------------------
 OpenMP Integral computing Module                
 Release: version 2.0, May 2017, Q-Chem Inc. Pleasanton 
 -------------------------------------------------------
 -------------------------------------------------------
 OpenMP BLAS3 based DFT computing Module                
 Release: version 1.0, May 2013, Q-Chem Inc. Pittsburgh 
 -------------------------------------------------------
 A restricted SCF calculation will be
 performed using DIIS
 SCF converges when DIIS error is below 1.0e-09
 ---------------------------------------
  Cycle       Energy         DIIS error
 ---------------------------------------
 Using non-symmetric K matrix
    1    -829.8782133309      3.63e-04  
    2    -830.1756888424      2.03e-04  
    3    -830.1764318855      1.23e-04  
    4    -830.1766809107      3.73e-05  
    5    -830.1767015192      1.54e-05  
    6    -830.1767054971      4.45e-06  
    7    -830.1767057913      1.41e-06  
    8    -830.1767058216      5.46e-07  
    9    -830.1767058268      1.37e-07  
   10    -830.1767058271      3.46e-08  
   11    -830.1767058272      1.61e-08  
   12    -830.1767058272      3.61e-09  
   13    -830.1767058272      1.65e-09  
   14    -830.1767058272      5.23e-10  Convergence criterion met
 ---------------------------------------
 SCF time:   CPU 1175.02s  wall 311.00s 

************** Final PCM Free Energy Summary **************
 G_electrostatic  =      -0.00704235 hartree =      -4.41914254 kcal/mol
 G_cavitation     =       0.00000000 hartree =       0.00000000 kcal/mol
 G_dispersion     =       0.00000000 hartree =       0.00000000 kcal/mol
 G_repulsion      =       0.00000000 hartree =       0.00000000 kcal/mol
 --------------------------------------------------
 Non-electrostatic Free Energy =       0.00000000 hartree =       0.00000000 kcal/mol
 Total                         =      -0.00704235 hartree =      -4.41914254 kcal/mol
 --------------------------------------------------
 SCF Energy (H0 + V/2)                       =    -830.17670583 
 Solute Internal Energy (H0)                 =    -830.16966348 
 Total Free Energy (H0 + V/2 + non-elec)     =    -830.17670583 hartree
                                             = -520943.74551014 kcal/mol
***********************************************************

 SCF   energy in the final basis set =     -830.1767058272
 Total energy in the final basis set =     -830.1767058272
 
 --------------------------------------------------------------
 
                    Orbital Energies (a.u.)
 --------------------------------------------------------------
 
 Alpha MOs
 -- Occupied --
-14.675 -10.481 -10.480 -10.454 -10.454 -10.444 -10.444 -10.443
-10.443 -10.443 -10.443 -10.441 -10.441 -10.441 -10.440 -10.419
-10.419 -10.418 -10.418 -10.418 -10.418  -1.091  -0.956  -0.952
 -0.906  -0.905  -0.867  -0.831  -0.807  -0.805  -0.766  -0.762
 -0.761  -0.761  -0.724  -0.691  -0.679  -0.650  -0.626  -0.607
 -0.603  -0.580  -0.544  -0.529  -0.524  -0.508  -0.504  -0.500
 -0.494  -0.491  -0.490  -0.480  -0.474  -0.473  -0.457  -0.445
 -0.442  -0.441  -0.426  -0.424  -0.412  -0.411  -0.408  -0.403
 -0.399  -0.386  -0.374  -0.371  -0.370  -0.365  -0.362  -0.359
 -0.324  -0.287  -0.248  -0.234
 -- Virtual --
 -0.009   0.030   0.056   0.068   0.131   0.133   0.149   0.163
  0.167   0.171   0.180   0.188   0.192   0.198   0.201   0.203
  0.204   0.205   0.217   0.224   0.227   0.228   0.233   0.234
  0.238   0.245   0.249   0.256   0.260   0.261   0.262   0.265
  0.274   0.276   0.283   0.289   0.295   0.297   0.302   0.308
  0.319   0.324   0.350   0.358   0.375   0.387   0.417   0.429
  0.441   0.458   0.480   0.490   0.499   0.506   0.514   0.515
  0.520   0.531   0.540   0.549   0.554   0.560   0.563   0.576
  0.579   0.580   0.590   0.598   0.605   0.607   0.617   0.621
  0.630   0.631   0.640   0.643   0.648   0.652   0.659   0.661
  0.666   0.673   0.695   0.707   0.715   0.719   0.744   0.752
[...]
  37       0.000055       0.000012       0.000001
  38       0.000017      -0.000018       0.000024
  39       0.000034      -0.000005       0.000009
  40       0.000006      -0.000007       0.000002
  41      -0.000007       0.000013      -0.000021
  42       0.000020       0.000018      -0.000013
  43       0.000012       0.000031      -0.000010
  44      -0.000027       0.000018      -0.000042
  45      -0.000020       0.000023      -0.000027
  46      -0.000046       0.000012      -0.000026
---------------------------------------------------
 Number of fixed atoms: 0
 Gradient time:  CPU 122.83 s  wall 47.73 s
 Geometry Optimization Parameters
   NAtoms,    NIC,     NZ,  NCons,   NDum,   NFix, NCnnct, MaxDiis
       46     353       0       0       0       0       0       0

 Cartesian Hessian Update
 Hessian Updated using BFGS Update


** GEOMETRY OPTIMIZATION IN DELOCALIZED INTERNAL COORDINATES **
   Searching for a Minimum

   Optimization Cycle:   9

                       Coordinates (Angstroms)
     ATOM                X               Y               Z
      1  H        -0.0079277847   -1.6989193372    2.5986526365
      2  N         0.8177979469   -1.9360352927    3.1187911155
      3  C         1.5807713641   -3.0584825780    2.9284407843
      4  C         2.6328252459   -3.0581894067    3.8629991958
      5  C         2.4719247710   -1.8649235920    4.6566871538
      6  C         1.3329731689   -1.2103113175    4.1619373484
      7  C         3.1721452266   -1.3197002164    5.7290859208
      8  C         2.7447683867   -0.1377363368    6.3135641513
      9  C         1.5924005464    0.4831239738    5.7961526549
     10  C         0.8790037481   -0.0284292192    4.7311455669
     11  C         1.4300785723   -4.0976789551    2.0216905222
     12  C         2.3441756259   -5.1371287799    2.0666494254
     13  C         3.4034665425   -5.1750210291    2.9846149259
     14  C         3.5325321874   -4.1174473512    3.8794039336
     15  H         4.0495243757   -1.8352712213    6.0958872978
     16  C         3.4711824487    0.5069422760    7.4881662981
     17  H         1.2396316808    1.4031980695    6.2455963316
     18  H        -0.0048138314    0.4758793107    4.3611504411
     19  H         0.6208655114   -4.1102573517    1.3020832793
     20  H         2.2162386593   -5.9458791063    1.3605070058
     21  C         4.3963361681   -6.3349106088    3.0345454782
     22  H         4.3362713686   -4.1154777767    4.6069535085
     23  C         4.0949976743   -7.4071796298    1.9865665000
     24  C         4.3427805117   -6.9962397245    4.4176615108
     25  C         5.8125791913   -5.8053272778    2.7761512226
     26  C         4.7244894572   -0.2714863327    7.8880191983
     27  C         2.5336177878    0.5593200862    8.7007006937
     28  H         4.4918470467   -1.2884587465    8.2091992133
     29  H         5.2172184995    0.2264177872    8.7248278730
     30  H         5.4482562588   -0.3296889177    7.0728547153
     31  H         2.2178499529   -0.4433440470    8.9933905298
     32  H         1.6335028189    1.1411379026    8.4975514178
     33  H         3.0353782027    1.0181337615    9.5556346325
     34  C         3.8983754884    1.9296174822    7.1051443882
     35  H         3.3472281183   -7.3920515114    4.6247809843
     36  H         4.5925456767   -6.2959858365    5.2156034881
     37  H         5.0529729033   -7.8241823455    4.4736948572
     38  H         3.1097590490   -7.8552770073    2.1282844893
     39  H         4.8298604639   -8.2107260580    2.0604696660
     40  H         4.1471911424   -7.0141897950    0.9695127367
     41  H         5.8818478407   -5.3420263609    1.7906158587
     42  H         6.5410306658   -6.6183515627    2.8186540052
     43  H         6.1110377461   -5.0590997089    3.5135738215
     44  H         4.5580375204    1.9185819278    6.2359718329
     45  H         4.4342202103    2.4046716208    7.9297358770
     46  H         3.0455538437    2.5646201405    6.8618755123
   Point Group: c1    Number of degrees of freedom:   132


   Energy is   -830.176759966

 Hessian Updated using BFGS Update

123 Hessian modes will be used to form the next step
  Hessian Eigenvalues:
     0.002823    0.003017    0.003125    0.003407    0.003688    0.003774
     0.003867    0.004430    0.008412    0.013368    0.014954    0.018938
     0.019358    0.019677    0.020444    0.022365    0.022481    0.022620
     0.022659    0.022925    0.023128    0.023541    0.024100    0.024337
     0.025763    0.026113    0.026439    0.050204    0.050300    0.051636
     0.053119    0.053680    0.054180    0.054326    0.054708    0.054833
     0.054938    0.055008    0.055179    0.055487    0.056248    0.056389
     0.056561    0.060095    0.066872    0.146111    0.152605    0.155400
     0.156886    0.157980    0.159757    0.159924    0.159976    0.159995
     0.159996    0.159998    0.159999    0.160000    0.160000    0.160000
     0.160401    0.161050    0.162000    0.166936    0.167832    0.223164
     0.224771    0.227372    0.235220    0.246287    0.246384    0.249899
     0.257968    0.261560    0.272257    0.279512    0.279585    0.281993
     0.283317    0.284795    0.288349    0.312034    0.322876    0.323134
     0.323503    0.323799    0.324096    0.324447    0.324559    0.324638
     0.324879    0.324994    0.325088    0.325206    0.325293    0.325543
     0.325701    0.326818    0.328212    0.338426    0.341293    0.357140
     0.357240    0.358123    0.360083    0.362634    0.368436    0.381481
     0.392782    0.409787    0.411678    0.416625    0.420478    0.425384
     0.441115    0.456687    0.467880    0.475387    0.483031    0.498618
     0.523148    0.534577    0.561189

 Minimum Search - Taking Simple RFO Step
 Searching for Lamda that Minimizes Along All modes
 Value Taken    Lamda =   0.00000000
 Step Taken.  Stepsize is  0.014530

                             Maximum     Tolerance    Cnvgd?
         Gradient           0.000075      0.000300     YES
         Displacement       0.006919      0.001200      NO
         Energy change     -0.000000      0.000001     YES

 Final energy is   -830.176759965665     


 ******************************
 **  OPTIMIZATION CONVERGED  **
 ******************************

                       Coordinates (Angstroms)
     ATOM                X               Y               Z
      1  H        -0.0079277847   -1.6989193372    2.5986526365
      2  N         0.8177979469   -1.9360352927    3.1187911155
      3  C         1.5807713641   -3.0584825780    2.9284407843
      4  C         2.6328252459   -3.0581894067    3.8629991958
      5  C         2.4719247710   -1.8649235920    4.6566871538
      6  C         1.3329731689   -1.2103113175    4.1619373484
      7  C         3.1721452266   -1.3197002164    5.7290859208
      8  C         2.7447683867   -0.1377363368    6.3135641513
      9  C         1.5924005464    0.4831239738    5.7961526549
     10  C         0.8790037481   -0.0284292192    4.7311455669
     11  C         1.4300785723   -4.0976789551    2.0216905222
     12  C         2.3441756259   -5.1371287799    2.0666494254
     13  C         3.4034665425   -5.1750210291    2.9846149259
     14  C         3.5325321874   -4.1174473512    3.8794039336
     15  H         4.0495243757   -1.8352712213    6.0958872978
     16  C         3.4711824487    0.5069422760    7.4881662981
     17  H         1.2396316808    1.4031980695    6.2455963316
     18  H        -0.0048138314    0.4758793107    4.3611504411
     19  H         0.6208655114   -4.1102573517    1.3020832793
     20  H         2.2162386593   -5.9458791063    1.3605070058
     21  C         4.3963361681   -6.3349106088    3.0345454782
     22  H         4.3362713686   -4.1154777767    4.6069535085
     23  C         4.0949976743   -7.4071796298    1.9865665000
     24  C         4.3427805117   -6.9962397245    4.4176615108
     25  C         5.8125791913   -5.8053272778    2.7761512226
     26  C         4.7244894572   -0.2714863327    7.8880191983
     27  C         2.5336177878    0.5593200862    8.7007006937
     28  H         4.4918470467   -1.2884587465    8.2091992133
     29  H         5.2172184995    0.2264177872    8.7248278730
     30  H         5.4482562588   -0.3296889177    7.0728547153
     31  H         2.2178499529   -0.4433440470    8.9933905298
     32  H         1.6335028189    1.1411379026    8.4975514178
     33  H         3.0353782027    1.0181337615    9.5556346325
     34  C         3.8983754884    1.9296174822    7.1051443882
     35  H         3.3472281183   -7.3920515114    4.6247809843
     36  H         4.5925456767   -6.2959858365    5.2156034881
     37  H         5.0529729033   -7.8241823455    4.4736948572
     38  H         3.1097590490   -7.8552770073    2.1282844893
     39  H         4.8298604639   -8.2107260580    2.0604696660
     40  H         4.1471911424   -7.0141897950    0.9695127367
     41  H         5.8818478407   -5.3420263609    1.7906158587
     42  H         6.5410306658   -6.6183515627    2.8186540052
     43  H         6.1110377461   -5.0590997089    3.5135738215
     44  H         4.5580375204    1.9185819278    6.2359718329
     45  H         4.4342202103    2.4046716208    7.9297358770
     46  H         3.0455538437    2.5646201405    6.8618755123

Z-matrix Print:
$molecule
0 1
N 
H  1 1.004286
C  1 1.370492 2 125.392086
C  1 1.371217 2 125.306572 3 -177.626105 0
C  3 1.387384 1 130.073722 2 0.280825 0
H  5 1.082967 3 121.610465 1 0.840637 0
C  5 1.384937 3 117.987071 1 -178.626370 0
H  7 1.081241 5 117.522235 3 179.646825 0
C  4 1.388140 1 129.768796 2 -0.336242 0
H  9 1.082754 4 121.559587 1 -0.396403 0
C  9 1.380167 4 117.577508 1 179.288072 0
H  11 1.083043 9 117.822439 4 -179.782153 0
C  7 1.402210 5 122.693703 3 -0.027401 0
C  13 1.391319 7 118.070792 5 -0.164046 0
H  14 1.084126 13 120.115828 7 179.664656 0
C  14 1.389881 13 120.774877 7 0.194730 0
C  4 1.403747 1 109.035304 2 178.704661 0
C  17 1.391983 4 119.803156 1 -179.747412 0
H  18 1.081735 17 118.852595 4 -179.801144 0
C  18 1.386111 17 120.248860 4 0.337952 0
C  20 1.524132 18 122.595097 17 -179.926711 0
C  13 1.527621 7 122.202447 5 179.305689 0
C  21 1.528598 20 112.145926 18 2.115358 0
H  23 1.091302 21 109.781339 20 179.570985 0
H  23 1.091564 21 112.127394 20 -61.387555 0
H  23 1.091659 21 112.050144 20 60.436976 0
C  22 1.529322 13 112.451247 7 0.163991 0
H  27 1.091408 22 109.702769 13 179.894525 0
H  27 1.091588 22 112.124733 13 60.885882 0
H  27 1.091591 22 112.129169 13 -61.038529 0
C  21 1.533627 20 109.414096 18 -117.910208 0
H  31 1.090866 21 112.050063 20 -60.083448 0
H  31 1.091198 21 110.952585 20 60.124563 0
H  31 1.092330 21 110.630003 20 179.968767 0
C  22 1.533940 13 109.416555 7 120.140330 0
H  35 1.090745 22 112.020889 13 59.469024 0
H  35 1.091204 22 110.936344 13 -60.823273 0
H  35 1.092454 22 110.618847 13 179.362204 0
C  21 1.534016 20 109.425519 18 121.955610 0
H  39 1.090740 21 112.201950 20 60.951806 0
H  39 1.091209 21 110.968170 20 -59.343122 0
H  39 1.092134 21 110.580344 20 -179.183591 0
C  22 1.534026 13 109.518373 7 -119.892808 0
H  43 1.090619 22 112.016288 13 -59.765226 0
H  43 1.091187 22 111.061392 13 60.626521 0
H  43 1.092246 22 110.508181 13 -179.569764 0
$end

 
 --------------------------------------------------------------
 
                    Orbital Energies (a.u.)
 --------------------------------------------------------------
 
 Alpha MOs
 -- Occupied --
-14.675 -10.481 -10.481 -10.454 -10.454 -10.444 -10.444 -10.443
-10.443 -10.443 -10.443 -10.442 -10.442 -10.441 -10.440 -10.419
-10.419 -10.419 -10.419 -10.418 -10.418  -1.092  -0.956  -0.952
 -0.906  -0.905  -0.867  -0.831  -0.807  -0.805  -0.766  -0.762
 -0.761  -0.761  -0.723  -0.691  -0.679  -0.650  -0.626  -0.607
 -0.603  -0.580  -0.544  -0.529  -0.524  -0.508  -0.504  -0.500
 -0.494  -0.491  -0.490  -0.479  -0.474  -0.473  -0.457  -0.445
 -0.442  -0.441  -0.425  -0.424  -0.412  -0.411  -0.408  -0.403
 -0.399  -0.386  -0.375  -0.371  -0.370  -0.365  -0.362  -0.359
 -0.324  -0.287  -0.248  -0.234
 -- Virtual --
 -0.009   0.030   0.057   0.068   0.131   0.133   0.149   0.163
  0.167   0.171   0.181   0.188   0.192   0.198   0.200   0.203
  0.204   0.205   0.217   0.224   0.227   0.228   0.232   0.234
  0.237   0.245   0.249   0.256   0.260   0.261   0.261   0.265
  0.274   0.276   0.283   0.288   0.295   0.297   0.302   0.308
  0.319   0.325   0.350   0.358   0.375   0.388   0.417   0.429
  0.441   0.458   0.480   0.490   0.499   0.506   0.514   0.515
  0.520   0.531   0.540   0.549   0.554   0.560   0.563   0.576
  0.579   0.580   0.590   0.598   0.605   0.607   0.617   0.621
  0.630   0.631   0.640   0.643   0.648   0.653   0.659   0.661
  0.666   0.673   0.695   0.707   0.715   0.719   0.743   0.753
  0.773   0.777   0.784   0.790   0.792   0.797   0.803   0.808
  0.816   0.821   0.825   0.840   0.853   0.862   0.902   0.912
  0.919   0.929   0.936   0.949   0.962   0.972   0.989   1.009
  1.012   1.022   1.032   1.038   1.041   1.041   1.041   1.044
  1.044   1.046   1.052   1.056   1.064   1.071   1.073   1.080
  1.081   1.097   1.109   1.109   1.113   1.116   1.120   1.138
  1.150   1.165   1.188   1.201   1.213   1.228   1.239   1.258
  1.275   1.306   1.308   1.313   1.342   1.364   1.378   1.382
  1.393   1.398   1.402   1.422   1.437   1.455   1.486   1.492
  1.508   1.515   1.535   1.541   1.546   1.568   1.570   1.572
  1.576   1.595   1.631   1.659   1.675   1.705   1.710   1.730
  1.732   1.775   1.804   1.805   1.824   1.832   1.837   1.856
  1.882   1.903   1.917   1.924   1.924   1.939   1.950   1.952
  1.959   1.973   2.002   2.007   2.021   2.045   2.090   2.095
  2.114   2.129   2.135   2.136   2.146   2.149   2.152   2.162
  2.176   2.190   2.198   2.210   2.229   2.246   2.268   2.270
  2.292   2.298   2.325   2.327   2.329   2.341   2.343   2.347
  2.350   2.352   2.362   2.369   2.373   2.378   2.383   2.386
  2.426   2.471   2.480   2.514   2.527   2.540   2.569   2.593
  2.633   2.653   2.668   2.679   2.693   2.696   2.731   2.740
  2.744   2.758   2.766   2.782   2.815   2.815   2.835   2.846
  2.886   2.923   2.944   2.971   2.977   3.078   3.096   3.106
  3.318   3.436   3.467   3.616  13.247  13.446  13.625  13.665
 13.698  13.809  13.863  13.882  13.883  13.918  13.947  14.027
 14.147  14.195  14.209  14.256  14.278  14.334  14.566  14.618
 19.483
 --------------------------------------------------------------
 
          Ground-State Mulliken Net Atomic Charges

     Atom                 Charge (a.u.)
  ----------------------------------------
      1 H                     0.376293
      2 N                    -0.796150
      3 C                     0.336110
      4 C                     0.119704
      5 C                     0.127882
      6 C                     0.334192
      7 C                    -0.468640
      8 C                     0.201200
      9 C                    -0.307128
     10 C                    -0.282484
     11 C                    -0.277221
     12 C                    -0.336033
     13 C                     0.203651
     14 C                    -0.441306
     15 H                     0.219801
     16 C                    -0.174955
     17 H                     0.221303
     18 H                     0.226864
     19 H                     0.225403
     20 H                     0.228811
     21 C                    -0.173098
     22 H                     0.212339
     23 C                    -0.656574
     24 C                    -0.613661
     25 C                    -0.613594
     26 C                    -0.656693
     27 C                    -0.613295
     28 H                     0.223638
     29 H                     0.229456
     30 H                     0.225173
     31 H                     0.226597
     32 H                     0.218162
     33 H                     0.214685
     34 C                    -0.615865
     35 H                     0.226278
     36 H                     0.218940
     37 H                     0.214033
     38 H                     0.223894
     39 H                     0.228734
     40 H                     0.223822
     41 H                     0.226096
     42 H                     0.213969
     43 H                     0.219139
     44 H                     0.227393
     45 H                     0.215305
     46 H                     0.217831
  ----------------------------------------
  Sum of atomic charges =    -0.000000

 -----------------------------------------------------------------
                    Cartesian Multipole Moments
 -----------------------------------------------------------------
    Charge (ESU x 10^10)
                -0.0000
    Dipole Moment (Debye)
         X      -1.3424      Y       0.3983      Z      -0.7058
       Tot       1.5681
    Quadrupole Moments (Debye-Ang)
        XX    -124.2611     XY      -2.2916     YY    -122.8981
        XZ       2.3890     YZ       8.0468     ZZ    -128.2308
    Octopole Moments (Debye-Ang^2)
       XXX   -1121.0992    XXY     303.4683    XYY    -348.4564
       YYY     956.1911    XXZ    -545.1413    XYZ     -12.5573
       YYZ    -595.4953    XZZ    -332.1421    YZZ     387.4903
       ZZZ   -1740.7918
    Hexadecapole Moments (Debye-Ang^3)
      XXXX   -8463.5233   XXXY    3403.9903   XXYY   -3144.7586
      XYYY    3264.8920   YYYY  -11324.4094   XXXZ   -5182.8054
      XXYZ     799.8962   XYYZ   -1693.3757   YYYZ    2826.4735
      XXZZ   -4382.1004   XYZZ    1160.0896   YYZZ   -5317.1354
      XZZZ   -4932.9415   YZZZ    3176.1293   ZZZZ  -19457.7532
 -----------------------------------------------------------------
Archival summary:
1\1\ctcp005\OPT\ProcedureUnspecified\BasisUnspecified\12025\mewes1\MonDec311:11:162018MonDec311:11:162018\0\\#,OPT,ProcedureUnspecified,BasisUnspecified,\\0,1\N\H,1,1.00429\C,1,1.37049,2,125.392\C,1,1.37122,2,125.307,3,-177.626,0\C,3,1.38738,1,130.074,2,0.280825,0\H,5,1.08297,3,121.61,1,0.840637,0\C,5,1.38494,3,117.987,1,-178.626,0\H,7,1.08124,5,117.522,3,179.647,0\C,4,1.38814,1,129.769,2,-0.336242,0\H,9,1.08275,4,121.56,1,-0.396403,0\C,9,1.38017,4,117.578,1,179.288,0\H,11,1.08304,9,117.822,4,-179.782,0\C,7,1.40221,5,122.694,3,-0.0274007,0\C,13,1.39132,7,118.071,5,-0.164046,0\H,14,1.08413,13,120.116,7,179.665,0\C,14,1.38988,13,120.775,7,0.19473,0\C,4,1.40375,1,109.035,2,178.705,0\C,17,1.39198,4,119.803,1,-179.747,0\H,18,1.08174,17,118.853,4,-179.801,0\C,18,1.38611,17,120.249,4,0.337952,0\C,20,1.52413,18,122.595,17,-179.927,0\C,13,1.52762,7,122.202,5,179.306,0\C,21,1.5286,20,112.146,18,2.11536,0\H,23,1.0913,21,109.781,20,179.571,0\H,23,1.09156,21,112.127,20,-61.3876,0\H,23,1.09166,21,112.05,20,60.437,0\C,22,1.52932,13,112.451,7,0.163991,0\H,27,1.09141,22,109.703,13,179.895,0\H,27,1.09159,22,112.125,13,60.8859,0\H,27,1.09159,22,112.129,13,-61.0385,0\C,21,1.53363,20,109.414,18,-117.91,0\H,31,1.09087,21,112.05,20,-60.0834,0\H,31,1.0912,21,110.953,20,60.1246,0\H,31,1.09233,21,110.63,20,179.969,0\C,22,1.53394,13,109.417,7,120.14,0\H,35,1.09075,22,112.021,13,59.469,0\H,35,1.0912,22,110.936,13,-60.8233,0\H,35,1.09245,22,110.619,13,179.362,0\C,21,1.53402,20,109.426,18,121.956,0\H,39,1.09074,21,112.202,20,60.9518,0\H,39,1.09121,21,110.968,20,-59.3431,0\H,39,1.09213,21,110.58,20,-179.184,0\C,22,1.53403,13,109.518,7,-119.893,0\H,43,1.09062,22,112.016,13,-59.7652,0\H,43,1.09119,22,111.061,13,60.6265,0\H,43,1.09225,22,110.508,13,-179.57,0\\\@

 Total job time:  3265.16s(wall), 11798.64s(cpu) 
 Mon Dec  3 11:11:16 2018

        *************************************************************
        *                                                           *
        *  Thank you very much for using Q-Chem.  Have a nice day.  *
        *                                                           *
        *************************************************************


0 sent ACK to 0 
now end server 0 ... 
