mFile = /cm/shared/apps/q-chem/intel/QCHEM_5.1.0_Trunk/bin/mpi/machines
Process 0 of 1 is on ctcp036 - thread support 0
initial socket setup ...start
initial socket setup ...done 
now start server 0 ... 
Q-Chem Developer Version!
                  Welcome to Q-Chem
     A Quantum Leap Into The Future Of Chemistry


 Q-Chem 5.1, Q-Chem, Inc., Pleasanton, CA (2018)

 Yihan Shao,  Zhengting Gan,  E. Epifanovsky,  A. T. B. Gilbert,  M. Wormit,  
 J. Kussmann,  A. W. Lange,  A. Behn,  Jia Deng,  Xintian Feng,  D. Ghosh,  
 M. Goldey,  P. R. Horn,  L. D. Jacobson,  I. Kaliman,  T. Kus,  A. Landau,  
 Jie Liu,  E. I. Proynov,  R. M. Richard,  R. P. Steele,  E. J. Sundstrom,  
 H. L. Woodcock III,  P. M. Zimmerman,  D. Zuev,  B. Albrecht,  E. Alguire,  
 S. A. Baeppler,  D. Barton,  Z. Benda,  Y. A. Bernard,  E. J. Berquist,  
 K. B. Bravaya,  H. Burton,  D. Casanova,  Chun-Min Chang,  Yunqing Chen,  
 A. Chien,  K. D. Closser,  M. P. Coons,  S. Coriani,  S. Dasgupta,  
 A. L. Dempwolff,  M. Diedenhofen,  Hainam Do,  R. G. Edgar,  Po-Tung Fang,  
 S. Faraji,  S. Fatehi,  Qingguo Feng,  K. D. Fenk,  J. Fosso-Tande,  
 Qinghui Ge,  A. Ghysels,  G. Gidofalvi,  J. Gomes,  J. Gonthier,  A. Gunina,  
 D. Hait,  M. W. D. Hanson-Heine,  P. H. P. Harbach,  A. W. Hauser,  
 J. E. Herr,  E. G. Hohenstein,  Z. C. Holden,  Kerwin Hui,  B. C. Huynh,  
 T.-C. Jagau,  Hyunjun Ji,  B. Kaduk,  K. Khistyaev,  Jaehoon Kim,  
 P. Klunzinger,  K. Koh,  D. Kosenkov,  L. Koulias,  T. Kowalczyk,  
 C. M. Krauter,  A. Kunitsa,  Ka Un Lao,  A. Laurent,  K. V. Lawler,  
 Joonho Lee,  D. Lefrancois,  S. Lehtola,  D. S. Levine,  Yi-Pei Li,  
 You-Sheng Lin,  Fenglai Liu,  E. Livshits,  A. Luenser,  P. Manohar,  
 E. Mansoor,  S. F. Manzer,  Shan-Ping Mao,  Yuezhi Mao,  N. Mardirossian,  
 A. V. Marenich,  T. Markovich,  L. A. Martinez-Martinez,  S. A. Maurer,  
 N. J. Mayhall,  S. C. McKenzie,  J.-M. Mewes,  A. F. Morrison,  
 J. W. Mullinax,  K. Nanda,  T. S. Nguyen-Beck,  R. Olivares-Amaya,  
 J. A. Parkhill,  T. M. Perrine,  F. Plasser,  P. Pokhilko,  S. Prager,  
 A. Prociuk,  E. Ramos,  D. R. Rehn,  F. Rob,  M. Schneider,  N. Sergueev,  
 S. M. Sharada,  S. Sharma,  D. W. Small,  T. Stauch,  T. Stein,  
 Yu-Chuan Su,  A. J. W. Thom,  A. Tkatchenko,  T. Tsuchimochi,  N. M. Tubman,  
 L. Vogt,  M. L. Vidal,  O. Vydrov,  M. A. Watson,  J. Wenzel,  
 M. de Wergifosse,  T. A. Wesolowski,  A. White,  J. Witte,  A. Yamada,  
 Jun Yang,  K. Yao,  S. Yeganeh,  S. R. Yost,  Zhi-Qiang You,  A. Zech,  
 Igor Ying Zhang,  Xing Zhang,  Yan Zhao,  Ying Zhu,  B. R. Brooks,  
 G. K. L. Chan,  C. J. Cramer,  M. S. Gordon,  W. J. Hehre,  A. Klamt,  
 M. W. Schmidt,  C. D. Sherrill,  D. G. Truhlar,  A. Aspuru-Guzik,  R. Baer,  
 A. T. Bell,  N. A. Besley,  Jeng-Da Chai,  A. E. DePrince, III,  
 R. A. DiStasio Jr.,  A. Dreuw,  B. D. Dunietz,  T. R. Furlani,  
 Chao-Ping Hsu,  Yousung Jung,  Jing Kong,  D. S. Lambrecht,  WanZhen Liang,  
 C. Ochsenfeld,  V. A. Rassolov,  L. V. Slipchenko,  J. E. Subotnik,  
 T. Van Voorhis,  J. M. Herbert,  A. I. Krylov,  P. M. W. Gill,  M. Head-Gordon

 Contributors to earlier versions of Q-Chem not listed above: 
 R. D. Adamson,  B. Austin,  J. Baker,  G. J. O. Beran,  K. Brandhorst,  
 S. T. Brown,  E. F. C. Byrd,  A. K. Chakraborty,  C.-L. Cheng,  
 Siu Hung Chien,  D. M. Chipman,  D. L. Crittenden,  H. Dachsel,  
 R. J. Doerksen,  A. D. Dutoi,  L. Fusti-Molnar,  W. A. Goddard III,  
 A. Golubeva-Zadorozhnaya,  S. R. Gwaltney,  G. Hawkins,  A. Heyden,  
 S. Hirata,  G. Kedziora,  F. J. Keil,  C. Kelley,  Jihan Kim,  R. A. King,  
 R. Z. Khaliullin,  P. P. Korambath,  W. Kurlancheek,  A. M. Lee,  M. S. Lee,  
 S. V. Levchenko,  Ching Yeh Lin,  D. Liotard,  R. C. Lochan,  I. Lotan,  
 P. E. Maslen,  N. Nair,  D. P. O'Neill,  D. Neuhauser,  E. Neuscamman,  
 C. M. Oana,  R. Olson,  B. Peters,  R. Peverati,  P. A. Pieniazek,  
 Y. M. Rhee,  J. Ritchie,  M. A. Rohrdanz,  E. Rosta,  N. J. Russ,  
 H. F. Schaefer III,  N. E. Schultz,  N. Shenvi,  A. C. Simmonett,  A. Sodt,  
 D. Stuck,  K. S. Thanthiriwatte,  V. Vanovschi,  Tao Wang,  A. Warshel,  
 C. F. Williams,  Q. Wu,  X. Xu,  W. Zhang

 Please cite Q-Chem as follows:
 Y. Shao et al., Mol. Phys. 113, 184-215 (2015)
 DOI: 10.1080/00268976.2014.952696

 Q-Chem 5.1.1 for Intel X86 EM64T Linux

 Parts of Q-Chem use Armadillo 8.300.2 (Tropical Shenanigans).
 http://arma.sourceforge.net/

 Q-Chem begins on Mon Dec  3 11:36:21 2018  

Host: ctcp036
0

     Scratch files written to /scratch/mewes1/141153/qchem7676//
 Parallel job on  1  processors
The previous job contains 0 fragments, simply inherited here
Symmetry turned off for PCM/SM12/SMD calculation
Input Ideriv = 2
Curr. Ideriv = -1
Max.  Ideriv = 2
Input Ideriv = 2
Curr. Ideriv = 2
Max.  Ideriv = 2

Checking the input file for inconsistencies... 	...done.

--------------------------------------------------------------
User input:
--------------------------------------------------------------
$rem
threads 4
jobtype opt
method PBEh-3c
basis def2-mSVP
mem_static      1024
mem_total       4000
sym_ignore      true
unrestricted true
scf_algorithm	diis
scf_max_cycles	250
solvent_method  pcm
geom_opt_tol_energy 25
geom_opt_tol_gradient 75
$end

$pcm
theory  iefpcm
$end

$solvent
dielectric      2.38
$end

$molecule
read PXZ_kat.mol
$end
--------------------------------------------------------------
 Adding empirical dispersion correction 
 ----------------------------------------------------------------
 Doing -D3(BJ) with
 s6 =   1.00000
 s8 =   0.00000
 a1 =   0.48600
 a2 =   4.50000
 -D3 energy including 3body term =     -0.0156499333 hartrees
 ----------------------------------------------------------------
 Adding gCP correction 
 ----------------------------------------------------------------
 gCP energy =      0.0350022207 hartrees
 ----------------------------------------------------------------
             Standard Nuclear Orientation (Angstroms)
    I     Atom           X                Y                Z
 ----------------------------------------------------------------
    1      N       1.3292000000    -0.2693000000    -2.1393000000
    2      C       0.8783000000     0.8748000000    -1.4229000000
    3      C       1.8224000000     1.8423000000    -1.0220000000
    4      C       1.4076000000     2.9845000000    -0.3356000000
    5      H       2.1360000000     3.7257000000    -0.0316000000
    6      C       0.0535000000     3.1821000000    -0.0593000000
    7      H      -0.2634000000     4.0779000000     0.4588000000
    8      C      -0.8908000000     2.2299000000    -0.4599000000
    9      H      -1.9397000000     2.3951000000    -0.2506000000
   10      C      -0.4816000000     1.0717000000    -1.1350000000
   11      H      -1.2212000000     0.3441000000    -1.4458000000
   12      C       2.6967000000    -0.3457000000    -2.5272000000
   13      C       3.1692000000    -1.3794000000    -3.3509000000
   14      H       2.4986000000    -2.1540000000    -3.7021000000
   15      C       4.5151000000    -1.3994000000    -3.7419000000
   16      H       4.8810000000    -2.1849000000    -4.3902000000
   17      C       5.3908000000    -0.4001000000    -3.3021000000
   18      H       6.4290000000    -0.4139000000    -3.6075000000
   19      C       4.9260000000     0.6238000000    -2.4748000000
   20      H       5.6031000000     1.4001000000    -2.1414000000
   21      C       3.5839000000     0.6604000000    -2.0928000000
   22      O       3.1340000000     1.6799000000    -1.3221000000
   23      H       0.6632000000    -1.0063000000    -2.4220000000
 ----------------------------------------------------------------
 Nuclear Repulsion Energy =   809.1990566363 hartrees
 There are       48 alpha and       47 beta electrons
 Requested basis set is def2-mSVP
 There are 116 shells and 228 basis functions

 Total QAlloc Memory Limit   4000 MB
 Mega-Array Size      1001 MB
 MEM_STATIC part      1024 MB
 Discretize the solute cavity surface with Lebedev spheres
	Using 302 Lebedev grid points for each H atom
	Using 302 Lebedev grid points for other atoms
	Atomic van der Waals radii will be scaled by 1.20
 Remove points where switching function is < 1.0e-08
 Keep 2732 surface tesserae and discard 4214 interior tesserae
 Molecular Surface Area = 216.703 Angst**2
 A cutoff of  1.0D-11 yielded   5185 shell pairs
 There are     21271 function pairs (     23880 Cartesian)
 
 -------------------------------------------------------
 OpenMP Integral Computing Module                       
 Release: version 1.0, May 2013, Q-Chem Inc. Pittsburgh 
 -------------------------------------------------------
 Integral Job Info:
 Integral job number is                      11
 Integral operator is                         1
 short-range coefficients                     0
 long-range coefficients              100000000
 Omega coefficients                           0
 if combine SR and LR in K                    0
 Integral screening is                        0
 Integral computing path is                   2
 max size of driver memory is            800000
 size of driver memory is                593474
 size of scratch memory is              1809772
 max col of scratch BK array               1296
 max len of scratch array in speh3          155
 max len of scratch index in speh4           18
 max int batch size is                      520
 min int batch size is                       52
 fixed nKL is                                52
 max L of basis functions is                  2
 order of int derivative is                   0
 number of shells is                        116
 number of basis is                         242
 number of cartesian basis is               242
 number of contracted shell pairs          5185
 number of primitive shell pairs          12228
 maxK2 (contraction) of shell pair           25
 max number of K2 of shell pair               1
 max number of CS2 of shell pair           1188
 max number of PS2 of shell pair           2275
 mem total for path MDJ                  572124
 -------------------------------------------------------
 Smallest overlap matrix eigenvalue = 3.66E-04

 Scale SEOQF with 1.000000e-02/1.000000e-01/1.000000e-01

 Standard Electronic Orientation quadrupole field applied
 Nucleus-field energy     =    -0.0000000254 hartrees
 Guess from superposition of atomic densities
 Warning:  Energy on first SCF cycle will be non-variational
 SAD guess density has 96.000000 electrons

 -----------------------------------------------------------------------
  General SCF calculation program by
  Eric Jon Sundstrom, Paul Horn, Yuezhi Mao, Dmitri Zuev, Alec White,
  David Stuck, Shaama M.S., Shane Yost, Joonho Lee, David Small,
  Daniel Levine, Susi Lehtola, Hugh Burton, Evgeny Epifanovsky
 -----------------------------------------------------------------------
 Exchange:     0.4200 Hartree-Fock + 0.5800 PBEh-3c
 Correlation:  1.0000 PBEh-3c
 Using SG-1 standard quadrature grid
 Dispersion:   Grimme D3
 using 4 threads for integral computing
 -------------------------------------------------------
 OpenMP Integral computing Module                
 Release: version 2.0, May 2017, Q-Chem Inc. Pleasanton 
 -------------------------------------------------------
 -------------------------------------------------------
 OpenMP BLAS3 based DFT computing Module                
 Release: version 1.0, May 2013, Q-Chem Inc. Pittsburgh 
 -------------------------------------------------------
 A unrestricted SCF calculation will be
 performed using DIIS
 SCF converges when DIIS error is below 1.0e-08
 ---------------------------------------
  Cycle       Energy         DIIS error
 ---------------------------------------
 Using non-symmetric K matrix
    1    -595.6580698567      2.79e-02  
    2    -591.0275014904      2.10e-03  
    3    -590.9442247762      2.79e-03  
    4    -591.1584263772      3.55e-04  
    5    -591.1618220623      1.65e-04  
    6    -591.1626537606      5.00e-05  
    7    -591.1627776080      2.33e-05  
    8    -591.1628472495      1.25e-05  
    9    -591.1628715209      1.05e-05  
   10    -591.1628825595      5.41e-06  
   11    -591.1628938161      4.02e-06  
   12    -591.1628979130      1.81e-06  
   13    -591.1628989016      7.42e-07  
   14    -591.1628989788      3.81e-07  
   15    -591.1628989979      1.02e-07  
   16    -591.1628989995      4.59e-08  
   17    -591.1628989996      2.45e-08  
   18    -591.1628989996      7.90e-09  Convergence criterion met
 ---------------------------------------
 SCF time:   CPU 333.13s  wall 84.00s 
<S^2> =          0.775712330

************** Final PCM Free Energy Summary **************
 G_electrostatic  =      -0.04564702 hartree =     -28.64393723 kcal/mol
 G_cavitation     =       0.00000000 hartree =       0.00000000 kcal/mol
 G_dispersion     =       0.00000000 hartree =       0.00000000 kcal/mol
 G_repulsion      =       0.00000000 hartree =       0.00000000 kcal/mol
 --------------------------------------------------
 Non-electrostatic Free Energy =       0.00000000 hartree =       0.00000000 kcal/mol
 Total                         =      -0.04564702 hartree =     -28.64393723 kcal/mol
 --------------------------------------------------
 SCF Energy (H0 + V/2)                       =    -591.16289900 
 Solute Internal Energy (H0)                 =    -591.11725198 
 Total Free Energy (H0 + V/2 + non-elec)     =    -591.16289900 hartree
                                             = -370960.31802607 kcal/mol
***********************************************************

 SCF   energy in the final basis set =     -591.1628989996
 Total energy in the final basis set =     -591.1628989996
 
 --------------------------------------------------------------
 
                    Orbital Energies (a.u.)
 --------------------------------------------------------------
 
 Alpha MOs
 -- Occupied --
-19.673 -14.830 -10.627 -10.627 -10.611 -10.611 -10.547 -10.547
-10.541 -10.541 -10.537 -10.537 -10.537 -10.537  -1.334  -1.178
 -1.068  -1.030  -0.960  -0.947  -0.916  -0.905  -0.829  -0.822
 -0.774  -0.746  -0.732  -0.702  -0.660  -0.653  -0.649  -0.625
 -0.622  -0.592  -0.583  -0.580  -0.572  -0.546  -0.528  -0.522
 -0.503  -0.501  -0.486  -0.474  -0.399  -0.393  -0.365  -0.334
 -- Virtual --
 -0.092  -0.071  -0.071  -0.040   0.021   0.057   0.076   0.099
  0.122   0.129   0.133   0.138   0.143   0.158   0.160   0.180
  0.184   0.199   0.202   0.233   0.255   0.270   0.275   0.285
  0.286   0.333   0.339   0.389   0.399   0.402   0.436   0.439
  0.450   0.477   0.479   0.497   0.499   0.507   0.511   0.521
  0.525   0.530   0.535   0.536   0.539   0.545   0.547   0.558
  0.559   0.564   0.594   0.595   0.613   0.630   0.648   0.671
  0.696   0.729   0.779   0.804   0.820   0.835   0.852   0.868
  0.892   0.896   0.898   0.907   0.912   0.935   0.938   0.945
  0.956   0.970   0.974   0.984   1.010   1.033   1.042   1.055
  1.069   1.096   1.105   1.148   1.157   1.175   1.177   1.212
  1.231   1.233   1.266   1.288   1.322   1.323   1.380   1.383
  1.398   1.431   1.441   1.455   1.462   1.465   1.479   1.527
  1.548   1.602   1.614   1.653   1.676   1.722   1.763   1.769
  1.777   1.811   1.812   1.885   1.904   1.915   1.917   1.932
  1.956   1.991   2.018   2.026   2.028   2.047   2.078   2.085
  2.117   2.150   2.164   2.185   2.188   2.199   2.236   2.247
  2.250   2.260   2.281   2.312   2.336   2.399   2.407   2.494
  2.501   2.526   2.556   2.591   2.599   2.641   2.647   2.653
  2.659   2.678   2.683   2.734   2.736   2.810   2.847   2.892
  2.956   3.004   3.069   3.296   3.445   3.467  13.129  13.180
 13.596  13.602  13.606  13.661  14.033  14.056  14.069  14.148
 14.427  14.492  19.274  25.676
 
 Beta MOs
 -- Occupied --
-19.668 -14.819 -10.625 -10.625 -10.611 -10.611 -10.546 -10.546
-10.539 -10.539 -10.538 -10.538 -10.537 -10.537  -1.323  -1.159
 -1.063  -1.024  -0.957  -0.943  -0.914  -0.894  -0.828  -0.818
 -0.771  -0.741  -0.728  -0.698  -0.657  -0.649  -0.623  -0.621
 -0.619  -0.590  -0.582  -0.580  -0.543  -0.526  -0.520  -0.513
 -0.502  -0.500  -0.484  -0.450  -0.389  -0.373  -0.354
 -- Virtual --
 -0.208  -0.083  -0.064  -0.056  -0.016   0.028   0.060   0.077
  0.105   0.127   0.131   0.139   0.145   0.145   0.159   0.162
  0.183   0.185   0.202   0.204   0.234   0.255   0.271   0.276
  0.286   0.288   0.337   0.343   0.390   0.401   0.409   0.439
  0.440   0.453   0.481   0.485   0.501   0.502   0.508   0.512
  0.523   0.527   0.533   0.537   0.540   0.540   0.548   0.550
  0.560   0.561   0.570   0.596   0.601   0.616   0.634   0.651
  0.673   0.697   0.733   0.804   0.812   0.822   0.840   0.853
  0.870   0.894   0.897   0.898   0.908   0.915   0.936   0.940
  0.946   0.957   0.970   0.976   0.986   1.012   1.034   1.043
  1.055   1.087   1.098   1.108   1.157   1.158   1.177   1.182
  1.216   1.233   1.236   1.269   1.291   1.327   1.334   1.384
  1.386   1.400   1.437   1.447   1.459   1.463   1.470   1.481
  1.531   1.550   1.604   1.623   1.660   1.677   1.730   1.765
  1.773   1.785   1.813   1.823   1.888   1.910   1.917   1.920
  1.936   1.957   1.994   2.022   2.031   2.032   2.050   2.083
  2.088   2.124   2.155   2.166   2.189   2.192   2.201   2.246
  2.251   2.258   2.263   2.293   2.317   2.342   2.402   2.413
  2.496   2.504   2.529   2.562   2.592   2.603   2.645   2.648
  2.655   2.662   2.679   2.688   2.737   2.741   2.812   2.850
  2.893   2.958   3.009   3.071   3.298   3.446   3.469  13.130
 13.181  13.597  13.603  13.606  13.661  14.033  14.057  14.070
 14.150  14.428  14.493  19.288  25.683
 --------------------------------------------------------------
 
          Ground-State Mulliken Net Atomic Charges

     Atom                 Charge (a.u.)    Spin (a.u.)
  --------------------------------------------------------
      1 N                    -0.703918       0.407068
      2 C                     0.339233       0.012455
      3 C                     0.392959       0.144125
      4 C                    -0.323854      -0.097739
      5 H                     0.299526       0.003842
      6 C                    -0.205185       0.150421
      7 H                     0.292151      -0.008166
      8 C                    -0.220889      -0.015556
      9 H                     0.288762       0.000087
     10 C                    -0.301850       0.051018
     11 H                     0.288132      -0.003692
     12 C                     0.339467       0.012605
     13 C                    -0.301912       0.050709
     14 H                     0.288143      -0.003676
     15 C                    -0.221106      -0.015278
     16 H                     0.288781       0.000073
     17 C                    -0.205119       0.150015
     18 H                     0.292148      -0.008144
     19 C                    -0.323903      -0.097486
     20 H                     0.299545       0.003830
     21 C                     0.392529       0.143894
     22 O                    -0.436501       0.138549
     23 H                     0.442862      -0.018953
  --------------------------------------------------------
  Sum of atomic charges =     1.000000
  Sum of spin   charges =     1.000000

 -----------------------------------------------------------------
                    Cartesian Multipole Moments
 -----------------------------------------------------------------
    Charge (ESU x 10^10)
                 4.8032
    Dipole Moment (Debye)
         X       8.7994      Y       1.8700      Z      -9.7877
       Tot      13.2938
    Quadrupole Moments (Debye-Ang)
        XX     -26.0596     XY      -3.2365     YY     -55.2363
        XZ     -30.8977     YZ      14.1329     ZZ     -51.0633
    Octopole Moments (Debye-Ang^2)
       XXX    -256.9969    XXY     -59.9114    XYY    -148.8366
       YYY    -134.6910    XXZ     -22.2823    XYZ      31.9148
       YYZ     128.5319    XZZ     -70.3183    YZZ    -117.5457
       ZZZ     343.1431
    Hexadecapole Moments (Debye-Ang^3)
      XXXX   -2640.2884   XXXY     -48.4081   XXYY    -818.3121
      XYYY     -13.9933   YYYY   -1131.5589   XXXZ     440.5964
      XXYZ     117.1355   XYYZ     377.4658   YYYZ      53.2463
      XXZZ    -530.5923   XYZZ    -175.3981   YYZZ    -528.5856
      XZZZ    1026.2503   YZZZ     161.8544   ZZZZ   -2026.1677
 -----------------------------------------------------------------
 Calculating analytic gradient of the SCF energy
  2.715773645767995E-005  2.714437183217485E-005
  2.716030368028710E-005  2.714179813095701E-005
  2.715181801060643E-005  2.715026978786826E-005
  2.715108189317343E-005  2.715102060431545E-005
  2.715705039188431E-005  2.714504574638045E-005
  2.715229171451875E-005  2.714979213923967E-005
  2.714392950531214E-005  2.715816985649254E-005
  2.714993608830684E-005  2.715216039730864E-005
  2.714941515254962E-005  2.715266958376437E-005
  2.714415462822126E-005  2.715795625812974E-005
  2.714409701905252E-005  2.715800366152630E-005
  2.714843248872947E-005  2.715365775955452E-005
  2.714808047610900E-005  2.715403475010110E-005
  2.715245056548112E-005  2.714966156416680E-005
  2.715325423008078E-005  2.714884919036785E-005
  2.715410173950082E-005  2.714799295690639E-005
  2.715298031802079E-005  2.714912768026168E-005
  2.715290563126906E-005  2.714918269111926E-005
  2.714697627445021E-005  2.715512422806640E-005
  2.715168217359357E-005  2.715041941389385E-005
  2.715369233310829E-005  2.714840053929184E-005
  2.714967862667264E-005  2.715243282246209E-005
  2.714744341935808E-005  2.715465080015517E-005
  2.715052545339384E-005  2.715155890877816E-005
  2.714939694209418E-005  2.715270438016778E-005
  2.715403547231253E-005  2.714806424964354E-005
  2.715477371416395E-005  2.714731990643158E-005
  2.715811423353215E-005  2.714398677722432E-005
  2.715634958167839E-005  2.714575535046302E-005
  2.715360858783700E-005  2.714848195568268E-005
  2.714899292707708E-005  2.715312284612178E-005
  2.715276539902539E-005  2.714934679387452E-005
  2.715373792608590E-005  2.714836515620220E-005
  2.715631039372463E-005  2.714579008795984E-005
  2.715353239628179E-005  2.714856458542726E-005
  2.714912286665287E-005  2.715296214809559E-005
  2.715596981930300E-005  2.714613922879095E-005
  2.715779226811423E-005  2.714430560253159E-005
  2.715489858812905E-005  2.714719096365741E-005
  2.715431417769594E-005  2.714780055653249E-005
  2.714920205889272E-005  2.715290991600920E-005
  2.715049132418642E-005  2.715161300991320E-005
  2.714817904681624E-005  2.715391577620120E-005
  2.714844434965663E-005  2.715365861358651E-005
  2.715143660291494E-005  2.715065563134233E-005
  2.715589891318707E-005  2.714620003484004E-005
  2.714968509976857E-005  2.715241377040424E-005
  2.715080103315445E-005  2.715129581211025E-005
  2.715341664929718E-005  2.714869372551888E-005
  2.715343632753339E-005  2.714865765541121E-005
  2.715332837001922E-005  2.714875828516962E-005
  2.715368568652947E-005  2.714841337855986E-005
  2.714718047932548E-005  2.715491991550471E-005
  2.714961573084957E-005  2.715247976307401E-005
  2.714487043767873E-005  2.715723408140971E-005
  2.714359706903826E-005  2.715850684491156E-005
  2.714803448780010E-005  2.715405890085321E-005
  2.715385821853815E-005  2.714825640875383E-005
  2.714856431499686E-005  2.715354755466652E-005
  2.714976876304357E-005  2.715233552004468E-005
  2.714985174770658E-005  2.715224983413745E-005
  2.714594449735072E-005  2.715614989205587E-005
  2.714584026143131E-005  2.715624436261029E-005
  2.714437762694171E-005  2.715773456974141E-005
  2.714596128800421E-005  2.715614067744496E-005
  2.714568086514135E-005  2.715640810633252E-005
  2.715124053771263E-005  2.715087196873396E-005
  2.715174238225833E-005  2.715036782759081E-005
  2.715058823377657E-005  2.715151224237657E-005
 Gradient of SCF Energy
            1           2           3           4           5           6
    1  -0.0176823  -0.0020863  -0.0082705   0.0015679   0.0120267  -0.0139922
    2  -0.0218211   0.0344695   0.0014115  -0.0043980   0.0156103   0.0039209
    3  -0.0045372   0.0204767   0.0037311  -0.0011979   0.0068581   0.0034634
            7           8           9          10          11          12
    1  -0.0069842  -0.0034825  -0.0201079   0.0137315  -0.0172615   0.0395973
    2   0.0171755   0.0210887   0.0052339  -0.0135292  -0.0148218   0.0066830
    3   0.0097134   0.0113666   0.0047130  -0.0080386  -0.0063825  -0.0048451
           13          14          15          16          17          18
    1  -0.0168972  -0.0134567   0.0234574   0.0089971   0.0065030   0.0198380
    2   0.0069219  -0.0173925   0.0028282  -0.0143246  -0.0098431  -0.0008847
    3   0.0104368  -0.0086181  -0.0050998  -0.0128940  -0.0090501  -0.0066011
           19          20          21          22          23
    1  -0.0038411   0.0148582   0.0043796   0.0110623  -0.0319565
    2  -0.0004853   0.0136758  -0.0063786   0.0108918  -0.0360321
    3   0.0023102   0.0050308  -0.0034920   0.0057480  -0.0130914
 Max gradient component =       3.960E-02
 RMS gradient           =       1.387E-02
 Computing fast IEFPCM-SWIG gradient.
 Updating gradient with PCM contributions...
 -- total gradient after adding PCM contribution --
---------------------------------------------------
  Atom         X              Y              Z     
---------------------------------------------------
   1      -0.028383      -0.033588      -0.009588
   2      -0.001277       0.032648       0.019163
   3      -0.003966       0.003547       0.004450
   4       0.005014       0.000304      -0.000138
   5      -0.000885       0.001572       0.000932
   6      -0.013578       0.008117       0.005723
   7      -0.001082       0.000979       0.000420
   8      -0.008986       0.017449       0.010132
   9      -0.000821       0.002066       0.000887
  10       0.004221      -0.016436      -0.009166
  11      -0.001596       0.000592       0.000189
  12       0.037270       0.007003      -0.004306
  13      -0.018860      -0.000958       0.004610
  14       0.000889      -0.001040      -0.001217
  15       0.020481      -0.002519      -0.007837
  16       0.002197       0.000028      -0.000915
  17       0.011114      -0.008433      -0.009322
  18       0.001100      -0.000518      -0.000946
  19      -0.000074       0.003985       0.003102
  20       0.001843      -0.000293      -0.000790
  21       0.005981      -0.002377      -0.001159
  22       0.000477       0.000122       0.000070
  23      -0.011079      -0.012250      -0.004293
---------------------------------------------------
 Number of fixed atoms: 0
 Gradient time:  CPU 34.54 s  wall 12.50 s
 Geometry Optimization Parameters
   NAtoms,    NIC,     NZ,  NCons,   NDum,   NFix, NCnnct, MaxDiis
       23     171       0       0       0       0       0       0


** GEOMETRY OPTIMIZATION IN DELOCALIZED INTERNAL COORDINATES **
   Searching for a Minimum

   Optimization Cycle:   1

                       Coordinates (Angstroms)
     ATOM                X               Y               Z
      1  N         1.3292000000   -0.2693000000   -2.1393000000
      2  C         0.8783000000    0.8748000000   -1.4229000000
      3  C         1.8224000000    1.8423000000   -1.0220000000
      4  C         1.4076000000    2.9845000000   -0.3356000000
      5  H         2.1360000000    3.7257000000   -0.0316000000
      6  C         0.0535000000    3.1821000000   -0.0593000000
      7  H        -0.2634000000    4.0779000000    0.4588000000
      8  C        -0.8908000000    2.2299000000   -0.4599000000
      9  H        -1.9397000000    2.3951000000   -0.2506000000
     10  C        -0.4816000000    1.0717000000   -1.1350000000
     11  H        -1.2212000000    0.3441000000   -1.4458000000
     12  C         2.6967000000   -0.3457000000   -2.5272000000
     13  C         3.1692000000   -1.3794000000   -3.3509000000
     14  H         2.4986000000   -2.1540000000   -3.7021000000
     15  C         4.5151000000   -1.3994000000   -3.7419000000
     16  H         4.8810000000   -2.1849000000   -4.3902000000
     17  C         5.3908000000   -0.4001000000   -3.3021000000
     18  H         6.4290000000   -0.4139000000   -3.6075000000
     19  C         4.9260000000    0.6238000000   -2.4748000000
     20  H         5.6031000000    1.4001000000   -2.1414000000
     21  C         3.5839000000    0.6604000000   -2.0928000000
     22  O         3.1340000000    1.6799000000   -1.3221000000
     23  H         0.6632000000   -1.0063000000   -2.4220000000
   Point Group: c1    Number of degrees of freedom:    63


   Energy is   -591.162899000


 Attempting to Generate Delocalized Internal Coordinates

 63 Hessian modes will be used to form the next step
  Hessian Eigenvalues:
     0.012605    0.015111    0.018381    0.019194    0.020235    0.021630
     0.021804    0.022002    0.022045    0.022059    0.022280    0.022281
     0.022322    0.022325    0.022692    0.022693    0.022773    0.022778
     0.022947    0.022959    0.159651    0.159971    0.159973    0.159976
     0.159976    0.159995    0.159996    0.159998    0.159998    0.219994
     0.219995    0.225157    0.226086    0.235615    0.244621    0.245460
     0.249247    0.249849    0.356254    0.356278    0.356634    0.356688
     0.357209    0.357213    0.357225    0.357282    0.374659    0.401373
     0.408979    0.415971    0.416139    0.418134    0.423594    0.441607
     0.446352    0.453501    0.453668    0.458148    0.458192    0.461621
     0.461786    0.518016    0.532791

 Minimum Search - Taking Simple RFO Step
 Searching for Lamda that Minimizes Along All modes
 Value Taken    Lamda =  -0.02098182
 Step Taken.  Stepsize is  0.243772

                             Maximum     Tolerance    Cnvgd?
         Gradient           0.047636      0.000075      NO
         Displacement       0.175267      0.001200      NO
         Energy change     *********      0.000000      NO


 New Cartesian Coordinates Obtained by Inverse Iteration

 Displacement from previous Coordinates is:  0.671331
 Adding empirical dispersion correction 
 ----------------------------------------------------------------
 Doing -D3(BJ) with
 s6 =   1.00000
 s8 =   0.00000
 a1 =   0.48600
 a2 =   4.50000
 -D3 energy including 3body term =     -0.0158371393 hartrees
 ----------------------------------------------------------------
 Adding gCP correction 
 ----------------------------------------------------------------
 gCP energy =      0.0364828630 hartrees
 ----------------------------------------------------------------
             Standard Nuclear Orientation (Angstroms)
    I     Atom           X                Y                Z
 ----------------------------------------------------------------
    1      N       1.3684294799    -0.1925715533    -2.1597930630
    2      C       0.9126303547     0.8883098174    -1.4651373265
    3      C       1.8450713843     1.8581890526    -1.0616599393
    4      C       1.4330052609     2.9741277779    -0.3608791783
    5      H       2.1573136343     3.7155093048    -0.0513159917
    6      C       0.0906590773     3.1204226551    -0.0754370628
    7      H      -0.2374442900     3.9959790838     0.4658891594
    8      C      -0.8433623596     2.1588658257    -0.4791851890
    9      H      -1.8914328956     2.2908811693    -0.2521817774
   10      C      -0.4392279215     1.0429300166    -1.1685679377
   11      H      -1.1593459445     0.2983615258    -1.4818195081
   12      C       2.6749120434    -0.2956572553    -2.5347007720
   13      C       3.1214134962    -1.3482771062    -3.3292159210
   14      H       2.4338338067    -2.1148267167    -3.6622193764
   15      C       4.4451182968    -1.3914874863    -3.6901168761
   16      H       4.7981528351    -2.1999944493    -4.3138318649
   17      C       5.3308774168    -0.3969017963    -3.2588132607
   18      H       6.3707588491    -0.4386544001    -3.5490006232
   19      C       4.8984771140     0.6475344121    -2.4673312998
   20      H       5.5795062939     1.4186374981    -2.1330414524
   21      C       3.5666053230     0.7015410829    -2.1079010754
   22      O       3.1479990022     1.7239258884    -1.3481086618
   23      H       0.7169497426    -0.9175443467    -2.4338310017
 ----------------------------------------------------------------
 Nuclear Repulsion Energy =   821.1602064849 hartrees
 There are       48 alpha and       47 beta electrons
 Discretize the solute cavity surface with Lebedev spheres
	Using 302 Lebedev grid points for each H atom
	Using 302 Lebedev grid points for other atoms
	Atomic van der Waals radii will be scaled by 1.20
 Remove points where switching function is < 1.0e-08
 Keep 2699 surface tesserae and discard 4247 interior tesserae
 Molecular Surface Area = 213.577 Angst**2
 Applying Cartesian multipole field
    Component          Value
    ---------          -----
     (2,0,0)        1.00000E-12
     (0,2,0)        2.00000E-11
     (0,0,2)       -3.00000E-11
 Nucleus-field energy     =    -0.0000000255 hartrees
 Requested basis set is def2-mSVP
 There are 116 shells and 228 basis functions
 A cutoff of  1.0D-11 yielded   5259 shell pairs
 There are     21563 function pairs (     24196 Cartesian)
 Smallest overlap matrix eigenvalue = 3.40E-04
 Guess MOs from SCF MO coefficient file

 -----------------------------------------------------------------------
  General SCF calculation program by
  Eric Jon Sundstrom, Paul Horn, Yuezhi Mao, Dmitri Zuev, Alec White,
  David Stuck, Shaama M.S., Shane Yost, Joonho Lee, David Small,
  Daniel Levine, Susi Lehtola, Hugh Burton, Evgeny Epifanovsky
 -----------------------------------------------------------------------
 Exchange:     0.4200 Hartree-Fock + 0.5800 PBEh-3c
 Correlation:  1.0000 PBEh-3c
 Using SG-1 standard quadrature grid
 Dispersion:   Grimme D3
 using 4 threads for integral computing
 -------------------------------------------------------
 OpenMP Integral computing Module                
 Release: version 2.0, May 2017, Q-Chem Inc. Pleasanton 
 -------------------------------------------------------
 -------------------------------------------------------
 OpenMP BLAS3 based DFT computing Module                
 Release: version 1.0, May 2013, Q-Chem Inc. Pittsburgh 
 -------------------------------------------------------
 A unrestricted SCF calculation will be
 performed using DIIS
 SCF converges when DIIS error is below 1.0e-08
 ---------------------------------------
  Cycle       Energy         DIIS error
 ---------------------------------------
 Using non-symmetric K matrix
    1    -598.5644632422      4.72e-04  
    2    -591.1704322943      2.87e-04  
    3    -591.1721736676      2.09e-04  
    4    -591.1732888400      2.17e-05  
    5    -591.1733050068      1.25e-05  
    6    -591.1733096289      4.98e-06  
    7    -591.1733113161      2.26e-06  
    8    -591.1733120790      1.45e-06  
    9    -591.1733125311      8.68e-07  
   10    -591.1733126978      6.54e-07  
   11    -591.1733127719      3.27e-07  
   12    -591.1733128019      2.55e-07  
   13    -591.1733128098      9.15e-08  
   14    -591.1733128115      4.09e-08  
   15    -591.1733128117      1.97e-08  
   16    -591.1733128118      6.62e-09  Convergence criterion met
 ---------------------------------------
 SCF time:   CPU 305.33s  wall 77.00s 
<S^2> =          0.776180253

************** Final PCM Free Energy Summary **************
 G_electrostatic  =      -0.04595716 hartree =     -28.83855207 kcal/mol
 G_cavitation     =       0.00000000 hartree =       0.00000000 kcal/mol
 G_dispersion     =       0.00000000 hartree =       0.00000000 kcal/mol
 G_repulsion      =       0.00000000 hartree =       0.00000000 kcal/mol
 --------------------------------------------------
 Non-electrostatic Free Energy =       0.00000000 hartree =       0.00000000 kcal/mol
 Total                         =      -0.04595716 hartree =     -28.83855207 kcal/mol
 --------------------------------------------------
 SCF Energy (H0 + V/2)                       =    -591.17331281 
 Solute Internal Energy (H0)                 =    -591.12735565 
 Total Free Energy (H0 + V/2 + non-elec)     =    -591.17331281 hartree
                                             = -370966.85279182 kcal/mol
***********************************************************

 SCF   energy in the final basis set =     -591.1733128118
 Total energy in the final basis set =     -591.1733128118
 
 --------------------------------------------------------------
 
                    Orbital Energies (a.u.)
 --------------------------------------------------------------
 
 Alpha MOs
 -- Occupied --
-19.675 -14.824 -10.621 -10.621 -10.604 -10.604 -10.542 -10.542
-10.537 -10.537 -10.533 -10.533 -10.532 -10.532  -1.347  -1.208
 -1.077  -1.036  -0.969  -0.953  -0.923  -0.906  -0.839  -0.832
 -0.775  -0.757  -0.732  -0.710  -0.664  -0.660  -0.659  -0.628
 -0.621  -0.592  -0.586  -0.585  -0.584  -0.549  -0.532  -0.521
 -0.503  -0.501  -0.488  -0.477  -0.399  -0.397  -0.368  -0.326
 -- Virtual --
 -0.092  -0.067  -0.066  -0.033   0.035   0.060   0.080   0.106
  0.132   0.135   0.138   0.140   0.152   0.161   0.168   0.186
  0.199   0.206   0.220   0.239   0.262   0.277   0.277   0.289
  0.297   0.350   0.355   0.388   0.398   0.410   0.435   0.446
  0.449   0.478   0.480   0.494   0.504   0.507   0.513   0.524
  0.526   0.534   0.537   0.544   0.551   0.553   0.559   0.561
  0.563   0.569   0.598   0.615   0.630   0.632   0.650   0.684
  0.697   0.731   0.787   0.802   0.833   0.834   0.861   0.872
  0.892   0.896   0.907   0.911   0.927   0.930   0.937   0.947
  0.958   0.973   0.981   0.995   1.026   1.038   1.057   1.061
  1.074   1.102   1.124   1.143   1.161   1.173   1.195   1.216
  1.225   1.234   1.283   1.288   1.321   1.324   1.373   1.377
  1.396   1.434   1.444   1.456   1.464   1.466   1.493   1.504
  1.536   1.596   1.615   1.656   1.685   1.741   1.779   1.791
  1.803   1.820   1.827   1.917   1.930   1.938   1.954   1.960
  1.970   2.010   2.040   2.041   2.052   2.081   2.104   2.118
  2.130   2.159   2.177   2.191   2.215   2.217   2.248   2.267
  2.270   2.272   2.329   2.338   2.375   2.443   2.444   2.508
  2.520   2.534   2.577   2.609   2.619   2.671   2.672   2.678
  2.699   2.716   2.722   2.755   2.757   2.833   2.868   2.964
  3.013   3.028   3.077   3.362   3.501   3.541  13.142  13.195
 13.614  13.633  13.633  13.675  14.073  14.102  14.118  14.197
 14.488  14.541  19.314  25.686
 
 Beta MOs
 -- Occupied --
-19.669 -14.814 -10.619 -10.619 -10.604 -10.604 -10.541 -10.541
-10.535 -10.534 -10.534 -10.533 -10.533 -10.533  -1.336  -1.191
 -1.072  -1.031  -0.966  -0.948  -0.921  -0.894  -0.838  -0.828
 -0.772  -0.753  -0.728  -0.706  -0.662  -0.655  -0.632  -0.627
 -0.620  -0.591  -0.585  -0.583  -0.546  -0.542  -0.520  -0.518
 -0.502  -0.499  -0.486  -0.455  -0.394  -0.372  -0.358
 -- Virtual --
 -0.202  -0.082  -0.059  -0.052  -0.008   0.041   0.063   0.081
  0.112   0.133   0.139   0.139   0.154   0.155   0.163   0.169
  0.189   0.201   0.209   0.222   0.240   0.263   0.278   0.278
  0.292   0.298   0.353   0.359   0.390   0.406   0.413   0.438
  0.449   0.449   0.483   0.483   0.498   0.505   0.509   0.517
  0.526   0.529   0.536   0.542   0.546   0.552   0.557   0.561
  0.566   0.567   0.571   0.603   0.617   0.633   0.635   0.654
  0.686   0.698   0.735   0.804   0.816   0.836   0.837   0.862
  0.873   0.895   0.896   0.909   0.912   0.931   0.932   0.939
  0.949   0.959   0.973   0.983   0.998   1.028   1.039   1.058
  1.062   1.092   1.104   1.127   1.152   1.162   1.178   1.197
  1.218   1.229   1.237   1.285   1.291   1.327   1.335   1.378
  1.379   1.399   1.440   1.450   1.462   1.466   1.470   1.496
  1.506   1.537   1.598   1.625   1.663   1.686   1.748   1.787
  1.794   1.805   1.828   1.830   1.923   1.933   1.942   1.956
  1.963   1.971   2.014   2.043   2.044   2.056   2.085   2.108
  2.121   2.135   2.164   2.179   2.195   2.216   2.221   2.254
  2.271   2.276   2.282   2.340   2.344   2.380   2.446   2.450
  2.511   2.522   2.536   2.583   2.610   2.622   2.672   2.676
  2.681   2.702   2.717   2.728   2.758   2.761   2.834   2.870
  2.966   3.018   3.030   3.079   3.363   3.502   3.543  13.143
 13.196  13.614  13.634  13.635  13.675  14.073  14.104  14.119
 14.198  14.489  14.542  19.327  25.693
 --------------------------------------------------------------
 
          Ground-State Mulliken Net Atomic Charges

     Atom                 Charge (a.u.)    Spin (a.u.)
  --------------------------------------------------------
      1 N                    -0.694474       0.364623
      2 C                     0.367228       0.011670
      3 C                     0.382310       0.155148
      4 C                    -0.327241      -0.102457
      5 H                     0.298453       0.004037
      6 C                    -0.217522       0.163751
      7 H                     0.288705      -0.009038
      8 C                    -0.218872      -0.020313
      9 H                     0.286301       0.000343
     10 C                    -0.308840       0.056239
     11 H                     0.287343      -0.003971
     12 C                     0.368002       0.011515
     13 C                    -0.309015       0.056217
     14 H                     0.287375      -0.003972
     15 C                    -0.219171      -0.020275
     16 H                     0.286277       0.000342
     17 C                    -0.217466       0.163477
     18 H                     0.288734      -0.009020
     19 C                    -0.327427      -0.102313
     20 H                     0.298462       0.004031
     21 C                     0.381721       0.155055
     22 O                    -0.417783       0.142092
     23 H                     0.436901      -0.017181
  --------------------------------------------------------
  Sum of atomic charges =     1.000000
  Sum of spin   charges =     1.000000

 -----------------------------------------------------------------
                    Cartesian Multipole Moments
 -----------------------------------------------------------------
    Charge (ESU x 10^10)
                 4.8032
    Dipole Moment (Debye)
         X       8.8361      Y       1.8650      Z      -9.7220
       Tot      13.2693
    Quadrupole Moments (Debye-Ang)
        XX     -27.5705     XY      -2.4131     YY     -56.0964
        XZ     -29.7580     YZ      13.2931     ZZ     -51.3987
    Octopole Moments (Debye-Ang^2)
       XXX    -268.1844    XXY     -59.0268    XYY    -146.3430
       YYY    -140.3951    XXZ     -11.6795    XYZ      29.5858
       YYZ     128.8380    XZZ     -77.0182    YZZ    -114.4692
       ZZZ     347.7529
    Hexadecapole Moments (Debye-Ang^3)
      XXXX   -2663.5104   XXXY     -61.5060   XXYY    -801.0915
      XYYY     -31.5867   YYYY   -1125.3907   XXXZ     494.6346
      XXYZ     112.0065   XYYZ     372.4639   YYYZ      65.4127
      XXZZ    -567.3419   XYZZ    -171.3114   YYZZ    -523.7960
      XZZZ    1044.1700   YZZZ     164.6526   ZZZZ   -2030.0709
 -----------------------------------------------------------------
 Calculating analytic gradient of the SCF energy
  2.576369735495503E-005  2.575000745584547E-005
  2.576574709050032E-005  2.574795028395824E-005
  2.575828004054978E-005  2.575540442777979E-005
  2.575709664819072E-005  2.575660224446523E-005
  2.576245665099288E-005  2.575123612955239E-005
  2.575873603608799E-005  2.575494537392258E-005
  2.574977351149893E-005  2.576392363334593E-005
  2.575509448513560E-005  2.575859891193040E-005
  2.575576569810941E-005  2.575791669632587E-005
  2.575004163279158E-005  2.576366663440420E-005
  2.574993044197540E-005  2.576376749010144E-005
  2.575428612679202E-005  2.575940157230234E-005
  2.575393505767915E-005  2.575977695525031E-005
  2.575855295752887E-005  2.575515572732523E-005
  2.575898037340992E-005  2.575472000447571E-005
  2.575915577433146E-005  2.575453596092955E-005
  2.575872264262123E-005  2.575498080844143E-005
  2.575845536668562E-005  2.575523037848636E-005
  2.575264784053676E-005  2.576105016363901E-005
  2.575805483176762E-005  2.575564274068134E-005
  2.575931398760050E-005  2.575437643842177E-005
  2.575548273402489E-005  2.575822370721976E-005
  2.575361130108951E-005  2.576008005505745E-005
  2.575619332002037E-005  2.575748843644230E-005
  2.575465085538830E-005  2.575904700540139E-005
  2.576001184450207E-005  2.575368562765960E-005
  2.576019740379502E-005  2.575349391332151E-005
  2.576349135554738E-005  2.575020772029334E-005
  2.576242971689559E-005  2.575127227549753E-005
  2.575950426571191E-005  2.575418391597885E-005
  2.575482769530303E-005  2.575888481073455E-005
  2.575872240961560E-005  2.575498685427215E-005
  2.575923441457323E-005  2.575446570219941E-005
  2.576222620868080E-005  2.575147145481635E-005
  2.575902722576114E-005  2.575466621662956E-005
  2.575559233263396E-005  2.575808965102570E-005
  2.576208193102823E-005  2.575162502630389E-005
  2.576338992528378E-005  2.575030549728712E-005
  2.576032451297926E-005  2.575336236278071E-005
  2.576002123970005E-005  2.575369071609266E-005
  2.575523467912948E-005  2.575847429226723E-005
  2.575607101876124E-005  2.575762994454429E-005
  2.575416188475085E-005  2.575953019132547E-005
  2.575449733246330E-005  2.575920243903800E-005
  2.575698719426986E-005  2.575670051141130E-005
  2.576163747120313E-005  2.575205981950987E-005
  2.575532052168604E-005  2.575837567491147E-005
  2.575596191784585E-005  2.575773125465312E-005
  2.575907331420655E-005  2.575463333500201E-005
  2.575877746697577E-005  2.575491350944482E-005
  2.575850657569190E-005  2.575517675031311E-005
  2.575981238490670E-005  2.575388364799780E-005
  2.575323952564066E-005  2.576045801690511E-005
  2.575497801818056E-005  2.575871444380096E-005
  2.575071879865236E-005  2.576298321000383E-005
  2.574946157727333E-005  2.576423998343216E-005
  2.575388519540120E-005  2.575980513298494E-005
  2.575981855915842E-005  2.575389264218522E-005
  2.575459123443820E-005  2.575911754267278E-005
  2.575542412417657E-005  2.575827697521183E-005
  2.575553997705864E-005  2.575815870848903E-005
  2.575123303240707E-005  2.576245907453311E-005
  2.575226136225674E-005  2.576142078885230E-005
  2.575019252303840E-005  2.576351699211575E-005
  2.575132034712636E-005  2.576237898283668E-005
  2.575198753177674E-005  2.576169841569467E-005
  2.575749844303723E-005  2.575621116487553E-005
  2.575811387032914E-005  2.575559298036509E-005
  2.575650165966980E-005  2.575719538295609E-005
 Gradient of SCF Energy
            1           2           3           4           5           6
    1   0.0059896  -0.0050524  -0.0047054  -0.0002930   0.0129795  -0.0014062
    2   0.0060397   0.0104096  -0.0036690  -0.0064118   0.0142219  -0.0071495
    3   0.0035522   0.0063878  -0.0019546  -0.0031471   0.0062278  -0.0039334
            7           8           9          10          11          12
    1  -0.0050346   0.0075362  -0.0192902   0.0140389  -0.0161348   0.0125677
    2   0.0157183   0.0057576   0.0013827  -0.0008351  -0.0150502  -0.0013723
    3   0.0094419   0.0018914   0.0033737  -0.0025970  -0.0060151  -0.0042394
           13          14          15          16          17          18
    1  -0.0038292  -0.0136468   0.0048293   0.0051899  -0.0078548   0.0184139
    2   0.0110824  -0.0167592   0.0075872  -0.0150280  -0.0028477   0.0000081
    3   0.0083602  -0.0075910   0.0034989  -0.0114752  -0.0000903  -0.0048075
           19          20          21          22          23
    1  -0.0066975   0.0133446  -0.0034962   0.0126916  -0.0201401
    2  -0.0021662   0.0139823  -0.0040313   0.0124088  -0.0232782
    3   0.0008426   0.0059432  -0.0023247   0.0068484  -0.0081929
 Max gradient component =       2.328E-02
 RMS gradient           =       9.391E-03
 Computing fast IEFPCM-SWIG gradient.
 Updating gradient with PCM contributions...
 -- total gradient after adding PCM contribution --
---------------------------------------------------
  Atom         X              Y              Z     
---------------------------------------------------
   1      -0.005154      -0.006320      -0.001384
   2      -0.001899       0.007392       0.004119
   3       0.000188      -0.000614      -0.000502
   4       0.002394      -0.003180      -0.002354
   5      -0.000048       0.000174       0.000189
   6      -0.001205      -0.001585      -0.000779
   7       0.000794      -0.000038      -0.000248
   8       0.001404       0.001097       0.000298
   9       0.000017      -0.000683      -0.000559
  10       0.004633      -0.003441      -0.003118
  11      -0.000570       0.000832       0.000519
  12       0.008603       0.000528      -0.002126
  13      -0.005163       0.002908       0.002791
  14       0.000944      -0.000319      -0.000478
  15       0.000916       0.001413       0.000540
  16      -0.000869      -0.000072      -0.000002
  17      -0.001648      -0.001285      -0.000580
  18      -0.000251       0.000683       0.000387
  19      -0.004121       0.001133       0.001589
  20       0.000267      -0.000029      -0.000030
  21      -0.000792       0.000581       0.000446
  22       0.000800       0.000297       0.000553
  23       0.000758       0.000529       0.000729
---------------------------------------------------
 Number of fixed atoms: 0
 Gradient time:  CPU 35.53 s  wall 12.59 s
 Geometry Optimization Parameters
   NAtoms,    NIC,     NZ,  NCons,   NDum,   NFix, NCnnct, MaxDiis
       23     171       0       0       0       0       0       0

 Cartesian Hessian Update
 Hessian Updated using BFGS Update


** GEOMETRY OPTIMIZATION IN DELOCALIZED INTERNAL COORDINATES **
   Searching for a Minimum

   Optimization Cycle:   2

                       Coordinates (Angstroms)
     ATOM                X               Y               Z
      1  N         1.3684294799   -0.1925715533   -2.1597930630
      2  C         0.9126303547    0.8883098174   -1.4651373265
      3  C         1.8450713843    1.8581890526   -1.0616599393
      4  C         1.4330052609    2.9741277779   -0.3608791783
      5  H         2.1573136343    3.7155093048   -0.0513159917
      6  C         0.0906590773    3.1204226551   -0.0754370628
      7  H        -0.2374442900    3.9959790838    0.4658891594
      8  C        -0.8433623596    2.1588658257   -0.4791851890
      9  H        -1.8914328956    2.2908811693   -0.2521817774
     10  C        -0.4392279215    1.0429300166   -1.1685679377
     11  H        -1.1593459445    0.2983615258   -1.4818195081
     12  C         2.6749120434   -0.2956572553   -2.5347007720
     13  C         3.1214134962   -1.3482771062   -3.3292159210
     14  H         2.4338338067   -2.1148267167   -3.6622193764
     15  C         4.4451182968   -1.3914874863   -3.6901168761
     16  H         4.7981528351   -2.1999944493   -4.3138318649
     17  C         5.3308774168   -0.3969017963   -3.2588132607
     18  H         6.3707588491   -0.4386544001   -3.5490006232
     19  C         4.8984771140    0.6475344121   -2.4673312998
     20  H         5.5795062939    1.4186374981   -2.1330414524
     21  C         3.5666053230    0.7015410829   -2.1079010754
     22  O         3.1479990022    1.7239258884   -1.3481086618
     23  H         0.7169497426   -0.9175443467   -2.4338310017
   Point Group: c1    Number of degrees of freedom:    63


   Energy is   -591.173312812

 Hessian Updated using BFGS Update

 63 Hessian modes will be used to form the next step
  Hessian Eigenvalues:
     0.012603    0.015057    0.018381    0.019193    0.020234    0.021614
     0.021804    0.022015    0.022049    0.022074    0.022280    0.022280
     0.022322    0.022324    0.022692    0.022693    0.022773    0.022782
     0.022947    0.022960    0.159041    0.159651    0.159972    0.159976
     0.159977    0.159995    0.159996    0.159998    0.160776    0.219972
     0.219997    0.226052    0.226135    0.232122    0.244617    0.245212
     0.249847    0.254670    0.356253    0.356269    0.356615    0.356677
     0.357210    0.357215    0.357248    0.357311    0.374634    0.382391
     0.411436    0.415976    0.416425    0.418135    0.424451    0.441607
     0.444632    0.452056    0.453534    0.458173    0.460332    0.461691
     0.491499    0.532751    0.556086

 Minimum Search - Taking Simple RFO Step
 Searching for Lamda that Minimizes Along All modes
 Value Taken    Lamda =  -0.00099974
 Step Taken.  Stepsize is  0.144334

                             Maximum     Tolerance    Cnvgd?
         Gradient           0.010451      0.000075      NO
         Displacement       0.098669      0.001200      NO
         Energy change     -0.010414      0.000000      NO


 New Cartesian Coordinates Obtained by Inverse Iteration

 Displacement from previous Coordinates is:  0.408103
 Adding empirical dispersion correction 
 ----------------------------------------------------------------
 Doing -D3(BJ) with
 s6 =   1.00000
 s8 =   0.00000
 a1 =   0.48600
 a2 =   4.50000
 -D3 energy including 3body term =     -0.0158164309 hartrees
 ----------------------------------------------------------------
 Adding gCP correction 
 ----------------------------------------------------------------
 gCP energy =      0.0363364952 hartrees
 ----------------------------------------------------------------
             Standard Nuclear Orientation (Angstroms)
    I     Atom           X                Y                Z
 ----------------------------------------------------------------
    1      N       1.3615176306    -0.1545924095    -2.2130368853
    2      C       0.9018554302     0.9069862190    -1.4978083592
    3      C       1.8323585703     1.8818642837    -1.0957070402
    4      C       1.4217574450     2.9869110811    -0.3673206155
    5      H       2.1469650316     3.7284294093    -0.0610419808
    6      C       0.0860372543     3.1138032544    -0.0451129723
    7      H      -0.2417178311     3.9736426650     0.5219936629
    8      C      -0.8473599836     2.1465338453    -0.4409120684
    9      H      -1.8892150840     2.2643114045    -0.1789966604
   10      C      -0.4485967624     1.0485069293    -1.1616384338
   11      H      -1.1643686674     0.2969050528    -1.4695853933
   12      C       2.6674022680    -0.2790916702    -2.5707545433
   13      C       3.1306168613    -1.3537378531    -3.3362801518
   14      H       2.4408490486    -2.1220578407    -3.6615477599
   15      C       4.4617887591    -1.4170081061    -3.6654542273
   16      H       4.8266814855    -2.2433900401    -4.2586204757
   17      C       5.3472154258    -0.4181802457    -3.2394449346
   18      H       6.3929585311    -0.4799548749    -3.5057242896
   19      C       4.9049293384     0.6474550688    -2.4829573382
   20      H       5.5838306227     1.4199499933    -2.1483133329
   21      C       3.5624519842     0.7187549723    -2.1474242938
   22      O       3.1344206074     1.7499385655    -1.3995412369
   23      H       0.7085220346    -0.8766797038    -2.4929706697
 ----------------------------------------------------------------
 Nuclear Repulsion Energy =   819.7096218653 hartrees
 There are       48 alpha and       47 beta electrons
 Discretize the solute cavity surface with Lebedev spheres
	Using 302 Lebedev grid points for each H atom
	Using 302 Lebedev grid points for other atoms
	Atomic van der Waals radii will be scaled by 1.20
 Remove points where switching function is < 1.0e-08
 Keep 2699 surface tesserae and discard 4247 interior tesserae
 Molecular Surface Area = 214.016 Angst**2
 Applying Cartesian multipole field
    Component          Value
    ---------          -----
     (2,0,0)        1.00000E-12
     (0,2,0)        2.00000E-11
     (0,0,2)       -3.00000E-11
 Nucleus-field energy     =    -0.0000000258 hartrees
 Requested basis set is def2-mSVP
 There are 116 shells and 228 basis functions
 A cutoff of  1.0D-11 yielded   5250 shell pairs
 There are     21534 function pairs (     24165 Cartesian)
 Smallest overlap matrix eigenvalue = 3.43E-04
 Guess MOs from SCF MO coefficient file

 -----------------------------------------------------------------------
  General SCF calculation program by
  Eric Jon Sundstrom, Paul Horn, Yuezhi Mao, Dmitri Zuev, Alec White,
  David Stuck, Shaama M.S., Shane Yost, Joonho Lee, David Small,
  Daniel Levine, Susi Lehtola, Hugh Burton, Evgeny Epifanovsky
 -----------------------------------------------------------------------
 Exchange:     0.4200 Hartree-Fock + 0.5800 PBEh-3c
 Correlation:  1.0000 PBEh-3c
 Using SG-1 standard quadrature grid
 Dispersion:   Grimme D3
 using 4 threads for integral computing
 -------------------------------------------------------
 OpenMP Integral computing Module                
 Release: version 2.0, May 2017, Q-Chem Inc. Pleasanton 
 -------------------------------------------------------
 -------------------------------------------------------
 OpenMP BLAS3 based DFT computing Module                
 Release: version 1.0, May 2013, Q-Chem Inc. Pittsburgh 
 -------------------------------------------------------
 A unrestricted SCF calculation will be
 performed using DIIS
 SCF converges when DIIS error is below 1.0e-08
 ---------------------------------------
  Cycle       Energy         DIIS error
 ---------------------------------------
 Using non-symmetric K matrix
    1    -598.6687465289      3.05e-04  
    2    -591.1725480167      1.70e-04  
    3    -591.1733449087      1.42e-04  
    4    -591.1738803525      1.93e-05  
    5    -591.1738923494      7.85e-06  
    6    -591.1738939253      4.00e-06  
    7    -591.1738943671      1.14e-06  
    8    -591.1738944355      5.35e-07  
    9    -591.1738944656      3.38e-07  
   10    -591.1738944845      2.69e-07  
   11    -591.1738944990      1.26e-07  
   12    -591.1738945044      9.28e-08  
   13    -591.1738945058      3.15e-08  
   14    -591.1738945061      1.21e-08  
   15    -591.1738945061      5.08e-09  Convergence criterion met
 ---------------------------------------
 SCF time:   CPU 280.69s  wall 71.00s 
<S^2> =          0.776487813

************** Final PCM Free Energy Summary **************
 G_electrostatic  =      -0.04592846 hartree =     -28.82054255 kcal/mol
 G_cavitation     =       0.00000000 hartree =       0.00000000 kcal/mol
 G_dispersion     =       0.00000000 hartree =       0.00000000 kcal/mol
 G_repulsion      =       0.00000000 hartree =       0.00000000 kcal/mol
 --------------------------------------------------
 Non-electrostatic Free Energy =       0.00000000 hartree =       0.00000000 kcal/mol
 Total                         =      -0.04592846 hartree =     -28.82054255 kcal/mol
 --------------------------------------------------
 SCF Energy (H0 + V/2)                       =    -591.17389451 
 Solute Internal Energy (H0)                 =    -591.12796605 
 Total Free Energy (H0 + V/2 + non-elec)     =    -591.17389451 hartree
                                             = -370967.21781053 kcal/mol
***********************************************************

 SCF   energy in the final basis set =     -591.1738945061
 Total energy in the final basis set =     -591.1738945061
 
 --------------------------------------------------------------
 
                    Orbital Energies (a.u.)
 --------------------------------------------------------------
 
 Alpha MOs
 -- Occupied --
-19.675 -14.824 -10.622 -10.622 -10.605 -10.604 -10.543 -10.542
-10.537 -10.537 -10.533 -10.533 -10.533 -10.533  -1.344  -1.209
 -1.075  -1.035  -0.967  -0.954  -0.922  -0.905  -0.839  -0.831
 -0.776  -0.756  -0.731  -0.710  -0.666  -0.659  -0.657  -0.627
 -0.622  -0.594  -0.586  -0.585  -0.583  -0.548  -0.532  -0.522
 -0.504  -0.501  -0.487  -0.477  -0.399  -0.397  -0.368  -0.325
 -- Virtual --
 -0.093  -0.067  -0.067  -0.033   0.036   0.059   0.080   0.104
  0.132   0.136   0.138   0.139   0.152   0.160   0.166   0.186
  0.195   0.206   0.220   0.238   0.260   0.276   0.276   0.291
  0.295   0.350   0.354   0.387   0.398   0.408   0.435   0.443
  0.446   0.478   0.480   0.494   0.506   0.508   0.512   0.525
  0.526   0.535   0.536   0.543   0.546   0.553   0.559   0.560
  0.562   0.568   0.597   0.613   0.630   0.631   0.650   0.682
  0.698   0.729   0.790   0.803   0.830   0.834   0.861   0.872
  0.892   0.895   0.904   0.910   0.927   0.931   0.937   0.947
  0.957   0.971   0.980   0.994   1.024   1.037   1.053   1.061
  1.073   1.101   1.124   1.143   1.160   1.172   1.198   1.215
  1.220   1.235   1.287   1.290   1.318   1.325   1.375   1.376
  1.395   1.433   1.443   1.458   1.464   1.467   1.492   1.500
  1.537   1.598   1.617   1.655   1.679   1.739   1.779   1.788
  1.803   1.817   1.825   1.912   1.928   1.938   1.955   1.958
  1.968   2.009   2.038   2.039   2.047   2.076   2.100   2.117
  2.129   2.156   2.176   2.191   2.212   2.213   2.247   2.262
  2.268   2.272   2.331   2.338   2.373   2.436   2.440   2.503
  2.523   2.534   2.579   2.604   2.616   2.670   2.671   2.677
  2.698   2.711   2.712   2.752   2.757   2.832   2.862   2.956
  3.014   3.027   3.079   3.350   3.490   3.540  13.141  13.194
 13.612  13.632  13.632  13.670  14.067  14.098  14.111  14.191
 14.479  14.534  19.315  25.684
 
 Beta MOs
 -- Occupied --
-19.669 -14.814 -10.620 -10.620 -10.605 -10.605 -10.542 -10.542
-10.535 -10.535 -10.534 -10.534 -10.533 -10.533  -1.333  -1.192
 -1.070  -1.030  -0.964  -0.949  -0.921  -0.894  -0.838  -0.827
 -0.773  -0.752  -0.727  -0.706  -0.663  -0.653  -0.630  -0.626
 -0.620  -0.592  -0.584  -0.583  -0.545  -0.542  -0.521  -0.517
 -0.503  -0.500  -0.484  -0.455  -0.393  -0.372  -0.358
 -- Virtual --
 -0.201  -0.083  -0.060  -0.052  -0.008   0.041   0.062   0.082
  0.111   0.134   0.138   0.139   0.153   0.154   0.162   0.167
  0.188   0.198   0.208   0.222   0.239   0.261   0.277   0.277
  0.293   0.297   0.353   0.358   0.389   0.406   0.411   0.439
  0.444   0.449   0.483   0.483   0.498   0.507   0.509   0.516
  0.526   0.528   0.536   0.541   0.545   0.547   0.556   0.561
  0.565   0.567   0.569   0.603   0.615   0.634   0.634   0.654
  0.684   0.699   0.733   0.805   0.821   0.833   0.836   0.862
  0.873   0.894   0.896   0.907   0.911   0.931   0.932   0.939
  0.949   0.959   0.971   0.982   0.997   1.026   1.038   1.054
  1.061   1.092   1.103   1.127   1.153   1.161   1.177   1.200
  1.219   1.223   1.238   1.289   1.293   1.325   1.337   1.377
  1.380   1.398   1.439   1.448   1.463   1.466   1.471   1.495
  1.502   1.538   1.600   1.626   1.661   1.680   1.746   1.787
  1.790   1.805   1.826   1.827   1.917   1.930   1.941   1.957
  1.961   1.969   2.013   2.042   2.042   2.052   2.081   2.104
  2.120   2.135   2.161   2.178   2.195   2.213   2.218   2.252
  2.266   2.276   2.280   2.343   2.344   2.378   2.442   2.443
  2.505   2.525   2.535   2.585   2.605   2.620   2.671   2.674
  2.680   2.700   2.712   2.719   2.755   2.762   2.834   2.864
  2.958   3.019   3.029   3.081   3.351   3.491   3.542  13.142
 13.195  13.612  13.633  13.634  13.670  14.068  14.100  14.112
 14.192  14.480  14.535  19.328  25.692
 --------------------------------------------------------------
 
          Ground-State Mulliken Net Atomic Charges

     Atom                 Charge (a.u.)    Spin (a.u.)
  --------------------------------------------------------
      1 N                    -0.694421       0.357979
      2 C                     0.363939       0.010941
      3 C                     0.377720       0.157824
      4 C                    -0.323078      -0.103534
      5 H                     0.298351       0.004089
      6 C                    -0.216956       0.164387
      7 H                     0.289223      -0.009088
      8 C                    -0.217443      -0.019976
      9 H                     0.286811       0.000315
     10 C                    -0.305864       0.056851
     11 H                     0.286832      -0.004021
     12 C                     0.365205       0.010609
     13 C                    -0.305921       0.056842
     14 H                     0.286725      -0.004025
     15 C                    -0.217688      -0.019959
     16 H                     0.286741       0.000316
     17 C                    -0.217019       0.164065
     18 H                     0.289230      -0.009067
     19 C                    -0.323144      -0.103374
     20 H                     0.298310       0.004082
     21 C                     0.377012       0.157816
     22 O                    -0.420968       0.143824
     23 H                     0.436405      -0.016896
  --------------------------------------------------------
  Sum of atomic charges =     1.000000
  Sum of spin   charges =     1.000000

 -----------------------------------------------------------------
                    Cartesian Multipole Moments
 -----------------------------------------------------------------
    Charge (ESU x 10^10)
                 4.8032
    Dipole Moment (Debye)
         X       8.8455      Y       1.8615      Z      -9.7030
       Tot      13.2610
    Quadrupole Moments (Debye-Ang)
        XX     -27.2635     XY      -2.7158     YY     -56.1936
        XZ     -29.8666     YZ      13.5211     ZZ     -51.3788
    Octopole Moments (Debye-Ang^2)
       XXX    -264.3240    XXY     -62.1769    XYY    -145.0885
       YYY    -142.8155    XXZ     -10.7000    XYZ      30.0078
       YYZ     130.0053    XZZ     -78.5585    YZZ    -114.4643
       ZZZ     351.5647
    Hexadecapole Moments (Debye-Ang^3)
      XXXX   -2644.6531   XXXY     -76.0164   XXYY    -799.0752
      XYYY     -31.3493   YYYY   -1138.5141   XXXZ     499.2799
      XXYZ     120.1136   XYYZ     371.0382   YYYZ      70.7772
      XXZZ    -580.9681   XYZZ    -171.5459   YYZZ    -526.9693
      XZZZ    1067.0724   YZZZ     163.1917   ZZZZ   -2063.2310
 -----------------------------------------------------------------
 Calculating analytic gradient of the SCF energy
  2.705127384412646E-005  2.703712402544228E-005
  2.705232918201302E-005  2.703606049271622E-005
  2.704685443324700E-005  2.704152308072100E-005
  2.704446692291918E-005  2.704392499456013E-005
  2.704943105012375E-005  2.703895441751054E-005
  2.704688962267637E-005  2.704148461922421E-005
  2.703719545227471E-005  2.705119432259724E-005
  2.704207193377423E-005  2.704631443750058E-005
  2.704390177635464E-005  2.704447323213256E-005
  2.703732391545213E-005  2.705107700567196E-005
  2.703719614130887E-005  2.705119464553781E-005
  2.704155667523986E-005  2.704682389942956E-005
  2.704120594130292E-005  2.704719898547858E-005
  2.704598189501659E-005  2.704241975520720E-005
  2.704608358907775E-005  2.704230990941993E-005
  2.704651426457859E-005  2.704187009325451E-005
  2.704629319588140E-005  2.704210263998053E-005
  2.704536553342576E-005  2.704301371712828E-005
  2.703997909672243E-005  2.704841151766601E-005
  2.704556057704162E-005  2.704282938651773E-005
  2.704615226168385E-005  2.704223166923584E-005
  2.704277667597131E-005  2.704562260040522E-005
  2.704115298387898E-005  2.704723098420715E-005
  2.704302742818639E-005  2.704534746435477E-005
  2.704206625880951E-005  2.704632437638306E-005
  2.704761362652899E-005  2.704077645508294E-005
  2.704696887539922E-005  2.704141552982235E-005
  2.705088311064909E-005  2.703750871793532E-005
  2.704996861272807E-005  2.703842585958347E-005
  2.704658741081980E-005  2.704179394991051E-005
  2.704220114495415E-005  2.704620431667452E-005
  2.704633491623604E-005  2.704206724976184E-005
  2.704615076295695E-005  2.704224236774249E-005
  2.704984273436385E-005  2.703854780398885E-005
  2.704582955683527E-005  2.704255682371957E-005
  2.704362741414105E-005  2.704474729761089E-005
  2.704940154578690E-005  2.703899840410391E-005
  2.705095723552474E-005  2.703743099602025E-005
  2.704750095421397E-005  2.704087852146514E-005
  2.704728295506909E-005  2.704112195974944E-005
  2.704291528709251E-005  2.704548698908984E-005
  2.704308295483589E-005  2.704531061009597E-005
  2.704131358075078E-005  2.704707143171009E-005
  2.704213450691680E-005  2.704625908932690E-005
  2.704390505246081E-005  2.704447447821754E-005
  2.704878243264698E-005  2.703960768150298E-005
  2.704310416793088E-005  2.704528571420872E-005
  2.704289672496970E-005  2.704548841695804E-005
  2.704629429960799E-005  2.704210575809478E-005
  2.704644543184118E-005  2.704193838074688E-005
  2.704549482450276E-005  2.704288076324592E-005
  2.704693047777171E-005  2.704145886452523E-005
  2.704089373367517E-005  2.704749664686432E-005
  2.704192016864947E-005  2.704646464868737E-005
  2.703795853662933E-005  2.705043629438866E-005
  2.703676243267813E-005  2.705163240288999E-005
  2.704116119281950E-005  2.704722142066035E-005
  2.704706102980279E-005  2.704134335860981E-005
  2.704204283714632E-005  2.704635897124998E-005
  2.704252106534070E-005  2.704587281622288E-005
  2.704313804772073E-005  2.704525345481513E-005
  2.703809642856796E-005  2.705028865162973E-005
  2.704030232278137E-005  2.704807225156225E-005
  2.703768270288842E-005  2.705071947188679E-005
  2.703806648698150E-005  2.705032614893852E-005
  2.704022722265478E-005  2.704815099439347E-005
  2.704497656444904E-005  2.704342610019407E-005
  2.704532706766147E-005  2.704307215221956E-005
  2.704421675637361E-005  2.704417336442565E-005
 Gradient of SCF Energy
            1           2           3           4           5           6
    1   0.0116096  -0.0042761  -0.0043315  -0.0028793   0.0129164  -0.0012480
    2   0.0130711   0.0026900  -0.0023770  -0.0034277   0.0140059  -0.0059054
    3   0.0048762   0.0022281  -0.0021159  -0.0015907   0.0060700  -0.0032078
            7           8           9          10          11          12
    1  -0.0057870   0.0062214  -0.0192041   0.0100881  -0.0154298   0.0038004
    2   0.0154823   0.0055332   0.0018413   0.0026838  -0.0158694  -0.0029838
    3   0.0102000   0.0021832   0.0045431  -0.0003224  -0.0062380  -0.0027516
           13          14          15          16          17          18
    1   0.0006919  -0.0143995   0.0049627   0.0062830  -0.0063971   0.0188098
    2   0.0090797  -0.0164307   0.0064344  -0.0152527  -0.0024767  -0.0010103
    3   0.0054993  -0.0068682   0.0029632  -0.0109599  -0.0000726  -0.0047320
           19          20          21          22          23
    1  -0.0032469   0.0130954  -0.0028345   0.0117406  -0.0201855
    2  -0.0032098   0.0138764  -0.0034481   0.0108025  -0.0231090
    3  -0.0013522   0.0059638  -0.0029988   0.0071923  -0.0085092
 Max gradient component =       2.311E-02
 RMS gradient           =       9.066E-03
 Computing fast IEFPCM-SWIG gradient.
 Updating gradient with PCM contributions...
 -- total gradient after adding PCM contribution --
---------------------------------------------------
  Atom         X              Y              Z     
---------------------------------------------------
   1      -0.000004       0.000051      -0.000048
   2      -0.000311       0.000247       0.000290
   3       0.000301       0.000186      -0.001148
   4       0.000071      -0.000215      -0.000425
   5      -0.000138      -0.000008       0.000123
   6      -0.001009      -0.000592      -0.000064
   7       0.000134       0.000051       0.000003
   8       0.000168       0.000923       0.000655
   9      -0.000036      -0.000077      -0.000117
  10       0.000901      -0.000514      -0.000631
  11      -0.000185       0.000197       0.000284
  12       0.000459      -0.000367      -0.000125
  13      -0.001052       0.000532       0.000406
  14       0.000354      -0.000110      -0.000034
  15       0.001111       0.000317       0.000053
  16      -0.000133      -0.000008      -0.000056
  17      -0.000450      -0.000986      -0.000451
  18       0.000052       0.000124       0.000078
  19      -0.000441       0.000074      -0.000173
  20       0.000103      -0.000160      -0.000024
  21      -0.000758       0.000937      -0.000434
  22       0.000256      -0.000990       0.001276
  23       0.000608       0.000387       0.000562
---------------------------------------------------
 Number of fixed atoms: 0
 Gradient time:  CPU 35.06 s  wall 13.19 s
 Geometry Optimization Parameters
   NAtoms,    NIC,     NZ,  NCons,   NDum,   NFix, NCnnct, MaxDiis
       23     171       0       0       0       0       0       0

 Cartesian Hessian Update
 Hessian Updated using BFGS Update


** GEOMETRY OPTIMIZATION IN DELOCALIZED INTERNAL COORDINATES **
   Searching for a Minimum

   Optimization Cycle:   3

                       Coordinates (Angstroms)
     ATOM                X               Y               Z
      1  N         1.3615176306   -0.1545924095   -2.2130368853
      2  C         0.9018554302    0.9069862190   -1.4978083592
      3  C         1.8323585703    1.8818642837   -1.0957070402
      4  C         1.4217574450    2.9869110811   -0.3673206155
      5  H         2.1469650316    3.7284294093   -0.0610419808
      6  C         0.0860372543    3.1138032544   -0.0451129723
      7  H        -0.2417178311    3.9736426650    0.5219936629
      8  C        -0.8473599836    2.1465338453   -0.4409120684
      9  H        -1.8892150840    2.2643114045   -0.1789966604
     10  C        -0.4485967624    1.0485069293   -1.1616384338
     11  H        -1.1643686674    0.2969050528   -1.4695853933
     12  C         2.6674022680   -0.2790916702   -2.5707545433
     13  C         3.1306168613   -1.3537378531   -3.3362801518
     14  H         2.4408490486   -2.1220578407   -3.6615477599
     15  C         4.4617887591   -1.4170081061   -3.6654542273
     16  H         4.8266814855   -2.2433900401   -4.2586204757
     17  C         5.3472154258   -0.4181802457   -3.2394449346
     18  H         6.3929585311   -0.4799548749   -3.5057242896
     19  C         4.9049293384    0.6474550688   -2.4829573382
     20  H         5.5838306227    1.4199499933   -2.1483133329
     21  C         3.5624519842    0.7187549723   -2.1474242938
     22  O         3.1344206074    1.7499385655   -1.3995412369
     23  H         0.7085220346   -0.8766797038   -2.4929706697
   Point Group: c1    Number of degrees of freedom:    63


   Energy is   -591.173894506

 Hessian Updated using BFGS Update

 63 Hessian modes will be used to form the next step
  Hessian Eigenvalues:
     0.012144    0.014164    0.018381    0.018992    0.020233    0.021100
     0.021803    0.022024    0.022050    0.022203    0.022280    0.022316
     0.022324    0.022583    0.022692    0.022698    0.022776    0.022929
     0.022955    0.023357    0.154359    0.159652    0.159972    0.159976
     0.159978    0.159995    0.159997    0.159998    0.160671    0.219995
     0.220068    0.224732    0.226102    0.240009    0.242221    0.244641
     0.249853    0.260275    0.356136    0.356274    0.356646    0.356699
     0.357209    0.357222    0.357268    0.357360    0.374640    0.386596
     0.410727    0.415758    0.416012    0.418136    0.424422    0.441601
     0.443020    0.448494    0.453533    0.458172    0.459967    0.461691
     0.495111    0.532765    0.560745

 Minimum Search - Taking Simple RFO Step
 Searching for Lamda that Minimizes Along All modes
 Value Taken    Lamda =  -0.00008974
 Step Taken.  Stepsize is  0.066143

                             Maximum     Tolerance    Cnvgd?
         Gradient           0.001055      0.000075      NO
         Displacement       0.025778      0.001200      NO
         Energy change     -0.000582      0.000000      NO


 New Cartesian Coordinates Obtained by Inverse Iteration

 Displacement from previous Coordinates is:  0.103089
 Adding empirical dispersion correction 
 ----------------------------------------------------------------
 Doing -D3(BJ) with
 s6 =   1.00000
 s8 =   0.00000
 a1 =   0.48600
 a2 =   4.50000
 -D3 energy including 3body term =     -0.0158142015 hartrees
 ----------------------------------------------------------------
 Adding gCP correction 
 ----------------------------------------------------------------
 gCP energy =      0.0363287136 hartrees
 ----------------------------------------------------------------
             Standard Nuclear Orientation (Angstroms)
    I     Atom           X                Y                Z
 ----------------------------------------------------------------
    1      N       1.3573801349    -0.1485745992    -2.2263685221
    2      C       0.8993095337     0.9081462749    -1.5026752287
    3      C       1.8298890775     1.8839045321    -1.1004067121
    4      C       1.4225855146     2.9876981530    -0.3678164017
    5      H       2.1489952932     3.7306192031    -0.0675149640
    6      C       0.0889293100     3.1112844586    -0.0385605755
    7      H      -0.2388339998     3.9689883668     0.5318276385
    8      C      -0.8454909221     2.1422718471    -0.4321733120
    9      H      -1.8855620392     2.2585493833    -0.1625703749
   10      C      -0.4503380503     1.0473571670    -1.1586536211
   11      H      -1.1652209195     0.2953394409    -1.4682586771
   12      C       2.6650842336    -0.2773710471    -2.5765984613
   13      C       3.1320162523    -1.3561402082    -3.3355562568
   14      H       2.4408193246    -2.1235512231    -3.6607783750
   15      C       4.4643464420    -1.4215758674    -3.6570308786
   16      H       4.8327205945    -2.2511425743    -4.2436214493
   17      C       5.3497022177    -0.4204013736    -3.2323285521
   18      H       6.3959751567    -0.4851297976    -3.4957391383
   19      C       4.9052986760     0.6487549688    -2.4830666095
   20      H       5.5811938675     1.4252655484    -2.1514487028
   21      C       3.5611251169     0.7204777011    -2.1533279168
   22      O       3.1296752002     1.7592737988    -1.4175300163
   23      H       0.7012999850    -0.8647441537    -2.5180028925
 ----------------------------------------------------------------
 Nuclear Repulsion Energy =   819.5433262813 hartrees
 There are       48 alpha and       47 beta electrons
 Discretize the solute cavity surface with Lebedev spheres
	Using 302 Lebedev grid points for each H atom
	Using 302 Lebedev grid points for other atoms
	Atomic van der Waals radii will be scaled by 1.20
 Remove points where switching function is < 1.0e-08
 Keep 2700 surface tesserae and discard 4246 interior tesserae
 Molecular Surface Area = 214.069 Angst**2
 Applying Cartesian multipole field
    Component          Value
    ---------          -----
     (2,0,0)        1.00000E-12
     (0,2,0)        2.00000E-11
     (0,0,2)       -3.00000E-11
 Nucleus-field energy     =    -0.0000000258 hartrees
 Requested basis set is def2-mSVP
 There are 116 shells and 228 basis functions
 A cutoff of  1.0D-11 yielded   5250 shell pairs
 There are     21534 function pairs (     24165 Cartesian)
 Smallest overlap matrix eigenvalue = 3.44E-04
 Guess MOs from SCF MO coefficient file

 -----------------------------------------------------------------------
  General SCF calculation program by
  Eric Jon Sundstrom, Paul Horn, Yuezhi Mao, Dmitri Zuev, Alec White,
  David Stuck, Shaama M.S., Shane Yost, Joonho Lee, David Small,
  Daniel Levine, Susi Lehtola, Hugh Burton, Evgeny Epifanovsky
 -----------------------------------------------------------------------
 Exchange:     0.4200 Hartree-Fock + 0.5800 PBEh-3c
 Correlation:  1.0000 PBEh-3c
 Using SG-1 standard quadrature grid
 Dispersion:   Grimme D3
 using 4 threads for integral computing
 -------------------------------------------------------
 OpenMP Integral computing Module                
 Release: version 2.0, May 2017, Q-Chem Inc. Pleasanton 
 -------------------------------------------------------
 -------------------------------------------------------
 OpenMP BLAS3 based DFT computing Module                
 Release: version 1.0, May 2013, Q-Chem Inc. Pittsburgh 
[...]
  2.708637286069316E-005  2.709083332081465E-005
  2.708850794337968E-005  2.708868675574957E-005
  2.708168745108461E-005  2.709553318727715E-005
  2.708168845846174E-005  2.709552210460390E-005
  2.708584911221645E-005  2.709135136322015E-005
  2.708561349997824E-005  2.709161116649110E-005
  2.709044953117882E-005  2.708677180623439E-005
  2.709037632490920E-005  2.708683704709890E-005
  2.709086058770993E-005  2.708634346474544E-005
  2.709083967911562E-005  2.708637559890270E-005
  2.708956499675582E-005  2.708763431171564E-005
  2.708438760164970E-005  2.709282271076021E-005
  2.709005053996345E-005  2.708715892129488E-005
  2.709040931619073E-005  2.708679463202006E-005
  2.708713305827679E-005  2.709008579291772E-005
  2.708571402263003E-005  2.709148957407944E-005
  2.708724502388449E-005  2.708994980253829E-005
  2.708645882181808E-005  2.709075143078456E-005
  2.709209471514559E-005  2.708511503327832E-005
  2.709121109601424E-005  2.708599320623701E-005
  2.709525824901706E-005  2.708195334706558E-005
  2.709447140536236E-005  2.708274269377069E-005
  2.709083511894880E-005  2.708636620266198E-005
  2.708657611570819E-005  2.709064906432639E-005
  2.709081723643580E-005  2.708640465369645E-005
  2.709041163544358E-005  2.708680133873455E-005
  2.709429963703084E-005  2.708291068612704E-005
  2.709011550379462E-005  2.708709064846415E-005
  2.708825472140012E-005  2.708893971623779E-005
  2.709377122410836E-005  2.708344856971170E-005
  2.709546957649970E-005  2.708173848762259E-005
  2.709173999141083E-005  2.708545915137625E-005
  2.709165107453573E-005  2.708557361657007E-005
  2.708741313594844E-005  2.708980905141986E-005
  2.708733732775867E-005  2.708987583387405E-005
  2.708570980213358E-005  2.709149499274176E-005
  2.708667011379530E-005  2.709054355767205E-005
  2.708809482496746E-005  2.708910399800137E-005
  2.709313668567653E-005  2.708407320039584E-005
  2.708761774372539E-005  2.708959215589699E-005
  2.708715345484261E-005  2.709005107722323E-005
  2.709067500678025E-005  2.708654487873876E-005
  2.709097445298485E-005  2.708622918043401E-005
  2.708966978761885E-005  2.708752533126071E-005
  2.709129547331500E-005  2.708591369764071E-005
  2.708540682057767E-005  2.709180335979617E-005
  2.708621024474634E-005  2.709099414297314E-005
  2.708236055271964E-005  2.709485414529315E-005
  2.708122419989177E-005  2.709599061752236E-005
  2.708544535890149E-005  2.709175680423369E-005
  2.709143366689876E-005  2.708579052449877E-005
  2.708652762498203E-005  2.709069402183276E-005
  2.708683864564300E-005  2.709037488908098E-005
  2.708759529964743E-005  2.708961591817175E-005
  2.708239695796270E-005  2.709480795750058E-005
  2.708493621783086E-005  2.709225802441405E-005
  2.708228272311505E-005  2.709493907696960E-005
  2.708189935666048E-005  2.709531338558650E-005
  2.708558638673173E-005  2.709161123051245E-005
  2.708942366196032E-005  2.708779885675396E-005
  2.708953303808773E-005  2.708768570082295E-005
  2.708892297548119E-005  2.708828708048222E-005
 Gradient of SCF Energy
            1           2           3           4           5           6
    1   0.0116422  -0.0038736  -0.0046832  -0.0029407   0.0131113  -0.0002148
    2   0.0127541   0.0022628  -0.0027092  -0.0030998   0.0140587  -0.0052848
    3   0.0051948   0.0021502  -0.0006624  -0.0012327   0.0057623  -0.0031674
            7           8           9          10          11          12
    1  -0.0059363   0.0061583  -0.0190933   0.0089596  -0.0151575   0.0033070
    2   0.0153279   0.0046031   0.0018575   0.0032861  -0.0160761  -0.0026947
    3   0.0103635   0.0014888   0.0049422   0.0002027  -0.0065886  -0.0023653
           13          14          15          16          17          18
    1   0.0018617  -0.0148277   0.0038012   0.0065274  -0.0059210   0.0187719
    2   0.0084042  -0.0162291   0.0061823  -0.0153588  -0.0014591  -0.0012788
    3   0.0048231  -0.0067978   0.0029508  -0.0106628   0.0003642  -0.0047193
           19          20          21          22          23
    1  -0.0027933   0.0128914  -0.0019865   0.0113815  -0.0209857
    2  -0.0031961   0.0141749  -0.0046211   0.0122389  -0.0231428
    3  -0.0012751   0.0058699  -0.0023680   0.0051804  -0.0094534
 Max gradient component =       2.314E-02
 RMS gradient           =       9.038E-03
 Computing fast IEFPCM-SWIG gradient.
 Updating gradient with PCM contributions...
 -- total gradient after adding PCM contribution --
---------------------------------------------------
  Atom         X              Y              Z     
---------------------------------------------------
   1      -0.000010      -0.000017       0.000010
   2       0.000021       0.000014       0.000014
   3      -0.000006      -0.000014      -0.000016
   4      -0.000011       0.000019      -0.000001
   5       0.000009       0.000010      -0.000023
   6       0.000032       0.000015       0.000002
   7       0.000003       0.000008      -0.000006
   8       0.000003      -0.000015      -0.000002
   9       0.000009       0.000003       0.000023
  10      -0.000007       0.000001       0.000024
  11       0.000005      -0.000007       0.000028
  12       0.000012       0.000017       0.000012
  13       0.000003      -0.000018       0.000004
  14      -0.000005      -0.000011       0.000019
  15      -0.000026      -0.000010      -0.000005
  16      -0.000005      -0.000009       0.000003
  17      -0.000001       0.000018      -0.000002
  18      -0.000010      -0.000003      -0.000026
  19       0.000011      -0.000004      -0.000027
  20      -0.000008       0.000010      -0.000028
  21      -0.000020      -0.000016      -0.000018
  22       0.000004       0.000016      -0.000008
  23      -0.000001      -0.000007       0.000023
---------------------------------------------------
 Number of fixed atoms: 0
 Gradient time:  CPU 34.51 s  wall 12.35 s
 Geometry Optimization Parameters
   NAtoms,    NIC,     NZ,  NCons,   NDum,   NFix, NCnnct, MaxDiis
       23     171       0       0       0       0       0       0

 Cartesian Hessian Update
 Hessian Updated using BFGS Update


** GEOMETRY OPTIMIZATION IN DELOCALIZED INTERNAL COORDINATES **
   Searching for a Minimum

   Optimization Cycle:   7

                       Coordinates (Angstroms)
     ATOM                X               Y               Z
      1  N         1.3552097851   -0.1436116618   -2.2352241344
      2  C         0.8984712903    0.9121202766   -1.5088497253
      3  C         1.8285921427    1.8880787964   -1.1079246424
      4  C         1.4227891895    2.9877780019   -0.3682604210
      5  H         2.1496218695    3.7304935867   -0.0685183056
      6  C         0.0906106961    3.1073151684   -0.0323202024
      7  H        -0.2367539292    3.9611442075    0.5440103590
      8  C        -0.8439887301    2.1387896421   -0.4270655089
      9  H        -1.8830126912    2.2523969177   -0.1523073883
     10  C        -0.4500311609    1.0475526075   -1.1593088926
     11  H        -1.1647201967    0.2951916272   -1.4682768436
     12  C         2.6639407886   -0.2738098897   -2.5821650377
     13  C         3.1320919177   -1.3566179930   -3.3345915550
     14  H         2.4412750801   -2.1247730816   -3.6585895192
     15  C         4.4653364898   -1.4249808782   -3.6508630603
     16  H         4.8352992714   -2.2576134379   -4.2320776153
     17  C         5.3506555025   -0.4235100690   -3.2264526347
     18  H         6.3978439556   -0.4918576928   -3.4851162537
     19  C         4.9046927924    0.6495926365   -2.4841396014
     20  H         5.5797206659    1.4271573621   -2.1532551735
     21  C         3.5591598296    0.7248431069   -2.1607446375
     22  O         3.1258949475    1.7714000749   -1.4372919677
     23  H         0.6982004935   -0.8577793087   -2.5288672387
   Point Group: c1    Number of degrees of freedom:    63


   Energy is   -591.173972203

 Hessian Updated using BFGS Update

 63 Hessian modes will be used to form the next step
  Hessian Eigenvalues:
     0.008877    0.012584    0.016196    0.018386    0.019512    0.020244
     0.021785    0.021933    0.022032    0.022051    0.022283    0.022324
     0.022450    0.022628    0.022691    0.022704    0.022794    0.022935
     0.022960    0.023895    0.136393    0.159607    0.159970    0.159976
     0.159995    0.159998    0.160023    0.160610    0.161672    0.219018
     0.220010    0.226055    0.226172    0.236249    0.240921    0.244779
     0.250140    0.258202    0.356300    0.356340    0.356663    0.356794
     0.357204    0.357219    0.357263    0.357347    0.374712    0.385452
     0.410457    0.414365    0.416098    0.418030    0.422347    0.428918
     0.441621    0.453552    0.458234    0.459664    0.461688    0.469000
     0.494472    0.532569    0.560563

 Minimum Search - Taking Simple RFO Step
 Searching for Lamda that Minimizes Along All modes
 Value Taken    Lamda =   0.00000000
 Step Taken.  Stepsize is  0.000298

                             Maximum     Tolerance    Cnvgd?
         Gradient           0.000030      0.000075     YES
         Displacement       0.000140      0.001200     YES
         Energy change      0.000000      0.000000     YES

 Final energy is   -591.173972203463     


 ******************************
 **  OPTIMIZATION CONVERGED  **
 ******************************

                       Coordinates (Angstroms)
     ATOM                X               Y               Z
      1  N         1.3552097851   -0.1436116618   -2.2352241344
      2  C         0.8984712903    0.9121202766   -1.5088497253
      3  C         1.8285921427    1.8880787964   -1.1079246424
      4  C         1.4227891895    2.9877780019   -0.3682604210
      5  H         2.1496218695    3.7304935867   -0.0685183056
      6  C         0.0906106961    3.1073151684   -0.0323202024
      7  H        -0.2367539292    3.9611442075    0.5440103590
      8  C        -0.8439887301    2.1387896421   -0.4270655089
      9  H        -1.8830126912    2.2523969177   -0.1523073883
     10  C        -0.4500311609    1.0475526075   -1.1593088926
     11  H        -1.1647201967    0.2951916272   -1.4682768436
     12  C         2.6639407886   -0.2738098897   -2.5821650377
     13  C         3.1320919177   -1.3566179930   -3.3345915550
     14  H         2.4412750801   -2.1247730816   -3.6585895192
     15  C         4.4653364898   -1.4249808782   -3.6508630603
     16  H         4.8352992714   -2.2576134379   -4.2320776153
     17  C         5.3506555025   -0.4235100690   -3.2264526347
     18  H         6.3978439556   -0.4918576928   -3.4851162537
     19  C         4.9046927924    0.6495926365   -2.4841396014
     20  H         5.5797206659    1.4271573621   -2.1532551735
     21  C         3.5591598296    0.7248431069   -2.1607446375
     22  O         3.1258949475    1.7714000749   -1.4372919677
     23  H         0.6982004935   -0.8577793087   -2.5288672387

Z-matrix Print:
$molecule
1 2
O 
C  1 1.343537
C  1 1.344018 2 120.720737
C  3 1.385895 1 118.741744 2 179.616993 0
H  4 1.081552 3 119.704495 1 -0.040485 0
C  4 1.378935 3 118.807170 1 -179.993712 0
H  6 1.080825 4 119.431954 3 179.946312 0
C  2 1.386044 1 118.844244 3 -179.575797 0
H  8 1.081553 2 119.734727 1 -0.020598 0
C  8 1.379074 2 118.789347 1 179.915220 0
H  10 1.080902 8 119.401000 2 -179.979508 0
C  6 1.402447 4 120.961429 3 0.014341 0
H  12 1.080722 6 119.789304 4 179.984031 0
C  12 1.371948 6 120.538283 4 0.002230 0
H  14 1.082712 12 121.044692 6 179.953877 0
C  14 1.399209 12 119.187661 6 0.011362 0
N  16 1.360182 14 122.219648 12 179.927286 0
H  17 1.013865 16 118.829863 14 0.263714 0
C  17 1.360441 16 122.242140 14 -179.693944 0
C  19 1.399636 17 122.133511 16 179.644343 0
H  20 1.082723 19 119.832512 17 0.100502 0
C  20 1.371926 19 119.138630 17 -179.877659 0
H  22 1.080726 20 119.695045 19 179.994326 0
$end

 
 --------------------------------------------------------------
 
                    Orbital Energies (a.u.)
 --------------------------------------------------------------
 
 Alpha MOs
 -- Occupied --
-19.675 -14.824 -10.622 -10.622 -10.605 -10.605 -10.543 -10.542
-10.537 -10.537 -10.533 -10.533 -10.533 -10.533  -1.344  -1.208
 -1.075  -1.035  -0.967  -0.954  -0.922  -0.905  -0.839  -0.831
 -0.776  -0.756  -0.731  -0.709  -0.665  -0.659  -0.657  -0.627
 -0.622  -0.594  -0.586  -0.585  -0.584  -0.548  -0.532  -0.522
 -0.504  -0.501  -0.486  -0.477  -0.399  -0.397  -0.368  -0.325
 -- Virtual --
 -0.093  -0.067  -0.067  -0.033   0.035   0.059   0.080   0.104
  0.133   0.136   0.138   0.139   0.151   0.160   0.165   0.185
  0.195   0.206   0.220   0.238   0.260   0.276   0.276   0.291
  0.295   0.350   0.354   0.387   0.398   0.408   0.435   0.443
  0.446   0.478   0.480   0.494   0.505   0.508   0.512   0.524
  0.526   0.536   0.536   0.543   0.546   0.553   0.560   0.560
  0.561   0.568   0.597   0.613   0.630   0.631   0.650   0.681
  0.699   0.728   0.790   0.802   0.830   0.835   0.861   0.872
  0.893   0.895   0.904   0.910   0.927   0.931   0.937   0.947
  0.958   0.971   0.980   0.994   1.025   1.037   1.052   1.061
  1.073   1.102   1.124   1.144   1.160   1.172   1.200   1.214
  1.218   1.234   1.287   1.291   1.318   1.325   1.374   1.375
  1.395   1.433   1.443   1.459   1.464   1.467   1.492   1.500
  1.536   1.598   1.617   1.655   1.679   1.739   1.779   1.788
  1.803   1.817   1.825   1.912   1.929   1.937   1.954   1.957
  1.968   2.010   2.037   2.039   2.047   2.077   2.100   2.118
  2.129   2.155   2.176   2.190   2.211   2.214   2.246   2.262
  2.267   2.272   2.331   2.337   2.372   2.436   2.439   2.503
  2.523   2.534   2.578   2.604   2.616   2.670   2.672   2.676
  2.701   2.708   2.710   2.752   2.758   2.832   2.861   2.955
  3.013   3.026   3.079   3.349   3.489   3.540  13.141  13.194
 13.611  13.632  13.633  13.669  14.067  14.097  14.111  14.190
 14.478  14.533  19.315  25.684
 
 Beta MOs
 -- Occupied --
-19.669 -14.814 -10.620 -10.620 -10.605 -10.605 -10.542 -10.542
-10.535 -10.535 -10.534 -10.534 -10.533 -10.533  -1.333  -1.192
 -1.070  -1.030  -0.964  -0.949  -0.921  -0.894  -0.838  -0.827
 -0.773  -0.752  -0.727  -0.706  -0.663  -0.653  -0.630  -0.626
 -0.621  -0.592  -0.584  -0.583  -0.545  -0.542  -0.521  -0.517
 -0.503  -0.499  -0.484  -0.455  -0.393  -0.372  -0.358
 -- Virtual --
 -0.201  -0.083  -0.060  -0.052  -0.008   0.041   0.062   0.082
  0.110   0.134   0.139   0.140   0.153   0.154   0.162   0.167
  0.187   0.197   0.208   0.222   0.239   0.260   0.277   0.277
  0.293   0.297   0.353   0.358   0.389   0.406   0.411   0.439
  0.444   0.449   0.483   0.483   0.498   0.506   0.509   0.516
  0.526   0.528   0.537   0.541   0.545   0.547   0.557   0.561
  0.565   0.567   0.570   0.603   0.615   0.634   0.634   0.654
  0.684   0.699   0.733   0.804   0.822   0.832   0.837   0.862
  0.873   0.895   0.895   0.906   0.911   0.930   0.933   0.939
  0.949   0.959   0.971   0.982   0.997   1.027   1.038   1.053
  1.061   1.091   1.104   1.127   1.154   1.161   1.177   1.202
  1.219   1.221   1.237   1.289   1.294   1.325   1.336   1.377
  1.379   1.398   1.440   1.448   1.463   1.465   1.472   1.495
  1.502   1.537   1.600   1.627   1.661   1.680   1.746   1.786
  1.790   1.805   1.826   1.827   1.918   1.932   1.941   1.956
  1.961   1.969   2.014   2.041   2.042   2.052   2.081   2.104
  2.121   2.135   2.160   2.178   2.194   2.213   2.218   2.251
  2.266   2.276   2.279   2.343   2.343   2.376   2.442   2.442
  2.505   2.525   2.536   2.584   2.605   2.620   2.672   2.674
  2.679   2.702   2.711   2.717   2.754   2.762   2.834   2.863
  2.957   3.018   3.028   3.080   3.351   3.490   3.542  13.142
 13.195  13.611  13.634  13.635  13.669  14.067  14.099  14.112
 14.192  14.479  14.534  19.328  25.692
 --------------------------------------------------------------
 
          Ground-State Mulliken Net Atomic Charges

     Atom                 Charge (a.u.)    Spin (a.u.)
  --------------------------------------------------------
      1 N                    -0.694925       0.357313
      2 C                     0.363395       0.011601
      3 C                     0.377677       0.157895
      4 C                    -0.322138      -0.102820
      5 H                     0.298470       0.004050
      6 C                    -0.217475       0.163385
      7 H                     0.289274      -0.009042
      8 C                    -0.217720      -0.018799
      9 H                     0.286788       0.000254
     10 C                    -0.305317       0.055241
     11 H                     0.286735      -0.003943
     12 C                     0.364731       0.011141
     13 C                    -0.305240       0.055260
     14 H                     0.286574      -0.003950
     15 C                    -0.217829      -0.018834
     16 H                     0.286702       0.000259
     17 C                    -0.217649       0.162983
     18 H                     0.289266      -0.009016
     19 C                    -0.322132      -0.102615
     20 H                     0.298387       0.004042
     21 C                     0.376940       0.157773
     22 O                    -0.421065       0.144714
     23 H                     0.436550      -0.016891
  --------------------------------------------------------
  Sum of atomic charges =     1.000000
  Sum of spin   charges =     1.000000

 -----------------------------------------------------------------
                    Cartesian Multipole Moments
 -----------------------------------------------------------------
    Charge (ESU x 10^10)
                 4.8032
    Dipole Moment (Debye)
         X       8.8458      Y       1.8693      Z      -9.7088
       Tot      13.2666
    Quadrupole Moments (Debye-Ang)
        XX     -27.2245     XY      -2.7058     YY     -56.2781
        XZ     -29.7857     YZ      13.5730     ZZ     -51.2985
    Octopole Moments (Debye-Ang^2)
       XXX    -263.4508    XXY     -62.8930    XYY    -144.4966
       YYY    -143.7157    XXZ      -9.7803    XYZ      29.9372
       YYZ     130.4058    XZZ     -79.6067    YZZ    -114.3115
       ZZZ     352.5770
    Hexadecapole Moments (Debye-Ang^3)
      XXXX   -2638.6274   XXXY     -80.5451   XXYY    -797.2001
      XYYY     -32.1770   YYYY   -1142.5373   XXXZ     503.1914
      XXYZ     121.9121   XYYZ     370.3650   YYYZ      73.0665
      XXZZ    -587.5105   XYZZ    -171.0794   YYZZ    -527.7521
      XZZZ    1075.6589   YZZZ     162.8132   ZZZZ   -2071.8738
 -----------------------------------------------------------------
Archival summary:
1\1\ctcp036\OPT\ProcedureUnspecified\BasisUnspecified\11129(1+,2)\mewes1\MonDec311:46:262018MonDec311:46:262018\0\\#,OPT,ProcedureUnspecified,BasisUnspecified,\\1,2\O\C,1,1.34354\C,1,1.34402,2,120.721\C,3,1.3859,1,118.742,2,179.617,0\H,4,1.08155,3,119.704,1,-0.0404851,0\C,4,1.37893,3,118.807,1,-179.994,0\H,6,1.08082,4,119.432,3,179.946,0\C,2,1.38604,1,118.844,3,-179.576,0\H,8,1.08155,2,119.735,1,-0.0205975,0\C,8,1.37907,2,118.789,1,179.915,0\H,10,1.0809,8,119.401,2,-179.98,0\C,6,1.40245,4,120.961,3,0.014341,0\H,12,1.08072,6,119.789,4,179.984,0\C,12,1.37195,6,120.538,4,0.00222974,0\H,14,1.08271,12,121.045,6,179.954,0\C,14,1.39921,12,119.188,6,0.0113618,0\N,16,1.36018,14,122.22,12,179.927,0\H,17,1.01387,16,118.83,14,0.263714,0\C,17,1.36044,16,122.242,14,-179.694,0\C,19,1.39964,17,122.134,16,179.644,0\H,20,1.08272,19,119.833,17,0.100502,0\C,20,1.37193,19,119.139,17,-179.878,0\H,22,1.08073,20,119.695,19,179.994,0\\\@

 Total job time:  604.96s(wall), 2304.11s(cpu) 
 Mon Dec  3 11:46:26 2018

        *************************************************************
        *                                                           *
        *  Thank you very much for using Q-Chem.  Have a nice day.  *
        *                                                           *
        *************************************************************


0 sent ACK to 0 
now end server 0 ... 
