mFile = /cm/shared/apps/q-chem/intel/QCHEM_5.1.0_Trunk/bin/mpi/machines
Process 0 of 1 is on ctcp043 - thread support 0
initial socket setup ...start
initial socket setup ...done 
now start server 0 ... 
Q-Chem Developer Version!
                  Welcome to Q-Chem
     A Quantum Leap Into The Future Of Chemistry


 Q-Chem 5.1, Q-Chem, Inc., Pleasanton, CA (2018)

 Yihan Shao,  Zhengting Gan,  E. Epifanovsky,  A. T. B. Gilbert,  M. Wormit,  
 J. Kussmann,  A. W. Lange,  A. Behn,  Jia Deng,  Xintian Feng,  D. Ghosh,  
 M. Goldey,  P. R. Horn,  L. D. Jacobson,  I. Kaliman,  T. Kus,  A. Landau,  
 Jie Liu,  E. I. Proynov,  R. M. Richard,  R. P. Steele,  E. J. Sundstrom,  
 H. L. Woodcock III,  P. M. Zimmerman,  D. Zuev,  B. Albrecht,  E. Alguire,  
 S. A. Baeppler,  D. Barton,  Z. Benda,  Y. A. Bernard,  E. J. Berquist,  
 K. B. Bravaya,  H. Burton,  D. Casanova,  Chun-Min Chang,  Yunqing Chen,  
 A. Chien,  K. D. Closser,  M. P. Coons,  S. Coriani,  S. Dasgupta,  
 A. L. Dempwolff,  M. Diedenhofen,  Hainam Do,  R. G. Edgar,  Po-Tung Fang,  
 S. Faraji,  S. Fatehi,  Qingguo Feng,  K. D. Fenk,  J. Fosso-Tande,  
 Qinghui Ge,  A. Ghysels,  G. Gidofalvi,  J. Gomes,  J. Gonthier,  A. Gunina,  
 D. Hait,  M. W. D. Hanson-Heine,  P. H. P. Harbach,  A. W. Hauser,  
 J. E. Herr,  E. G. Hohenstein,  Z. C. Holden,  Kerwin Hui,  B. C. Huynh,  
 T.-C. Jagau,  Hyunjun Ji,  B. Kaduk,  K. Khistyaev,  Jaehoon Kim,  
 P. Klunzinger,  K. Koh,  D. Kosenkov,  L. Koulias,  T. Kowalczyk,  
 C. M. Krauter,  A. Kunitsa,  Ka Un Lao,  A. Laurent,  K. V. Lawler,  
 Joonho Lee,  D. Lefrancois,  S. Lehtola,  D. S. Levine,  Yi-Pei Li,  
 You-Sheng Lin,  Fenglai Liu,  E. Livshits,  A. Luenser,  P. Manohar,  
 E. Mansoor,  S. F. Manzer,  Shan-Ping Mao,  Yuezhi Mao,  N. Mardirossian,  
 A. V. Marenich,  T. Markovich,  L. A. Martinez-Martinez,  S. A. Maurer,  
 N. J. Mayhall,  S. C. McKenzie,  J.-M. Mewes,  A. F. Morrison,  
 J. W. Mullinax,  K. Nanda,  T. S. Nguyen-Beck,  R. Olivares-Amaya,  
 J. A. Parkhill,  T. M. Perrine,  F. Plasser,  P. Pokhilko,  S. Prager,  
 A. Prociuk,  E. Ramos,  D. R. Rehn,  F. Rob,  M. Schneider,  N. Sergueev,  
 S. M. Sharada,  S. Sharma,  D. W. Small,  T. Stauch,  T. Stein,  
 Yu-Chuan Su,  A. J. W. Thom,  A. Tkatchenko,  T. Tsuchimochi,  N. M. Tubman,  
 L. Vogt,  M. L. Vidal,  O. Vydrov,  M. A. Watson,  J. Wenzel,  
 M. de Wergifosse,  T. A. Wesolowski,  A. White,  J. Witte,  A. Yamada,  
 Jun Yang,  K. Yao,  S. Yeganeh,  S. R. Yost,  Zhi-Qiang You,  A. Zech,  
 Igor Ying Zhang,  Xing Zhang,  Yan Zhao,  Ying Zhu,  B. R. Brooks,  
 G. K. L. Chan,  C. J. Cramer,  M. S. Gordon,  W. J. Hehre,  A. Klamt,  
 M. W. Schmidt,  C. D. Sherrill,  D. G. Truhlar,  A. Aspuru-Guzik,  R. Baer,  
 A. T. Bell,  N. A. Besley,  Jeng-Da Chai,  A. E. DePrince, III,  
 R. A. DiStasio Jr.,  A. Dreuw,  B. D. Dunietz,  T. R. Furlani,  
 Chao-Ping Hsu,  Yousung Jung,  Jing Kong,  D. S. Lambrecht,  WanZhen Liang,  
 C. Ochsenfeld,  V. A. Rassolov,  L. V. Slipchenko,  J. E. Subotnik,  
 T. Van Voorhis,  J. M. Herbert,  A. I. Krylov,  P. M. W. Gill,  M. Head-Gordon

 Contributors to earlier versions of Q-Chem not listed above: 
 R. D. Adamson,  B. Austin,  J. Baker,  G. J. O. Beran,  K. Brandhorst,  
 S. T. Brown,  E. F. C. Byrd,  A. K. Chakraborty,  C.-L. Cheng,  
 Siu Hung Chien,  D. M. Chipman,  D. L. Crittenden,  H. Dachsel,  
 R. J. Doerksen,  A. D. Dutoi,  L. Fusti-Molnar,  W. A. Goddard III,  
 A. Golubeva-Zadorozhnaya,  S. R. Gwaltney,  G. Hawkins,  A. Heyden,  
 S. Hirata,  G. Kedziora,  F. J. Keil,  C. Kelley,  Jihan Kim,  R. A. King,  
 R. Z. Khaliullin,  P. P. Korambath,  W. Kurlancheek,  A. M. Lee,  M. S. Lee,  
 S. V. Levchenko,  Ching Yeh Lin,  D. Liotard,  R. C. Lochan,  I. Lotan,  
 P. E. Maslen,  N. Nair,  D. P. O'Neill,  D. Neuhauser,  E. Neuscamman,  
 C. M. Oana,  R. Olson,  B. Peters,  R. Peverati,  P. A. Pieniazek,  
 Y. M. Rhee,  J. Ritchie,  M. A. Rohrdanz,  E. Rosta,  N. J. Russ,  
 H. F. Schaefer III,  N. E. Schultz,  N. Shenvi,  A. C. Simmonett,  A. Sodt,  
 D. Stuck,  K. S. Thanthiriwatte,  V. Vanovschi,  Tao Wang,  A. Warshel,  
 C. F. Williams,  Q. Wu,  X. Xu,  W. Zhang

 Please cite Q-Chem as follows:
 Y. Shao et al., Mol. Phys. 113, 184-215 (2015)
 DOI: 10.1080/00268976.2014.952696

 Q-Chem 5.1.1 for Intel X86 EM64T Linux

 Parts of Q-Chem use Armadillo 8.300.2 (Tropical Shenanigans).
 http://arma.sourceforge.net/

 Q-Chem begins on Wed Oct 31 10:55:35 2018  

Host: ctcp043
0

     Scratch files written to /scratch/mewes/139019/plot_triplets.out.plots//
 Parallel job on  1  processors
Input Ideriv = 1
Curr. Ideriv = -1
Max.  Ideriv = 1

Checking the input file for inconsistencies... 	...done.

--------------------------------------------------------------
User input:
--------------------------------------------------------------
$rem
threads 8
jobtype	sp
method PBEh-3c
basis def2-mSVP
mem_static	1024
mem_total	14000
sym_ignore	true
cis_n_roots             3
cis_singlets            false
cis_triplets		true
rpa                     false
state_analysis 		true
make_cube_files		true
cis_moments		true
sym_ignore              true
$end

$plots
att. det. elec. hole and diff. dens for utleopt_tol.out
158 -9.79 10.01
84 -6.59 5.87
169 -11.94 9.03
0 0 0 2
1 2
$end


$molecule
0 1
C        -0.0092362327   -0.3555775946    0.0322759517
C        -0.0036577663   -0.3694058964    1.4397631282
H         0.9425467478   -0.4014262591    1.9683587677
C        -1.1874085828   -0.3399361797    2.1398319358
C        -1.4846428139   -0.3443261013    3.5743229770
C        -0.7436021556   -0.3780957242    4.7261238901
H         0.3385935133   -0.4108246281    4.7096976811
C        -1.4252974036   -0.3701443374    5.9671058089
H        -0.8390595865   -0.3970465417    6.8763631467
C        -2.7975943886   -0.3302808435    6.0602146384
H        -3.2721473056   -0.3259159222    7.0338370918
C        -2.8884689556   -0.3038979957    3.6830588522
C        -3.5873029948   -0.2954237022    4.8854915183
C        -3.5037690548   -0.2738528725    2.4168851412
C        -4.8720259786   -0.2321314587    2.3457229305
H        -5.3955495152   -0.2064721727    1.3977705920
C        -5.6083286979   -0.2224350762    3.5533899228
H        -6.6889244359   -0.1897060180    3.5001504639
C        -5.0001736252   -0.2529452299    4.7874334635
H        -5.6057809602   -0.2440860704    5.6854336233
C        -2.4226797909   -0.2969104113    1.4360265568
C        -2.4477114358   -0.2866075155    0.0600243758
H        -3.3946013216   -0.2597376715   -0.4685434821
C        -1.2480259094   -0.3124536323   -0.6707334480
B         1.3341287919   -0.3912390740   -0.7293116261
B        -1.2989681096   -0.3014962835   -2.2206304643
C         1.3222203180   -0.3453362647   -2.2670261714
C         2.5230314940   -0.3710881705   -2.9695019644
H         3.4593810805   -0.4250683723   -2.4259568953
C         2.5276520795   -0.3325431696   -4.3505586840
C         3.5731784567   -0.3468640484   -5.3190159694
C         4.9601140716   -0.4011752447   -5.2773080520
H         5.4983504714   -0.4440340658   -4.3396633544
C         5.6602827030   -0.4027739614   -6.4919732305
H         6.7413493503   -0.4456218698   -6.4655081544
C         5.0285188333   -0.3536848437   -7.7247075035
H         5.6203395096   -0.3588248082   -8.6315465106
C         2.9382356981   -0.2968585925   -6.5855907933
C         3.6165752309   -0.2989856719   -7.8035529085
C         1.5216418406   -0.2509137142   -6.4729124672
C         0.7584425095   -0.2025896166   -7.6374428822
H        -0.3227395557   -0.1657603868   -7.6055933092
C         1.4268457472   -0.2027786168   -8.8665845055
H         0.8410937784   -0.1652982880   -9.7760646823
C         2.8101677438   -0.2495245158   -8.9677685566
H         3.2745703959   -0.2486476956   -9.9460687420
C         1.2302017925   -0.2734498010   -5.0882952989
C         0.0303727424   -0.2615411094   -4.3853015185
H        -0.9098396478   -0.2295104553   -4.9253307309
C         0.0286256030   -0.2979642182   -3.0018547292
C         2.7039210260   -0.4997188831    0.0352213963
C         3.5059282346    0.6252460490    0.2488006875
C         4.7224373392    0.5164305472    0.9219480161
H         5.3131241213    1.4119603507    1.0726151398
C         5.1562099637   -0.7183476306    1.3862988525
O         6.3168530872   -0.9222178315    2.0450716265
C         4.3644786425   -1.8436436816    1.1744053280
H         4.7099209190   -2.8058550071    1.5365821106
C         3.1526229303   -1.7439380862    0.5107557286
C         7.1485938210    0.1837408722    2.2913242006
H         8.0171012533   -0.1931984592    2.8272006370
H         7.4897476375    0.6593730275    1.3665419738
H         6.6586121133    0.9406171247    2.9116757478
C         3.0477837673    1.9934814522   -0.1887444809
H         2.4813776828    1.9244991293   -1.1210836718
H         3.9169107326    2.6175313288   -0.4124860341
C         2.3600622435   -3.0036613146    0.2630237789
H         1.2886003132   -2.7893808070    0.2767464636
H         2.5344577618   -3.7090233890    1.0792820445
C         2.1880050243    2.6856924015    0.8668725993
H         1.2797337394    2.1186596104    1.0717089434
H         1.8884010400    3.6805461354    0.5350601995
H         2.7308290243    2.7932172729    1.8066496981
C         2.7209863423   -3.6733252313   -1.0619838996
H         2.5089057126   -3.0201066398   -1.9086547945
H         3.7808324039   -3.9279704656   -1.0978314058
H         2.1500431738   -4.5921351385   -1.2026368521
C        -2.6736891276   -0.3142500763   -2.9956254373
C        -3.1975239441   -1.5128726379   -3.4903339614
C        -4.4073255864   -1.5369018924   -4.1834874824
H        -4.7757479743   -2.4895096734   -4.5454896822
C        -5.1183982178   -0.3645586850   -4.3935288265
O        -6.2963174971   -0.2901639706   -5.0492531725
C        -4.6073659308    0.8341562720   -3.9050946265
H        -5.1639572637    1.7499981432   -4.0722876107
C        -3.4050178704    0.8660453057   -3.2170584737
C        -6.8611400595   -1.4769177280   -5.5497052602
H        -7.7964297369   -1.1978791779   -6.0302883722
H        -7.0792775368   -2.1984627795   -4.7562392562
H        -6.2195326666   -1.9606521044   -6.2927548519
C        -2.8743746796    2.2048775957   -2.7742888466
H        -3.7072309823    2.8484368593   -2.4798735552
H        -2.2503584913    2.0942589646   -1.8839941723
C        -2.5133191785   -2.8327746673   -3.2364214908
H        -1.4388043031   -2.6874137275   -3.1030440176
H        -2.6220404788   -3.4767658715   -4.1133783686
C        -2.0711962389    2.8946017785   -3.8752027077
H        -1.2015139572    2.3015431172   -4.1590219674
H        -2.6783740692    3.0410218961   -4.7693051475
H        -1.7141290240    3.8714692487   -3.5470633030
C        -3.0810092375   -3.5462822942   -2.0113083382
H        -2.9520499537   -2.9432875135   -1.1120612122
H        -4.1477480202   -3.7413772882   -2.1289367850
H        -2.5812572113   -4.5016918121   -1.8468979802
$end
--------------------------------------------------------------
 Adding empirical dispersion correction 
 ----------------------------------------------------------------
 Doing -D3(BJ) with
 s6 =   1.00000
 s8 =   0.00000
 a1 =   0.48600
 a2 =   4.50000
 -D3 energy including 3body term =     -0.0954808129 hartrees
 ----------------------------------------------------------------
 Adding gCP correction 
 ----------------------------------------------------------------
 gCP energy =      0.1521587815 hartrees
 ----------------------------------------------------------------
             Standard Nuclear Orientation (Angstroms)
    I     Atom           X                Y                Z
 ----------------------------------------------------------------
    1      C      -0.0092362327    -0.3555775946     0.0322759517
    2      C      -0.0036577663    -0.3694058964     1.4397631282
    3      H       0.9425467478    -0.4014262591     1.9683587677
    4      C      -1.1874085828    -0.3399361797     2.1398319358
    5      C      -1.4846428139    -0.3443261013     3.5743229770
    6      C      -0.7436021556    -0.3780957242     4.7261238901
    7      H       0.3385935133    -0.4108246281     4.7096976811
    8      C      -1.4252974036    -0.3701443374     5.9671058089
    9      H      -0.8390595865    -0.3970465417     6.8763631467
   10      C      -2.7975943886    -0.3302808435     6.0602146384
   11      H      -3.2721473056    -0.3259159222     7.0338370918
   12      C      -2.8884689556    -0.3038979957     3.6830588522
   13      C      -3.5873029948    -0.2954237022     4.8854915183
   14      C      -3.5037690548    -0.2738528725     2.4168851412
   15      C      -4.8720259786    -0.2321314587     2.3457229305
   16      H      -5.3955495152    -0.2064721727     1.3977705920
   17      C      -5.6083286979    -0.2224350762     3.5533899228
   18      H      -6.6889244359    -0.1897060180     3.5001504639
   19      C      -5.0001736252    -0.2529452299     4.7874334635
   20      H      -5.6057809602    -0.2440860704     5.6854336233
   21      C      -2.4226797909    -0.2969104113     1.4360265568
   22      C      -2.4477114358    -0.2866075155     0.0600243758
   23      H      -3.3946013216    -0.2597376715    -0.4685434821
   24      C      -1.2480259094    -0.3124536323    -0.6707334480
   25      B       1.3341287919    -0.3912390740    -0.7293116261
   26      B      -1.2989681096    -0.3014962835    -2.2206304643
   27      C       1.3222203180    -0.3453362647    -2.2670261714
   28      C       2.5230314940    -0.3710881705    -2.9695019644
   29      H       3.4593810805    -0.4250683723    -2.4259568953
   30      C       2.5276520795    -0.3325431696    -4.3505586840
   31      C       3.5731784567    -0.3468640484    -5.3190159694
   32      C       4.9601140716    -0.4011752447    -5.2773080520
   33      H       5.4983504714    -0.4440340658    -4.3396633544
   34      C       5.6602827030    -0.4027739614    -6.4919732305
   35      H       6.7413493503    -0.4456218698    -6.4655081544
   36      C       5.0285188333    -0.3536848437    -7.7247075035
   37      H       5.6203395096    -0.3588248082    -8.6315465106
   38      C       2.9382356981    -0.2968585925    -6.5855907933
   39      C       3.6165752309    -0.2989856719    -7.8035529085
   40      C       1.5216418406    -0.2509137142    -6.4729124672
   41      C       0.7584425095    -0.2025896166    -7.6374428822
   42      H      -0.3227395557    -0.1657603868    -7.6055933092
   43      C       1.4268457472    -0.2027786168    -8.8665845055
   44      H       0.8410937784    -0.1652982880    -9.7760646823
   45      C       2.8101677438    -0.2495245158    -8.9677685566
   46      H       3.2745703959    -0.2486476956    -9.9460687420
   47      C       1.2302017925    -0.2734498010    -5.0882952989
   48      C       0.0303727424    -0.2615411094    -4.3853015185
   49      H      -0.9098396478    -0.2295104553    -4.9253307309
   50      C       0.0286256030    -0.2979642182    -3.0018547292
   51      C       2.7039210260    -0.4997188831     0.0352213963
   52      C       3.5059282346     0.6252460490     0.2488006875
   53      C       4.7224373392     0.5164305472     0.9219480161
   54      H       5.3131241213     1.4119603507     1.0726151398
   55      C       5.1562099637    -0.7183476306     1.3862988525
   56      O       6.3168530872    -0.9222178315     2.0450716265
   57      C       4.3644786425    -1.8436436816     1.1744053280
   58      H       4.7099209190    -2.8058550071     1.5365821106
   59      C       3.1526229303    -1.7439380862     0.5107557286
   60      C       7.1485938210     0.1837408722     2.2913242006
   61      H       8.0171012533    -0.1931984592     2.8272006370
   62      H       7.4897476375     0.6593730275     1.3665419738
   63      H       6.6586121133     0.9406171247     2.9116757478
   64      C       3.0477837673     1.9934814522    -0.1887444809
   65      H       2.4813776828     1.9244991293    -1.1210836718
   66      H       3.9169107326     2.6175313288    -0.4124860341
   67      C       2.3600622435    -3.0036613146     0.2630237789
   68      H       1.2886003132    -2.7893808070     0.2767464636
   69      H       2.5344577618    -3.7090233890     1.0792820445
   70      C       2.1880050243     2.6856924015     0.8668725993
   71      H       1.2797337394     2.1186596104     1.0717089434
   72      H       1.8884010400     3.6805461354     0.5350601995
   73      H       2.7308290243     2.7932172729     1.8066496981
   74      C       2.7209863423    -3.6733252313    -1.0619838996
   75      H       2.5089057126    -3.0201066398    -1.9086547945
   76      H       3.7808324039    -3.9279704656    -1.0978314058
   77      H       2.1500431738    -4.5921351385    -1.2026368521
   78      C      -2.6736891276    -0.3142500763    -2.9956254373
   79      C      -3.1975239441    -1.5128726379    -3.4903339614
   80      C      -4.4073255864    -1.5369018924    -4.1834874824
   81      H      -4.7757479743    -2.4895096734    -4.5454896822
   82      C      -5.1183982178    -0.3645586850    -4.3935288265
   83      O      -6.2963174971    -0.2901639706    -5.0492531725
   84      C      -4.6073659308     0.8341562720    -3.9050946265
   85      H      -5.1639572637     1.7499981432    -4.0722876107
   86      C      -3.4050178704     0.8660453057    -3.2170584737
   87      C      -6.8611400595    -1.4769177280    -5.5497052602
   88      H      -7.7964297369    -1.1978791779    -6.0302883722
   89      H      -7.0792775368    -2.1984627795    -4.7562392562
   90      H      -6.2195326666    -1.9606521044    -6.2927548519
   91      C      -2.8743746796     2.2048775957    -2.7742888466
   92      H      -3.7072309823     2.8484368593    -2.4798735552
   93      H      -2.2503584913     2.0942589646    -1.8839941723
   94      C      -2.5133191785    -2.8327746673    -3.2364214908
   95      H      -1.4388043031    -2.6874137275    -3.1030440176
   96      H      -2.6220404788    -3.4767658715    -4.1133783686
   97      C      -2.0711962389     2.8946017785    -3.8752027077
   98      H      -1.2015139572     2.3015431172    -4.1590219674
   99      H      -2.6783740692     3.0410218961    -4.7693051475
  100      H      -1.7141290240     3.8714692487    -3.5470633030
  101      C      -3.0810092375    -3.5462822942    -2.0113083382
  102      H      -2.9520499537    -2.9432875135    -1.1120612122
  103      H      -4.1477480202    -3.7413772882    -2.1289367850
  104      H      -2.5812572113    -4.5016918121    -1.8468979802
 ----------------------------------------------------------------
 Nuclear Repulsion Energy =  7595.9301661786 hartrees
 There are      198 alpha and      198 beta electrons
 Requested basis set is def2-mSVP
 There are 498 shells and 962 basis functions

 Total QAlloc Memory Limit  14000 MB
 Mega-Array Size      1001 MB
 MEM_STATIC part      1024 MB
 A cutoff of  1.0D-11 yielded  44682 shell pairs
 There are    173906 function pairs (    191399 Cartesian)
 
 -------------------------------------------------------
 OpenMP Integral Computing Module                       
 Release: version 1.0, May 2013, Q-Chem Inc. Pittsburgh 
 -------------------------------------------------------
 Integral Job Info:
 Integral job number is                      11
 Integral operator is                         1
 short-range coefficients                     0
 long-range coefficients              100000000
 Omega coefficients                           0
 if combine SR and LR in K                    0
 Integral screening is                        0
 Integral computing path is                   2
 max size of driver memory is            800000
 size of driver memory is                593474
 size of scratch memory is              1809772
 max col of scratch BK array               1296
 max len of scratch array in speh3          155
 max len of scratch index in speh4           18
 max int batch size is                      520
 min int batch size is                       52
 fixed nKL is                                52
 max L of basis functions is                  2
 order of int derivative is                   0
 number of shells is                        498
 number of basis is                        1020
 number of cartesian basis is              1020
 number of contracted shell pairs         44682
 number of primitive shell pairs          92752
 maxK2 (contraction) of shell pair           25
 max number of K2 of shell pair               1
 max number of CS2 of shell pair          10989
 max number of PS2 of shell pair          16430
 mem total for path MDJ                  952140
 -------------------------------------------------------
 Smallest overlap matrix eigenvalue = 1.97E-04

 Scale SEOQF with 1.000000e-02/1.000000e-01/1.000000e-02

 Standard Electronic Orientation quadrupole field applied
 Nucleus-field energy     =    -0.0000000006 hartrees
 Guess from superposition of atomic densities
 Warning:  Energy on first SCF cycle will be non-variational
 SAD guess density has 396.000000 electrons

 -----------------------------------------------------------------------
  General SCF calculation program by
  Eric Jon Sundstrom, Paul Horn, Yuezhi Mao, Dmitri Zuev, Alec White,
  David Stuck, Shaama M.S., Shane Yost, Joonho Lee, David Small,
  Daniel Levine, Susi Lehtola, Hugh Burton, Evgeny Epifanovsky
 -----------------------------------------------------------------------
 Exchange:     0.4200 Hartree-Fock + 0.5800 PBEh-3c
 Correlation:  1.0000 PBEh-3c
 Using SG-1 standard quadrature grid
 Dispersion:   Grimme D3
 using 8 threads for integral computing
 -------------------------------------------------------
 OpenMP Integral computing Module                
 Release: version 2.0, May 2017, Q-Chem Inc. Pleasanton 
 -------------------------------------------------------
 -------------------------------------------------------
 OpenMP BLAS3 based DFT computing Module                
 Release: version 1.0, May 2013, Q-Chem Inc. Pittsburgh 
 -------------------------------------------------------
 A restricted SCF calculation will be
 performed using DIIS
 SCF converges when DIIS error is below 1.0e-08
 ---------------------------------------
  Cycle       Energy         DIIS error
 ---------------------------------------
    1   -2299.2756506145      2.72e-02  
    2   -2280.2336607380      1.86e-03  
    3   -2280.3724742328      1.59e-03  
    4   -2280.6512629717      6.13e-04  
    5   -2280.6972797381      2.10e-04  
    6   -2280.7024573834      7.10e-05  
    7   -2280.7030279836      2.09e-05  
    8   -2280.7030811529      6.16e-06  
    9   -2280.7030860323      1.77e-06  
   10   -2280.7030865108      8.87e-07  
   11   -2280.7030866392      2.55e-07  
   12   -2280.7030866520      1.27e-07  
   13   -2280.7030866545      5.40e-08  
   14   -2280.7030866550      1.84e-08  
   15   -2280.7030866550      6.44e-09  Convergence criterion met
 ---------------------------------------
 SCF time:   CPU 5865.32s  wall 734.00s 
 SCF   energy in the final basis set =    -2280.7030866550
 Total energy in the final basis set =    -2280.7030866550
 
 Direct TDDFT/TDA calculation will be performed
 Exchange:     0.4200 Hartree-Fock + 0.5800 PBEh-3c
 Correlation:  1.0000 PBEh-3c
 Using SG-1 standard quadrature grid
 Dispersion:   Grimme D3
 Triplet excitation energies requested
 CIS energy converged when residual is below 10e- 6
 ---------------------------------------------------
 Iter    Rts Conv    Rts Left    Ttl Dev     Max Dev
 ---------------------------------------------------
   1         0           3      0.000160    0.000078
   2         0           3      0.000060    0.000026
   3         0           3      0.000083    0.000038
   4         0           3      0.000083    0.000043
