mFile = /cm/shared/apps/q-chem/intel/QCHEM_5.0.1_Trunk/bin/mpi/machines
Process 0 of 1 is on ctcp044 - thread support 0
initial socket setup ...start
initial socket setup ...done 
now start server 0 ... 
ctcp044.cm.cluster 10.141.0
Q-Chem Developer Version! Running on 10.141.0.*
                  Welcome to Q-Chem
     A Quantum Leap Into The Future Of Chemistry


 Q-Chem 5.0, Q-Chem, Inc., Pleasanton, CA (2017)

 Yihan Shao,  Zhengting Gan,  E. Epifanovsky,  A. T. B. Gilbert,  M. Wormit,  
 J. Kussmann,  A. W. Lange,  A. Behn,  Jia Deng,  Xintian Feng,  D. Ghosh,  
 M. Goldey,  P. R. Horn,  L. D. Jacobson,  I. Kaliman,  T. Kus,  A. Landau,  
 Jie Liu,  E. I. Proynov,  R. M. Richard,  R. P. Steele,  E. J. Sundstrom,  
 H. L. Woodcock III,  P. M. Zimmerman,  D. Zuev,  B. Albrecht,  E. Alguire,  
 S. A. Baeppler,  Z. Benda,  Y. A. Bernard,  E. J. Berquist,  K. B. Bravaya,  
 D. Casanova,  Chun-Min Chang,  Yunqing Chen,  A. Chien,  K. D. Closser,  
 M. P. Coons,  S. Dasgupta,  M. Diedenhofen,  Hainam Do,  R. G. Edgar,  
 Po-Tung Fang,  S. Fatehi,  Qingguo Feng,  Qinghui Ge,  A. Ghysels,  
 J. Gomes,  J. Gonthier,  A. Gunina,  M. W. D. Hanson-Heine,  
 P. H. P. Harbach,  A. W. Hauser,  J. E. Herr,  E. G. Hohenstein,  
 Z. C. Holden,  Kerwin Hui,  T.-C. Jagau,  Hyunjun Ji,  B. Kaduk,  
 K. Khistyaev,  Jaehoon Kim,  P. Klunzinger,  K. Koh,  D. Kosenkov,  
 T. Kowalczyk,  C. M. Krauter,  A. Kunitsa,  Ka Un Lao,  A. Laurent,  
 K. V. Lawler,  Joonho Lee,  D. Lefrancois,  S. Lehtola,  D. S. Levine,  
 Yi-Pei Li,  You-Sheng Lin,  Fenglai Liu,  E. Livshits,  A. Luenser,  
 P. Manohar,  E. Mansoor,  S. F. Manzer,  Shan-Ping Mao,  Yuezhi Mao,  
 N. Mardirossian,  A. V. Marenich,  L. A. Martinez-Martinez,  S. A. Maurer,  
 N. J. Mayhall,  S. C. McKenzie,  J.-M. Mewes,  A. F. Morrison,  K. Nanda,  
 T. S. Nguyen-Beck,  R. Olivares-Amaya,  J. A. Parkhill,  T. M. Perrine,  
 F. Plasser,  S. Prager,  A. Prociuk,  D. R. Rehn,  F. Rob,  M. Schneider,  
 N. Sergueev,  S. M. Sharada,  S. Sharma,  D. W. Small,  T. Stauch,  
 T. Stein,  Yu-Chuan Su,  A. J. W. Thom,  T. Tsuchimochi,  L. Vogt,  
 O. Vydrov,  M. A. Watson,  J. Wenzel,  M. de Wergifosse,  T. A. Wesolowski,  
 A. White,  J. Witte,  A. Yamada,  Jun Yang,  K. Yao,  S. Yeganeh,  
 S. R. Yost,  Zhi-Qiang You,  A. Zech,  Igor Ying Zhang,  Xing Zhang,  
 Yan Zhao,  Ying Zhu,  B. R. Brooks,  G. K. L. Chan,  C. J. Cramer,  
 M. S. Gordon,  W. J. Hehre,  A. Klamt,  M. W. Schmidt,  C. D. Sherrill,  
 D. G. Truhlar,  A. Aspuru-Guzik,  R. Baer,  A. T. Bell,  N. A. Besley,  
 Jeng-Da Chai,  A. Dreuw,  B. D. Dunietz,  T. R. Furlani,  Chao-Ping Hsu,  
 Yousung Jung,  Jing Kong,  D. S. Lambrecht,  WanZhen Liang,  C. Ochsenfeld,  
 V. A. Rassolov,  L. V. Slipchenko,  J. E. Subotnik,  T. Van Voorhis,  
 J. M. Herbert,  A. I. Krylov,  P. M. W. Gill,  M. Head-Gordon

 Contributors to earlier versions of Q-Chem not listed above: 
 R. D. Adamson,  B. Austin,  J. Baker,  G. J. O. Beran,  K. Brandhorst,  
 S. T. Brown,  E. F. C. Byrd,  A. K. Chakraborty,  C.-L. Cheng,  
 Siu Hung Chien,  D. M. Chipman,  D. L. Crittenden,  H. Dachsel,  
 R. A. DiStasio Jr.,  R. J. Doerksen,  A. D. Dutoi,  L. Fusti-Molnar,  
 W. A. Goddard III,  A. Golubeva-Zadorozhnaya,  S. R. Gwaltney,  G. Hawkins,  
 A. Heyden,  S. Hirata,  G. Kedziora,  F. J. Keil,  C. Kelley,  Jihan Kim,  
 R. A. King,  R. Z. Khaliullin,  P. P. Korambath,  W. Kurlancheek,  
 A. M. Lee,  M. S. Lee,  S. V. Levchenko,  Ching Yeh Lin,  D. Liotard,  
 R. C. Lochan,  I. Lotan,  P. E. Maslen,  N. Nair,  D. P. O'Neill,  
 D. Neuhauser,  E. Neuscamman,  C. M. Oana,  R. Olson,  B. Peters,  
 R. Peverati,  P. A. Pieniazek,  Y. M. Rhee,  J. Ritchie,  M. A. Rohrdanz,  
 E. Rosta,  N. J. Russ,  H. F. Schaefer III,  N. E. Schultz,  N. Shenvi,  
 A. C. Simmonett,  A. Sodt,  D. Stuck,  K. S. Thanthiriwatte,  V. Vanovschi,  
 Tao Wang,  A. Warshel,  C. F. Williams,  Q. Wu,  X. Xu,  W. Zhang

 Please cite Q-Chem as follows:
 Y. Shao et al., Mol. Phys. 113, 184-215 (2015)
 DOI: 10.1080/00268976.2014.952696

 Q-Chem 5.0.1 for Intel X86 EM64T Linux

 Parts of Q-Chem use Armadillo 5.200.1 (Boston Tea Smuggler).
 http://arma.sourceforge.net/

 Q-Chem begins on Tue Jan  8 12:21:11 2019  

Host: 32512

     Scratch files written to /scratch/mewes/142936/qchem312//
 Parallel job on  1  processors
The previous job contains 0 fragments, simply inherited here
Symmetry turned off for PCM/SM12/SMD calculation

Checking the input file for inconsistencies... 	...done.

--------------------------------------------------------------
User input:
--------------------------------------------------------------
$rem
threads 8
jobtype sp 
method PBEh-3c
basis def2-mSVP
mem_static      1024
mem_total       8000
sym_ignore      true
unrestricted true
scf_algorithm	diis
scf_max_cycles	250
solvent_method  pcm
$end

$pcm
theory  iefpcm
$end

$solvent
dielectric      1.0001
$end

$molecule
read uincoords_2.mol
$end

--------------------------------------------------------------
 Adding empirical dispersion correction 
 ----------------------------------------------------------------
 Doing -D3(BJ) with
 s6 =   1.00000
 s8 =   0.00000
 a1 =   0.48600
 a2 =   4.50000
 -D3 energy including 3body term =     -0.0782506691 hartrees
 ----------------------------------------------------------------
 Adding gCP correction 
 ----------------------------------------------------------------
 gCP energy =      0.1092410455 hartrees
 ----------------------------------------------------------------
             Standard Nuclear Orientation (Angstroms)
    I     Atom           X                Y                Z
 ----------------------------------------------------------------
    1      N       0.0000000000     0.0000000000     0.0000000000
    2      C       0.0000000000     0.0000000000     1.4015360000
    3      C       1.1817868178     0.0000000000     2.1440034526
    4      H       2.1459027849    -0.0503075207     1.6599224311
    5      C       1.1443704016     0.0834811648     3.5248142714
    6      H       2.0774085811     0.1017120580     4.0730188882
    7      C      -0.0664341907     0.1652585881     4.1876955538
    8      H      -0.1038628615     0.2515714483     5.2652504528
    9      C      -1.2392654718     0.1108458875     3.4516375453
   10      H      -2.1807792047     0.1397790792     3.9819470753
   11      C      -1.2331878360    -0.0002027383     2.0679749128
   12      C      -1.1012398732     0.5447497663    -0.6752043572
   13      C      -0.9570829240     1.1325360688    -1.9310335714
   14      H       0.0094676666     1.1616247086    -2.4139870146
   15      C      -2.0500056128     1.6982189724    -2.5636283967
   16      H      -1.9222622803     2.1507054000    -3.5382264127
   17      C      -3.2886350684     1.7005587533    -1.9470528036
   18      H      -4.1446902512     2.1508763190    -2.4309535929
   19      C      -3.4264849088     1.1098989160    -0.7005624792
   20      H      -4.4018172384     1.1095200321    -0.2340224522
   21      C      -2.3550774475     0.5103203200    -0.0538634859
   22      C       1.2300817332    -0.0935667463    -0.6960361323
   23      C       2.1718750311     0.9078792139    -0.5840823161
   24      H       1.9235035941     1.7517974679     0.0471349098
   25      C       1.4994538248    -1.1877957638    -1.5018184064
   26      H       0.7732265831    -1.9839057074    -1.5992802925
   27      C       2.7074037259    -1.2377959492    -2.1664132367
   28      H       2.9223909563    -2.0912303978    -2.7978387774
   29      C       3.4176291885     0.8508691530    -1.2125770382
   30      C       3.6829933540    -0.2454254330    -2.0346181366
   31      C       4.9800934114    -0.4613204770    -2.7571933433
   32      H       4.9997337149    -1.4875946620    -3.1267874780
   33      H       5.0468076132     0.1768332001    -3.6429688014
   34      C      -2.4863890264    -0.2504995235     1.2529865659
   35      C       6.2012883438    -0.2271161953    -1.8733857922
   36      H       7.0418222827    -0.8106847525    -2.2514326557
   37      H       6.0064751076    -0.6047803385    -0.8670891101
   38      C       6.5904508059     1.2181528580    -1.8540021376
   39      C       7.8690242528     1.5404938318    -2.2919877483
   40      H       8.5422137326     0.7441500569    -2.5814974196
   41      C       8.3153083371     2.8504476432    -2.3702661625
   42      C       7.4370819530     3.8736079786    -2.0142412036
   43      C       6.1560812291     3.5563155791    -1.5882301815
   44      H       5.5102891214     4.3760943613    -1.3120324091
   45      C       5.7033948250     2.2410586773    -1.4908022786
   46      C       9.6439321878     3.1246872484    -2.8068383488
   47      N      10.7217552758     3.3216379068    -3.1592659885
   48      C       7.8369262191     5.2416140300    -2.0680016322
   49      N       8.1422153390     6.3507199220    -2.1010873422
   50      C      -3.7545461599     0.1208237707     2.0161709586
   51      H      -4.6456912854    -0.1036270078     1.4306873933
   52      H      -3.8441727753    -0.4658182574     2.9301835587
   53      H      -3.7779009374     1.1776561415     2.2849720167
   54      C       4.3262115340     2.0310345863    -0.8404100203
   55      C       3.5065252808     3.3140962017    -0.9617500359
   56      C       2.8500328698     3.8038641491    -2.0479275247
   57      H       2.8522182128     3.2653129226    -2.9874230642
   58      C       2.1667866559     5.0314649609    -1.9382351899
   59      H       1.6508785632     5.4386152891    -2.7956655608
   60      C       2.1595526018     5.7458097514    -0.7131799280
   61      H       1.6306906122     6.6882643503    -0.6629965956
   62      C       2.7932487992     5.2669967441     0.3951141870
   63      H       2.7694656940     5.8131725722     1.3284401632
   64      C       3.4795584644     4.0125701826     0.3050203771
   65      C       4.1300023792     3.2582820396     1.2619826079
   66      C       4.3243955002     3.4836695024     2.6662261052
   67      H       4.0146851461     4.4171371960     3.1162481925
   68      C       4.8869124112     2.4970440205     3.4174602295
   69      H       5.0345002273     2.6457869135     4.4789706648
   70      C       5.2817433228     1.2640156858     2.8359504261
   71      H       5.7183121416     0.4954315544     3.4577192158
   72      C       5.1255455824     1.0383444598     1.4525034664
   73      H       5.4307431152     0.0872060830     1.0367102988
   74      C       4.5872969679     2.0154666789     0.6712112644
   75      C      -2.5433037602    -1.7596737739     0.9387953714
   76      H      -1.6575182862    -2.0942062959     0.3997241093
   77      H      -3.4171521933    -1.9913932980     0.3274688168
   78      H      -2.6064060302    -2.3354873706     1.8640378066
 ----------------------------------------------------------------
 Nuclear Repulsion Energy =  5564.3035227038 hartrees
 There are      159 alpha and      157 beta electrons
 Requested basis set is def2-mSVP
 There are 391 shells and 767 basis functions

 Total QAlloc Memory Limit   8000 MB
 Mega-Array Size      1001 MB
 MEM_STATIC part      1024 MB
 Discretize the solute cavity surface with Lebedev spheres
	Using 302 Lebedev grid points for each H atom
	Using 302 Lebedev grid points for other atoms
	Atomic van der Waals radii will be scaled by 1.20
 Remove points where switching function is < 1.0e-08
 Keep 8056 surface tesserae and discard 15500 interior tesserae
 Molecular Surface Area = 618.987 Angst**2
 A cutoff of  1.0D-08 yielded  27105 shell pairs
 There are    109595 function pairs (    120974 Cartesian)
 
 -------------------------------------------------------
 OpenMP Integral Computing Module                       
 Release: version 1.0, May 2013, Q-Chem Inc. Pittsburgh 
 -------------------------------------------------------
 Integral Job Info:
 Integral job number is                      11
 Integral operator is                         1
 short-range coefficients                     0
 long-range coefficients              100000000
 Omega coefficients                           0
 if combine SR and LR in K                    0
 Integral screening is                        0
 Integral computing path is                   2
 max size of driver memory is            800000
 size of driver memory is                593474
 size of scratch memory is              1809772
 max col of scratch BK array               1296
 max len of scratch array in speh3          155
 max len of scratch index in speh4           18
 max int batch size is                      520
 min int batch size is                       52
 fixed nKL is                                52
 max L of basis functions is                  2
 order of int derivative is                   0
 number of shells is                        391
 number of basis is                         814
 number of cartesian basis is               814
 number of contracted shell pairs         27105
 number of primitive shell pairs          56935
 maxK2 (contraction) of shell pair           25
 max number of K2 of shell pair               1
 max number of CS2 of shell pair           6473
 max number of PS2 of shell pair           9815
 mem total for path MDJ                  293896
 -------------------------------------------------------
 Smallest overlap matrix eigenvalue = 2.46E-04

 Scale SEOQF with 1.000000e-02/1.000000e-02/1.000000e-02

 Standard Electronic Orientation quadrupole field applied
 Nucleus-field energy     =     0.0000000249 hartrees
 Guess from superposition of atomic densities
 Warning:  Energy on first SCF cycle will be non-variational
 An unrestricted hybrid HF-DFT SCF calculation will be
 performed using Pulay DIIS extrapolation
 Polarizable Continuum solvation model will be applied
 Exchange:     0.4200 Hartree-Fock + 0.5800 PBEh-3c
 Correlation:  1.0000 PBEh-3c
 Using SG-1 standard quadrature grid
 Dispersion:   Grimme D3
 SCF converges when DIIS error is below 1.0E-05
 using 8 threads for integral computing
 -------------------------------------------------------
 OpenMP Integral computing Module                
 Release: version 1.0, May 2013, Q-Chem Inc. Pittsburgh 
 -------------------------------------------------------
 ---------------------------------------
  Cycle       Energy         DIIS Error
 ---------------------------------------
    1   -1871.2432545839      3.04E-02
 Using non-symmetric K matrix
 Warning: not using a symmetric Q
    2   -1854.8944686850      2.38E-03
    3   -1854.1446336550      3.77E-03
    4   -1855.1972076992      1.35E-03
    5   -1855.3620678506      7.26E-04
    6   -1855.4014155684      3.69E-04
    7   -1855.4128172871      1.76E-04
    8   -1855.4168374212      8.48E-05
    9   -1855.4187289848      2.04E-05
   10   -1855.4191774609      1.10E-05
   11   -1855.4193125063      5.22E-06 Convergence criterion met
 ---------------------------------------

************** Final PCM Free Energy Summary **************
 G_electrostatic  =      -0.00000196 hartree =      -0.00122799 kcal/mol
 G_cavitation     =       0.00000000 hartree =       0.00000000 kcal/mol
 G_dispersion     =       0.00000000 hartree =       0.00000000 kcal/mol
 G_repulsion      =       0.00000000 hartree =       0.00000000 kcal/mol
 --------------------------------------------------
 Non-electrostatic Free Energy =       0.00000000 hartree =       0.00000000 kcal/mol
 Total                         =      -0.00000196 hartree =      -0.00122799 kcal/mol
 --------------------------------------------------
 SCF Energy (H0 + V/2)                       =   -1855.41931251 
 Solute Internal Energy (H0)                 =   -1855.41931055 
 Total Free Energy (H0 + V/2 + non-elec)     =   -1855.41931251 hartree
                                             = -1164293.19127404 kcal/mol
***********************************************************

 <S^2> = 2.0761
 SCF time:  CPU 1835.51 s  wall 625.31 s
 SCF   energy in the final basis set = -1855.41931251
 Total energy in the final basis set = -1855.41931251
 
 --------------------------------------------------------------
 
                    Orbital Energies (a.u.)
 --------------------------------------------------------------
 
 Alpha MOs
 -- Occupied --
-14.681 -14.656 -14.653 -10.520 -10.519 -10.513 -10.505 -10.499
-10.499 -10.498 -10.497 -10.492 -10.491 -10.491 -10.489 -10.487
-10.486 -10.483 -10.481 -10.479 -10.479 -10.474 -10.473 -10.471
-10.469 -10.469 -10.469 -10.469 -10.467 -10.467 -10.467 -10.465
-10.465 -10.464 -10.463 -10.452 -10.451 -10.445 -10.445 -10.443
-10.443 -10.443 -10.441 -10.438 -10.437 -10.431 -10.426  -1.093
 -1.042  -1.030  -1.018  -1.003  -0.988  -0.968  -0.961  -0.959
 -0.939  -0.934  -0.912  -0.901  -0.890  -0.888  -0.863  -0.860
 -0.849  -0.847  -0.835  -0.824  -0.820  -0.809  -0.797  -0.773
 -0.772  -0.745  -0.741  -0.725  -0.715  -0.714  -0.703  -0.692
 -0.682  -0.678  -0.672  -0.672  -0.667  -0.645  -0.620  -0.613
 -0.613  -0.609  -0.600  -0.586  -0.581  -0.574  -0.567  -0.564
 -0.544  -0.540  -0.538  -0.534  -0.532  -0.525  -0.524  -0.522
 -0.517  -0.510  -0.508  -0.504  -0.503  -0.501  -0.497  -0.494
 -0.492  -0.490  -0.486  -0.485  -0.476  -0.471  -0.467  -0.455
 -0.447  -0.445  -0.443  -0.441  -0.438  -0.437  -0.435  -0.432
 -0.429  -0.428  -0.426  -0.424  -0.420  -0.419  -0.416  -0.414
 -0.411  -0.404  -0.400  -0.398  -0.397  -0.395  -0.392  -0.379
 -0.374  -0.373  -0.365  -0.345  -0.330  -0.323  -0.311  -0.307
 -0.304  -0.294  -0.288  -0.285  -0.282  -0.232  -0.158
 -- Virtual --
 -0.063  -0.033  -0.014  -0.012  -0.005   0.013   0.015   0.018
  0.020   0.033   0.048   0.050   0.071   0.083   0.111   0.112
  0.118   0.126   0.131   0.132   0.135   0.140   0.147   0.152
  0.155   0.157   0.160   0.169   0.178   0.179   0.182   0.185
  0.189   0.193   0.194   0.196   0.198   0.200   0.202   0.205
  0.212   0.216   0.219   0.223   0.224   0.227   0.229   0.232
  0.235   0.237   0.238   0.244   0.246   0.251   0.253   0.257
  0.258   0.258   0.259   0.265   0.274   0.274   0.279   0.282
  0.286   0.292   0.293   0.297   0.300   0.307   0.309   0.310
  0.317   0.324   0.332   0.334   0.340   0.350   0.357   0.363
  0.364   0.376   0.377   0.381   0.387   0.390   0.396   0.399
  0.411   0.416   0.429   0.431   0.433   0.447   0.455   0.457
  0.463   0.468   0.474   0.478   0.480   0.485   0.492   0.496
  0.499   0.501   0.506   0.511   0.516   0.518   0.521   0.526
  0.529   0.533   0.536   0.539   0.540   0.544   0.545   0.550
  0.551   0.557   0.558   0.561   0.564   0.566   0.569   0.572
  0.574   0.578   0.580   0.584   0.588   0.589   0.594   0.597
  0.602   0.606   0.608   0.610   0.614   0.616   0.617   0.622
  0.624   0.625   0.628   0.633   0.636   0.638   0.643   0.644
  0.645   0.646   0.650   0.652   0.654   0.657   0.662   0.667
  0.669   0.673   0.677   0.679   0.684   0.686   0.691   0.694
  0.697   0.700   0.708   0.713   0.716   0.717   0.723   0.725
  0.727   0.733   0.738   0.742   0.745   0.747   0.749   0.755
  0.759   0.764   0.777   0.779   0.782   0.791   0.794   0.798
  0.801   0.816   0.820   0.826   0.832   0.840   0.846   0.852
  0.860   0.866   0.870   0.882   0.889   0.896   0.902   0.906
  0.910   0.921   0.922   0.930   0.934   0.935   0.936   0.943
  0.947   0.952   0.954   0.956   0.960   0.965   0.969   0.974
  0.974   0.980   0.983   0.985   0.988   0.994   0.996   0.999
  1.004   1.008   1.010   1.016   1.021   1.022   1.025   1.029
  1.035   1.037   1.040   1.042   1.045   1.048   1.054   1.054
  1.057   1.061   1.063   1.068   1.076   1.084   1.085   1.090
  1.091   1.097   1.101   1.108   1.109   1.116   1.121   1.122
  1.127   1.131   1.132   1.135   1.142   1.145   1.154   1.160
  1.167   1.168   1.174   1.182   1.191   1.203   1.206   1.213
  1.219   1.223   1.234   1.236   1.241   1.245   1.251   1.261
  1.263   1.274   1.284   1.290   1.295   1.303   1.307   1.309
  1.313   1.319   1.322   1.332   1.337   1.339   1.344   1.356
  1.364   1.365   1.374   1.383   1.384   1.395   1.404   1.411
  1.415   1.419   1.435   1.447   1.456   1.463   1.477   1.481
  1.488   1.492   1.501   1.508   1.511   1.513   1.518   1.520
  1.532   1.535   1.541   1.547   1.551   1.552   1.557   1.558
  1.564   1.566   1.570   1.576   1.580   1.582   1.589   1.597
  1.602   1.606   1.614   1.621   1.633   1.644   1.648   1.658
  1.665   1.680   1.685   1.702   1.718   1.721   1.735   1.735
  1.743   1.755   1.768   1.773   1.783   1.785   1.788   1.794
  1.808   1.813   1.825   1.828   1.833   1.837   1.842   1.849
  1.855   1.857   1.866   1.869   1.872   1.880   1.883   1.888
  1.893   1.904   1.919   1.925   1.929   1.934   1.937   1.949
  1.959   1.960   1.967   1.973   1.987   1.989   1.995   1.999
  2.004   2.006   2.009   2.018   2.023   2.026   2.030   2.038
  2.043   2.053   2.056   2.061   2.063   2.067   2.078   2.081
  2.088   2.094   2.103   2.106   2.128   2.130   2.143   2.146
  2.149   2.152   2.155   2.161   2.165   2.167   2.179   2.187
  2.190   2.201   2.206   2.208   2.214   2.216   2.221   2.232
  2.237   2.244   2.245   2.249   2.256   2.258   2.262   2.265
  2.276   2.284   2.286   2.293   2.302   2.305   2.312   2.316
  2.328   2.332   2.335   2.348   2.352   2.355   2.358   2.365
  2.371   2.376   2.380   2.383   2.387   2.393   2.398   2.403
  2.426   2.430   2.440   2.453   2.455   2.478   2.480   2.500
  2.507   2.523   2.541   2.543   2.553   2.555   2.564   2.579
  2.592   2.595   2.602   2.617   2.619   2.632   2.639   2.653
  2.659   2.670   2.687   2.692   2.700   2.706   2.709   2.711
  2.714   2.723   2.732   2.738   2.740   2.742   2.753   2.755
  2.757   2.768   2.770   2.775   2.782   2.795   2.798   2.811
  2.822   2.830   2.834   2.841   2.843   2.850   2.859   2.865
  2.867   2.876   2.895   2.902   2.911   2.913   2.926   2.948
  2.971   2.984   2.989   2.996   3.009   3.023   3.032   3.038
  3.043   3.070   3.089   3.135   3.226   3.285   3.333   3.358
  3.360   3.364   3.381   3.387   3.498   3.539   3.547   3.560
  3.679  13.189  13.246  13.262  13.324  13.356  13.417  13.623
 13.647  13.662  13.702  13.718  13.738  13.754  13.757  13.773
 13.782  13.814  13.827  13.901  13.911  13.940  14.016  14.056
 14.073  14.096  14.178  14.180  14.186  14.195  14.216  14.218
 14.243  14.251  14.255  14.266  14.295  14.336  14.395  14.527
 14.534  14.582  14.587  14.603  14.620  19.496  19.565  19.628
 
 Beta MOs
 -- Occupied --
-14.681 -14.656 -14.653 -10.520 -10.519 -10.514 -10.504 -10.499
-10.499 -10.498 -10.497 -10.492 -10.492 -10.491 -10.489 -10.486
-10.481 -10.480 -10.478 -10.476 -10.475 -10.474 -10.470 -10.469
-10.469 -10.469 -10.469 -10.467 -10.465 -10.465 -10.465 -10.464
-10.464 -10.463 -10.463 -10.452 -10.451 -10.445 -10.445 -10.443
-10.443 -10.443 -10.441 -10.438 -10.437 -10.431 -10.426  -1.093
 -1.039  -1.024  -1.018  -1.000  -0.987  -0.961  -0.959  -0.957
 -0.937  -0.930  -0.911  -0.893  -0.890  -0.883  -0.858  -0.857
 -0.849  -0.846  -0.835  -0.820  -0.809  -0.804  -0.796  -0.773
 -0.771  -0.744  -0.729  -0.725  -0.714  -0.712  -0.702  -0.691
 -0.677  -0.673  -0.672  -0.666  -0.665  -0.644  -0.619  -0.613
 -0.612  -0.608  -0.599  -0.584  -0.578  -0.572  -0.567  -0.561
 -0.540  -0.540  -0.536  -0.532  -0.531  -0.525  -0.522  -0.521
 -0.514  -0.508  -0.507  -0.503  -0.501  -0.500  -0.495  -0.492
 -0.492  -0.490  -0.484  -0.483  -0.475  -0.470  -0.456  -0.447
 -0.444  -0.440  -0.438  -0.437  -0.436  -0.435  -0.431  -0.430
 -0.428  -0.425  -0.423  -0.420  -0.418  -0.417  -0.412  -0.411
 -0.404  -0.403  -0.398  -0.397  -0.395  -0.394  -0.390  -0.379
 -0.374  -0.365  -0.335  -0.323  -0.318  -0.312  -0.306  -0.304
 -0.298  -0.291  -0.288  -0.282  -0.231
 -- Virtual --
 -0.149  -0.062  -0.036  -0.017  -0.010  -0.005   0.001   0.015
  0.018   0.033   0.034   0.047   0.051   0.066   0.072   0.086
  0.111   0.113   0.122   0.129   0.133   0.136   0.138   0.147
  0.152   0.156   0.157   0.159   0.164   0.170   0.179   0.180
  0.182   0.188   0.192   0.193   0.195   0.197   0.199   0.203
  0.207   0.213   0.217   0.219   0.223   0.225   0.229   0.229
  0.231   0.234   0.236   0.239   0.240   0.246   0.247   0.252
  0.254   0.257   0.259   0.260   0.261   0.266   0.276   0.280
  0.280   0.283   0.287   0.293   0.294   0.299   0.302   0.308
  0.309   0.313   0.318   0.326   0.332   0.336   0.343   0.351
  0.358   0.364   0.365   0.377   0.379   0.382   0.389   0.391
  0.398   0.402   0.415   0.417   0.430   0.432   0.436   0.448
  0.456   0.459   0.465   0.469   0.475   0.480   0.483   0.486
  0.495   0.498   0.501   0.504   0.509   0.516   0.520   0.521
  0.524   0.528   0.531   0.536   0.537   0.541   0.542   0.547
  0.547   0.552   0.554   0.560   0.561   0.564   0.567   0.567
  0.573   0.575   0.579   0.580   0.584   0.589   0.593   0.595
  0.595   0.603   0.607   0.608   0.611   0.616   0.618   0.619
  0.620   0.623   0.627   0.629   0.633   0.633   0.637   0.643
  0.644   0.647   0.647   0.650   0.653   0.656   0.658   0.661
  0.666   0.668   0.671   0.674   0.681   0.685   0.686   0.689
  0.692   0.696   0.699   0.703   0.709   0.714   0.717   0.720
  0.724   0.727   0.728   0.735   0.739   0.742   0.747   0.750
  0.751   0.756   0.766   0.770   0.778   0.782   0.786   0.793
  0.797   0.801   0.804   0.817   0.821   0.829   0.833   0.842
  0.848   0.853   0.862   0.866   0.873   0.884   0.892   0.898
  0.904   0.909   0.913   0.922   0.924   0.930   0.934   0.936
  0.938   0.945   0.948   0.954   0.955   0.957   0.960   0.966
  0.971   0.975   0.975   0.980   0.985   0.986   0.991   0.995
  0.997   1.000   1.004   1.009   1.013   1.017   1.022   1.023
  1.026   1.030   1.036   1.038   1.042   1.044   1.046   1.050
  1.055   1.056   1.061   1.064   1.065   1.071   1.077   1.085
  1.086   1.091   1.091   1.097   1.102   1.110   1.111   1.117
  1.122   1.123   1.127   1.132   1.134   1.137   1.143   1.146
  1.154   1.161   1.167   1.168   1.176   1.183   1.191   1.204
  1.208   1.215   1.221   1.226   1.235   1.237   1.241   1.246
  1.252   1.263   1.267   1.276   1.287   1.291   1.300   1.304
  1.308   1.311   1.315   1.323   1.327   1.336   1.340   1.342
  1.349   1.357   1.366   1.368   1.375   1.386   1.391   1.402
  1.407   1.413   1.417   1.421   1.437   1.448   1.457   1.466
  1.480   1.489   1.490   1.497   1.506   1.513   1.515   1.518
  1.521   1.530   1.536   1.541   1.546   1.550   1.553   1.557
  1.561   1.561   1.564   1.568   1.572   1.579   1.581   1.586
  1.593   1.598   1.604   1.607   1.618   1.625   1.634   1.646
  1.650   1.661   1.666   1.683   1.686   1.703   1.721   1.724
  1.735   1.736   1.745   1.756   1.769   1.776   1.785   1.787
  1.789   1.798   1.809   1.815   1.828   1.830   1.834   1.838
  1.848   1.849   1.856   1.858   1.866   1.870   1.873   1.884
  1.884   1.891   1.895   1.905   1.920   1.926   1.931   1.935
  1.938   1.950   1.959   1.962   1.970   1.975   1.989   1.990
  1.996   2.000   2.005   2.007   2.010   2.018   2.024   2.027
  2.031   2.042   2.047   2.055   2.060   2.062   2.066   2.068
  2.079   2.081   2.090   2.102   2.107   2.111   2.128   2.133
  2.143   2.146   2.152   2.153   2.160   2.164   2.165   2.167
  2.184   2.191   2.195   2.202   2.208   2.214   2.217   2.220
  2.227   2.234   2.244   2.247   2.253   2.257   2.259   2.263
  2.267   2.273   2.279   2.286   2.291   2.294   2.307   2.307
  2.313   2.317   2.330   2.333   2.341   2.351   2.353   2.356
  2.362   2.367   2.374   2.380   2.381   2.385   2.390   2.394
  2.398   2.405   2.427   2.432   2.441   2.456   2.457   2.480
  2.483   2.501   2.509   2.524   2.542   2.550   2.555   2.556
  2.569   2.583   2.593   2.596   2.604   2.619   2.621   2.633
  2.642   2.659   2.661   2.676   2.689   2.697   2.705   2.709
  2.712   2.714   2.718   2.725   2.733   2.740   2.741   2.754
  2.754   2.756   2.758   2.769   2.772   2.776   2.783   2.796
  2.801   2.811   2.822   2.831   2.836   2.842   2.845   2.854
  2.861   2.866   2.871   2.878   2.899   2.903   2.911   2.914
  2.926   2.948   2.972   2.987   2.990   2.998   3.013   3.023
  3.032   3.038   3.043   3.071   3.090   3.137   3.226   3.285
  3.333   3.359   3.362   3.367   3.381   3.388   3.498   3.542
  3.547   3.560   3.679  13.191  13.246  13.264  13.324  13.356
 13.421  13.624  13.652  13.662  13.703  13.718  13.738  13.754
 13.757  13.773  13.783  13.814  13.827  13.905  13.911  13.944
 14.019  14.057  14.074  14.097  14.178  14.181  14.188  14.196
 14.216  14.221  14.243  14.252  14.255  14.266  14.298  14.338
 14.395  14.531  14.537  14.583  14.587  14.603  14.620  19.496
 19.565  19.628
 --------------------------------------------------------------
 
          Ground-State Mulliken Net Atomic Charges

     Atom                 Charge (a.u.)    Spin (a.u.)
  --------------------------------------------------------
      1 N                    -0.701785       0.000886
      2 C                     0.314118      -0.011816
      3 C                    -0.301618       0.012575
      4 H                     0.260143      -0.001062
      5 C                    -0.230368      -0.012994
      6 H                     0.215360       0.001123
      7 C                    -0.220388       0.013160
      8 H                     0.210885      -0.001064
      9 C                    -0.321424      -0.013542
     10 H                     0.213231       0.001143
     11 C                     0.152101       0.013057
     12 C                     0.308797      -0.013097
     13 C                    -0.280622       0.014498
     14 H                     0.240837      -0.001049
     15 C                    -0.236043      -0.015341
     16 H                     0.214531       0.001263
     17 C                    -0.217342       0.015265
     18 H                     0.212721      -0.001238
     19 C                    -0.325366      -0.015473
     20 H                     0.212621       0.001279
     21 C                     0.172552       0.014692
     22 C                     0.218199      -0.003479
     23 C                    -0.282609       0.001221
     24 H                     0.285422      -0.001289
     25 C                    -0.239959       0.006133
     26 H                     0.235712      -0.000343
     27 C                    -0.300752      -0.000286
     28 H                     0.218806       0.000109
     29 C                     0.228434       0.018070
     30 C                     0.048231       0.003522
     31 C                    -0.516644       0.000022
     32 H                     0.245999      -0.000030
     33 H                     0.253837       0.000112
     34 C                    -0.229465      -0.002756
     35 C                    -0.546094       0.000307
     36 H                     0.253554      -0.000013
     37 H                     0.258618       0.000196
     38 C                     0.113223       0.003637
     39 C                    -0.323224       0.000846
     40 H                     0.244948      -0.000014
     41 C                     0.077794       0.010763
     42 C                     0.095655      -0.008277
     43 C                    -0.305220       0.017348
     44 H                     0.281824      -0.002700
     45 C                     0.217733       0.021215
     46 C                    -0.007536      -0.005172
     47 N                    -0.155092       0.006137
     48 C                    -0.009288       0.002100
     49 N                    -0.155131      -0.002206
     50 C                    -0.664931       0.000320
     51 H                     0.227759      -0.000045
     52 H                     0.227792      -0.000044
     53 H                     0.239452      -0.000018
     54 C                    -0.402607      -0.070347
     55 C                     0.015189       0.356314
     56 C                    -0.261120      -0.219617
     57 H                     0.224570       0.008128
     58 C                    -0.240446       0.580059
     59 H                     0.232863      -0.033824
     60 C                    -0.201912      -0.174057
     61 H                     0.232542       0.005491
     62 C                    -0.306005       0.295492
     63 H                     0.216655      -0.018577
     64 C                     0.141450       0.148293
     65 C                     0.101562       0.227767
     66 C                    -0.294934       0.276670
     67 H                     0.215361      -0.017478
     68 C                    -0.208641      -0.153141
     69 H                     0.230981       0.003935
     70 C                    -0.237795       0.611681
     71 H                     0.231895      -0.036017
     72 C                    -0.288734      -0.228000
     73 H                     0.219924       0.008702
     74 C                     0.169857       0.360001
     75 C                    -0.593609       0.000796
     76 H                     0.232596      -0.000067
     77 H                     0.219411       0.000067
     78 H                     0.220961       0.000077
  --------------------------------------------------------
  Sum of atomic charges =     0.000000
  Sum of spin   charges =     2.000000

 -----------------------------------------------------------------
                    Cartesian Multipole Moments
 -----------------------------------------------------------------
    Charge (ESU x 10^10)
                 0.0000
    Dipole Moment (Debye)
         X      -5.6065      Y      -5.1087      Z       1.8035
       Tot       7.7964
    Quadrupole Moments (Debye-Ang)
        XX    -352.2432     XY     -67.5135     YY    -295.1352
        XZ      27.6009     YZ      20.1610     ZZ    -258.1756
    Octopole Moments (Debye-Ang^2)
       XXX   -3406.8411    XXY   -1140.9946    XYY   -1103.4409
       YYY   -1508.6742    XXZ     438.5253    XYZ     216.5188
       YYZ     169.3328    XZZ    -775.0396    YZZ    -454.0427
       ZZZ     305.3178
    Hexadecapole Moments (Debye-Ang^3)
      XXXX  -48521.7090   XXXY  -13685.7246   XXYY  -11432.8266
      XYYY   -8984.8262   YYYY  -12499.3528   XXXZ    6985.8279
      XXYZ    2349.8646   XYYZ    2078.2069   YYYZ    1944.7977
      XXZZ   -7798.5890   XYZZ   -2668.0279   YYZZ   -3168.5117
      XZZZ    3513.6916   YZZZ    1412.6036   ZZZZ   -6796.2975
 -----------------------------------------------------------------
Archival summary:
1\1\ctcp044\SP\ProcedureUnspecified\BasisUnspecified\34431(3)\mewes\TueJan812:31:382019TueJan812:31:382019\0\\#,ProcedureUnspecified,BasisUnspecified,\\0,3\N\C,1,1.40154\C,2,1.39566,1,122.139\H,3,1.07999,2,121.162,1,-3.12049,0\C,3,1.38384,2,120.526,1,175.984,0\H,5,1.08232,3,118.889,2,-178.764,0\C,5,1.3828,3,120.369,2,0.136473,0\H,7,1.08165,5,120.836,3,-178.715,0\C,7,1.38574,5,118.956,3,2.43374,0\H,9,1.08098,7,118.394,5,177.835,0\C,9,1.38813,7,121.931,5,-1.12297,0\C,1,1.40192,2,118.792,3,-153.68,0\C,12,1.39405,1,121.097,2,150.337,0\H,13,1.08088,12,120.42,1,1.09649,0\C,13,1.38371,12,120.168,1,-178.159,0\H,15,1.08208,13,119.306,12,-180,0\C,15,1.38361,13,120.268,12,0.874978,0\H,17,1.08156,15,120.656,13,179.306,0\C,17,1.38622,15,119.276,13,-1.1157,0\H,19,1.08117,17,118.547,15,-179.382,0\C,19,1.38767,17,121.761,15,-0.234997,0\C,1,1.41645,2,119.432,3,4.34985,0\C,22,1.37928,1,120.34,2,-64.01,0\H,23,1.08274,22,117.168,1,-0.238263,0\C,22,1.38535,1,120.455,2,116.294,0\H,25,1.08199,22,120.202,1,-0.461393,0\C,25,1.37961,22,118.625,1,179.757,0\H,27,1.08317,25,118.892,22,-179.981,0\C,23,1.39648,22,122.884,1,177.945,0\C,29,1.39572,23,117.823,22,2.94399,0\C,30,1.5004,29,124.127,23,-178.873,0\H,31,1.09097,30,108.305,29,166.958,0\H,31,1.09375,30,111.026,29,-77.214,0\C,11,1.51571,9,123.063,7,171.432,0\C,31,1.52554,30,113.013,29,46.0351,0\H,35,1.09086,31,109.506,30,153.951,0\H,35,1.09234,31,109.747,30,38.2658,0\C,35,1.49687,31,111.337,30,-85.8091,0\C,38,1.38942,35,117.333,31,-120.709,0\H,39,1.0822,38,119.081,35,-2.8587,0\C,39,1.3861,38,122.231,35,177.214,0\C,41,1.39459,39,118.436,38,-0.981593,0\C,42,1.38677,41,119.49,39,0.368588,0\H,43,1.07952,42,117.222,41,179.384,0\C,43,1.39439,42,122.491,41,0.409649,0\C,41,1.42515,39,119.955,38,179.026,0\N,46,1.15096,41,178.756,39,-6.87914,0\C,42,1.42626,41,121.167,39,179.757,0\N,48,1.15083,42,178.962,41,-169.154,0\C,34,1.52596,11,112.211,9,20.264,0\H,50,1.08964,34,111.15,11,-177.687,0\H,50,1.08977,34,110.906,11,-60.264,0\H,50,1.09073,34,112.137,11,60.8848,0\C,29,1.53519,23,112.797,22,-175.309,0\C,54,1.52737,29,107.993,23,-47.0896,0\C,55,1.36038,54,128.671,29,-57.8249,0\H,56,1.08291,55,120.842,54,0.73999,0\C,56,1.40921,55,119.042,54,-178.99,0\H,58,1.08033,56,119.872,55,179.272,0\C,58,1.41813,56,120.565,55,-0.162403,0\H,60,1.08187,58,118.775,56,179.644,0\C,60,1.36351,58,121.527,56,-0.806003,0\H,62,1.08165,60,120.919,58,-179.114,0\C,62,1.43273,60,118.618,58,0.069406,0\C,64,1.38123,62,131.311,60,-175.788,0\C,65,1.43544,64,130.98,62,0.39214,0\H,66,1.08157,65,120.25,64,-6.24628,0\C,66,1.36169,65,118.808,64,172.899,0\H,68,1.08199,66,119.867,65,-179.539,0\C,68,1.4193,66,121.222,65,0.143716,0\H,70,1.0807,68,119.637,66,-179.499,0\C,70,1.41041,68,120.669,66,1.30263,0\H,72,1.08199,70,119.101,68,-179.71,0\C,72,1.36195,70,119.45,68,-0.138993,0\C,34,1.54258,11,107.553,9,-98.3906,0\H,75,1.08955,34,111.787,11,-58.1352,0\H,75,1.09134,34,110.571,11,-178.467,0\H,75,1.09161,34,110.216,11,61.6352,0\\\@

 Total job time:  627.08s(wall), 1848.33s(cpu) 
 Tue Jan  8 12:31:38 2019

        *************************************************************
        *                                                           *
        *  Thank you very much for using Q-Chem.  Have a nice day.  *
        *                                                           *
        *************************************************************


0 sent ACK to 0 
now end server 0 ... 
 
*************************************************************
Job 2 of 2 
*************************************************************
 
mFile = /cm/shared/apps/q-chem/intel/QCHEM_5.0.1_Trunk/bin/mpi/machines
Process 0 of 1 is on ctcp044 - thread support 0
initial socket setup ...start
initial socket setup ...done 
now start server 0 ... 
ctcp044.cm.cluster 10.141.0
Q-Chem Developer Version! Running on 10.141.0.*
                  Welcome to Q-Chem
     A Quantum Leap Into The Future Of Chemistry


 Q-Chem 5.0, Q-Chem, Inc., Pleasanton, CA (2017)

 Yihan Shao,  Zhengting Gan,  E. Epifanovsky,  A. T. B. Gilbert,  M. Wormit,  
 J. Kussmann,  A. W. Lange,  A. Behn,  Jia Deng,  Xintian Feng,  D. Ghosh,  
 M. Goldey,  P. R. Horn,  L. D. Jacobson,  I. Kaliman,  T. Kus,  A. Landau,  
 Jie Liu,  E. I. Proynov,  R. M. Richard,  R. P. Steele,  E. J. Sundstrom,  
 H. L. Woodcock III,  P. M. Zimmerman,  D. Zuev,  B. Albrecht,  E. Alguire,  
 S. A. Baeppler,  Z. Benda,  Y. A. Bernard,  E. J. Berquist,  K. B. Bravaya,  
 D. Casanova,  Chun-Min Chang,  Yunqing Chen,  A. Chien,  K. D. Closser,  
 M. P. Coons,  S. Dasgupta,  M. Diedenhofen,  Hainam Do,  R. G. Edgar,  
 Po-Tung Fang,  S. Fatehi,  Qingguo Feng,  Qinghui Ge,  A. Ghysels,  
 J. Gomes,  J. Gonthier,  A. Gunina,  M. W. D. Hanson-Heine,  
 P. H. P. Harbach,  A. W. Hauser,  J. E. Herr,  E. G. Hohenstein,  
 Z. C. Holden,  Kerwin Hui,  T.-C. Jagau,  Hyunjun Ji,  B. Kaduk,  
 K. Khistyaev,  Jaehoon Kim,  P. Klunzinger,  K. Koh,  D. Kosenkov,  
 T. Kowalczyk,  C. M. Krauter,  A. Kunitsa,  Ka Un Lao,  A. Laurent,  
 K. V. Lawler,  Joonho Lee,  D. Lefrancois,  S. Lehtola,  D. S. Levine,  
 Yi-Pei Li,  You-Sheng Lin,  Fenglai Liu,  E. Livshits,  A. Luenser,  
 P. Manohar,  E. Mansoor,  S. F. Manzer,  Shan-Ping Mao,  Yuezhi Mao,  
 N. Mardirossian,  A. V. Marenich,  L. A. Martinez-Martinez,  S. A. Maurer,  
 N. J. Mayhall,  S. C. McKenzie,  J.-M. Mewes,  A. F. Morrison,  K. Nanda,  
 T. S. Nguyen-Beck,  R. Olivares-Amaya,  J. A. Parkhill,  T. M. Perrine,  
 F. Plasser,  S. Prager,  A. Prociuk,  D. R. Rehn,  F. Rob,  M. Schneider,  
 N. Sergueev,  S. M. Sharada,  S. Sharma,  D. W. Small,  T. Stauch,  
 T. Stein,  Yu-Chuan Su,  A. J. W. Thom,  T. Tsuchimochi,  L. Vogt,  
 O. Vydrov,  M. A. Watson,  J. Wenzel,  M. de Wergifosse,  T. A. Wesolowski,  
 A. White,  J. Witte,  A. Yamada,  Jun Yang,  K. Yao,  S. Yeganeh,  
 S. R. Yost,  Zhi-Qiang You,  A. Zech,  Igor Ying Zhang,  Xing Zhang,  
 Yan Zhao,  Ying Zhu,  B. R. Brooks,  G. K. L. Chan,  C. J. Cramer,  
 M. S. Gordon,  W. J. Hehre,  A. Klamt,  M. W. Schmidt,  C. D. Sherrill,  
 D. G. Truhlar,  A. Aspuru-Guzik,  R. Baer,  A. T. Bell,  N. A. Besley,  
 Jeng-Da Chai,  A. Dreuw,  B. D. Dunietz,  T. R. Furlani,  Chao-Ping Hsu,  
 Yousung Jung,  Jing Kong,  D. S. Lambrecht,  WanZhen Liang,  C. Ochsenfeld,  
 V. A. Rassolov,  L. V. Slipchenko,  J. E. Subotnik,  T. Van Voorhis,  
 J. M. Herbert,  A. I. Krylov,  P. M. W. Gill,  M. Head-Gordon

 Contributors to earlier versions of Q-Chem not listed above: 
 R. D. Adamson,  B. Austin,  J. Baker,  G. J. O. Beran,  K. Brandhorst,  
 S. T. Brown,  E. F. C. Byrd,  A. K. Chakraborty,  C.-L. Cheng,  
 Siu Hung Chien,  D. M. Chipman,  D. L. Crittenden,  H. Dachsel,  
 R. A. DiStasio Jr.,  R. J. Doerksen,  A. D. Dutoi,  L. Fusti-Molnar,  
 W. A. Goddard III,  A. Golubeva-Zadorozhnaya,  S. R. Gwaltney,  G. Hawkins,  
 A. Heyden,  S. Hirata,  G. Kedziora,  F. J. Keil,  C. Kelley,  Jihan Kim,  
 R. A. King,  R. Z. Khaliullin,  P. P. Korambath,  W. Kurlancheek,  
 A. M. Lee,  M. S. Lee,  S. V. Levchenko,  Ching Yeh Lin,  D. Liotard,  
 R. C. Lochan,  I. Lotan,  P. E. Maslen,  N. Nair,  D. P. O'Neill,  
 D. Neuhauser,  E. Neuscamman,  C. M. Oana,  R. Olson,  B. Peters,  
 R. Peverati,  P. A. Pieniazek,  Y. M. Rhee,  J. Ritchie,  M. A. Rohrdanz,  
 E. Rosta,  N. J. Russ,  H. F. Schaefer III,  N. E. Schultz,  N. Shenvi,  
 A. C. Simmonett,  A. Sodt,  D. Stuck,  K. S. Thanthiriwatte,  V. Vanovschi,  
 Tao Wang,  A. Warshel,  C. F. Williams,  Q. Wu,  X. Xu,  W. Zhang

 Please cite Q-Chem as follows:
 Y. Shao et al., Mol. Phys. 113, 184-215 (2015)
 DOI: 10.1080/00268976.2014.952696

 Q-Chem 5.0.1 for Intel X86 EM64T Linux

 Parts of Q-Chem use Armadillo 5.200.1 (Boston Tea Smuggler).
 http://arma.sourceforge.net/

 Q-Chem begins on Tue Jan  8 12:31:41 2019  

Host: ctcp044
0

     Scratch files written to /scratch/mewes/142936/qchem312//
 Parallel job on  1  processors
The previous job contains 0 fragments, simply inherited here
Symmetry turned off for PCM/SM12/SMD calculation

Checking the input file for inconsistencies... 	...done.

--------------------------------------------------------------
User input:
--------------------------------------------------------------

$rem
threads 8
jobtype opt
method PBEh-3c
basis def2-mSVP
mem_static      1024
mem_total       8000
sym_ignore      true
unrestricted true
scf_algorithm   diis
scf_max_cycles  250
solvent_method  pcm
geom_opt_tol_energy 25
geom_opt_tol_gradient 75
scf_guess	read
mom_start	1
$end

$pcm
theory  iefpcm
$end

$solvent
dielectric      1.0001
$end

$molecule
read uincoords_2.mol
$end

--------------------------------------------------------------
 Adding empirical dispersion correction 
 ----------------------------------------------------------------
 Doing -D3(BJ) with
 s6 =   1.00000
 s8 =   0.00000
 a1 =   0.48600
 a2 =   4.50000
 -D3 energy including 3body term =     -0.0782506691 hartrees
 ----------------------------------------------------------------
 Adding gCP correction 
 ----------------------------------------------------------------
 gCP energy =      0.1092410455 hartrees
 ----------------------------------------------------------------
             Standard Nuclear Orientation (Angstroms)
    I     Atom           X                Y                Z
 ----------------------------------------------------------------
    1      N       0.0000000000     0.0000000000     0.0000000000
    2      C       0.0000000000     0.0000000000     1.4015360000
    3      C       1.1817868178     0.0000000000     2.1440034526
    4      H       2.1459027849    -0.0503075207     1.6599224311
    5      C       1.1443704016     0.0834811648     3.5248142714
    6      H       2.0774085811     0.1017120580     4.0730188882
    7      C      -0.0664341907     0.1652585881     4.1876955538
    8      H      -0.1038628615     0.2515714483     5.2652504528
    9      C      -1.2392654718     0.1108458875     3.4516375453
   10      H      -2.1807792047     0.1397790792     3.9819470753
   11      C      -1.2331878360    -0.0002027383     2.0679749128
   12      C      -1.1012398732     0.5447497663    -0.6752043572
   13      C      -0.9570829240     1.1325360688    -1.9310335714
   14      H       0.0094676666     1.1616247086    -2.4139870146
   15      C      -2.0500056128     1.6982189724    -2.5636283967
   16      H      -1.9222622803     2.1507054000    -3.5382264127
   17      C      -3.2886350684     1.7005587533    -1.9470528036
   18      H      -4.1446902512     2.1508763190    -2.4309535929
   19      C      -3.4264849088     1.1098989160    -0.7005624792
   20      H      -4.4018172384     1.1095200321    -0.2340224522
   21      C      -2.3550774475     0.5103203200    -0.0538634859
   22      C       1.2300817332    -0.0935667463    -0.6960361323
   23      C       2.1718750311     0.9078792139    -0.5840823161
   24      H       1.9235035941     1.7517974679     0.0471349098
   25      C       1.4994538248    -1.1877957638    -1.5018184064
   26      H       0.7732265831    -1.9839057074    -1.5992802925
   27      C       2.7074037259    -1.2377959492    -2.1664132367
   28      H       2.9223909563    -2.0912303978    -2.7978387774
   29      C       3.4176291885     0.8508691530    -1.2125770382
   30      C       3.6829933540    -0.2454254330    -2.0346181366
   31      C       4.9800934114    -0.4613204770    -2.7571933433
   32      H       4.9997337149    -1.4875946620    -3.1267874780
   33      H       5.0468076132     0.1768332001    -3.6429688014
   34      C      -2.4863890264    -0.2504995235     1.2529865659
   35      C       6.2012883438    -0.2271161953    -1.8733857922
   36      H       7.0418222827    -0.8106847525    -2.2514326557
   37      H       6.0064751076    -0.6047803385    -0.8670891101
   38      C       6.5904508059     1.2181528580    -1.8540021376
   39      C       7.8690242528     1.5404938318    -2.2919877483
   40      H       8.5422137326     0.7441500569    -2.5814974196
   41      C       8.3153083371     2.8504476432    -2.3702661625
   42      C       7.4370819530     3.8736079786    -2.0142412036
   43      C       6.1560812291     3.5563155791    -1.5882301815
   44      H       5.5102891214     4.3760943613    -1.3120324091
   45      C       5.7033948250     2.2410586773    -1.4908022786
   46      C       9.6439321878     3.1246872484    -2.8068383488
   47      N      10.7217552758     3.3216379068    -3.1592659885
   48      C       7.8369262191     5.2416140300    -2.0680016322
   49      N       8.1422153390     6.3507199220    -2.1010873422
   50      C      -3.7545461599     0.1208237707     2.0161709586
   51      H      -4.6456912854    -0.1036270078     1.4306873933
   52      H      -3.8441727753    -0.4658182574     2.9301835587
   53      H      -3.7779009374     1.1776561415     2.2849720167
   54      C       4.3262115340     2.0310345863    -0.8404100203
   55      C       3.5065252808     3.3140962017    -0.9617500359
   56      C       2.8500328698     3.8038641491    -2.0479275247
   57      H       2.8522182128     3.2653129226    -2.9874230642
   58      C       2.1667866559     5.0314649609    -1.9382351899
   59      H       1.6508785632     5.4386152891    -2.7956655608
   60      C       2.1595526018     5.7458097514    -0.7131799280
   61      H       1.6306906122     6.6882643503    -0.6629965956
   62      C       2.7932487992     5.2669967441     0.3951141870
   63      H       2.7694656940     5.8131725722     1.3284401632
   64      C       3.4795584644     4.0125701826     0.3050203771
   65      C       4.1300023792     3.2582820396     1.2619826079
   66      C       4.3243955002     3.4836695024     2.6662261052
   67      H       4.0146851461     4.4171371960     3.1162481925
   68      C       4.8869124112     2.4970440205     3.4174602295
   69      H       5.0345002273     2.6457869135     4.4789706648
   70      C       5.2817433228     1.2640156858     2.8359504261
   71      H       5.7183121416     0.4954315544     3.4577192158
   72      C       5.1255455824     1.0383444598     1.4525034664
   73      H       5.4307431152     0.0872060830     1.0367102988
   74      C       4.5872969679     2.0154666789     0.6712112644
   75      C      -2.5433037602    -1.7596737739     0.9387953714
   76      H      -1.6575182862    -2.0942062959     0.3997241093
   77      H      -3.4171521933    -1.9913932980     0.3274688168
   78      H      -2.6064060302    -2.3354873706     1.8640378066
 ----------------------------------------------------------------
 Nuclear Repulsion Energy =  5564.3035227038 hartrees
 There are      159 alpha and      157 beta electrons
 Requested basis set is def2-mSVP
 There are 391 shells and 767 basis functions

 Total QAlloc Memory Limit   8000 MB
 Mega-Array Size      1001 MB
 MEM_STATIC part      1024 MB
 Discretize the solute cavity surface with Lebedev spheres
	Using 302 Lebedev grid points for each H atom
	Using 302 Lebedev grid points for other atoms
	Atomic van der Waals radii will be scaled by 1.20
 Remove points where switching function is < 1.0e-08
 Keep 8056 surface tesserae and discard 15500 interior tesserae
 Molecular Surface Area = 618.987 Angst**2
 A cutoff of  1.0D-11 yielded  35424 shell pairs
 There are    142322 function pairs (    157071 Cartesian)
 
 -------------------------------------------------------
 OpenMP Integral Computing Module                       
 Release: version 1.0, May 2013, Q-Chem Inc. Pittsburgh 
 -------------------------------------------------------
 Integral Job Info:
 Integral job number is                      11
 Integral operator is                         1
 short-range coefficients                     0
 long-range coefficients              100000000
 Omega coefficients                           0
 if combine SR and LR in K                    0
 Integral screening is                        0
 Integral computing path is                   2
 max size of driver memory is            800000
 size of driver memory is                593474
 size of scratch memory is              1809772
 max col of scratch BK array               1296
 max len of scratch array in speh3          155
 max len of scratch index in speh4           18
 max int batch size is                      520
 min int batch size is                       52
 fixed nKL is                                52
 max L of basis functions is                  2
 order of int derivative is                   0
 number of shells is                        391
 number of basis is                         814
 number of cartesian basis is               814
 number of contracted shell pairs         35424
 number of primitive shell pairs          74002
 maxK2 (contraction) of shell pair           25
 max number of K2 of shell pair               1
 max number of CS2 of shell pair           8424
 max number of PS2 of shell pair          13065
 mem total for path MDJ                  390824
 -------------------------------------------------------
 Smallest overlap matrix eigenvalue = 2.46E-04

 Scale SEOQF with 1.000000e-02/1.000000e-02/1.000000e-02

 Standard Electronic Orientation quadrupole field applied
 Nucleus-field energy     =     0.0000000249 hartrees
 Guess MOs from SCF MO coefficient file
 Reading MOs from coefficient file
 Reading MOs from coefficient file
 An unrestricted hybrid HF-DFT SCF calculation will be
 performed using Pulay DIIS extrapolation
 Polarizable Continuum solvation model will be applied
 Exchange:     0.4200 Hartree-Fock + 0.5800 PBEh-3c
 Correlation:  1.0000 PBEh-3c
 Using SG-1 standard quadrature grid
 Dispersion:   Grimme D3
 SCF converges when DIIS error is below 1.0E-08
 using 8 threads for integral computing
 -------------------------------------------------------
 OpenMP Integral computing Module                
 Release: version 1.0, May 2013, Q-Chem Inc. Pittsburgh 
 -------------------------------------------------------
 MOM overlap:    158.9999582443 / 159
 MOM overlap:    156.9999648318 / 157
 ---------------------------------------
  Cycle       Energy         DIIS Error
 ---------------------------------------
    1   -1855.4187298109      4.61E-06
 Using non-symmetric K matrix
 MOM overlap:    158.9999934957 / 159
 MOM overlap:    156.9999948258 / 157
    2   -1855.4187746239      4.76E-06
 MOM overlap:    158.9999861739 / 159
 MOM overlap:    156.9999875808 / 157
    3   -1855.4187882627      2.12E-06
 MOM overlap:    158.9999904598 / 159
 MOM overlap:    156.9999913851 / 157
    4   -1855.4188050514      1.19E-06
 MOM overlap:    158.9999598054 / 159
 MOM overlap:    156.9999622606 / 157
    5   -1855.4188155897      8.31E-07
 MOM overlap:    158.9999939533 / 159
 MOM overlap:    156.9999940387 / 157
    6   -1855.4188281361      6.48E-07
 MOM overlap:    158.9999993601 / 159
 MOM overlap:    156.9999992900 / 157
    7   -1855.4188299035      2.98E-07
 MOM overlap:    158.9999986792 / 159
 MOM overlap:    156.9999984892 / 157
    8   -1855.4188302970      2.35E-07
 MOM overlap:    158.9999997767 / 159
 MOM overlap:    156.9999997516 / 157
    9   -1855.4188306925      1.49E-07
 MOM overlap:    158.9999997914 / 159
 MOM overlap:    156.9999998162 / 157
   10   -1855.4188307800      9.25E-08
 MOM overlap:    158.9999998851 / 159
 MOM overlap:    156.9999999003 / 157
   11   -1855.4188308288      7.04E-08
 MOM overlap:    158.9999999659 / 159
 MOM overlap:    156.9999999717 / 157
   12   -1855.4188308479      4.46E-08
 MOM overlap:    158.9999999958 / 159
 MOM overlap:    156.9999999957 / 157
   13   -1855.4188308533      2.17E-08
 MOM overlap:    158.9999999982 / 159
 MOM overlap:    156.9999999981 / 157
   14   -1855.4188308534      1.64E-08
 MOM overlap:    158.9999999967 / 159
 MOM overlap:    156.9999999969 / 157
   15   -1855.4188308573      1.03E-08
 MOM overlap:    158.9999999985 / 159
 MOM overlap:    156.9999999986 / 157
   16   -1855.4188308516      7.47E-09 Convergence criterion met
 ---------------------------------------

************** Final PCM Free Energy Summary **************
 G_electrostatic  =      -0.00000196 hartree =      -0.00122710 kcal/mol
 G_cavitation     =       0.00000000 hartree =       0.00000000 kcal/mol
 G_dispersion     =       0.00000000 hartree =       0.00000000 kcal/mol
 G_repulsion      =       0.00000000 hartree =       0.00000000 kcal/mol
 --------------------------------------------------
 Non-electrostatic Free Energy =       0.00000000 hartree =       0.00000000 kcal/mol
 Total                         =      -0.00000196 hartree =      -0.00122710 kcal/mol
 --------------------------------------------------
 SCF Energy (H0 + V/2)                       =   -1855.41883085 
 Solute Internal Energy (H0)                 =   -1855.41882890 
 Total Free Energy (H0 + V/2 + non-elec)     =   -1855.41883085 hartree
                                             = -1164292.88903112 kcal/mol
***********************************************************

 <S^2> = 2.0917
 SCF time:  CPU 3540.08 s  wall 1238.83 s
 SCF   energy in the final basis set = -1855.41883085
 Total energy in the final basis set = -1855.41883085
 
 --------------------------------------------------------------
 
                    Orbital Energies (a.u.)
 --------------------------------------------------------------
 
 Alpha MOs
 -- Occupied --
-14.681 -14.656 -14.653 -10.521 -10.519 -10.513 -10.505 -10.499
-10.499 -10.498 -10.497 -10.492 -10.492 -10.491 -10.489 -10.487
-10.486 -10.483 -10.480 -10.479 -10.478 -10.474 -10.473 -10.471
-10.470 -10.469 -10.469 -10.469 -10.466 -10.466 -10.466 -10.465
-10.464 -10.464 -10.463 -10.452 -10.452 -10.445 -10.445 -10.443
-10.443 -10.443 -10.441 -10.438 -10.437 -10.431 -10.426  -1.093
 -1.042  -1.030  -1.018  -1.003  -0.988  -0.968  -0.961  -0.959
 -0.939  -0.934  -0.912  -0.900  -0.890  -0.888  -0.863  -0.860
 -0.849  -0.847  -0.835  -0.824  -0.820  -0.809  -0.797  -0.773
 -0.772  -0.745  -0.741  -0.725  -0.715  -0.714  -0.703  -0.692
 -0.682  -0.678  -0.672  -0.671  -0.667  -0.645  -0.620  -0.613
 -0.613  -0.609  -0.600  -0.586  -0.581  -0.574  -0.567  -0.564
 -0.544  -0.540  -0.538  -0.534  -0.532  -0.525  -0.524  -0.522
 -0.517  -0.510  -0.508  -0.504  -0.503  -0.501  -0.497  -0.494
 -0.492  -0.490  -0.486  -0.485  -0.476  -0.471  -0.467  -0.455
 -0.447  -0.445  -0.443  -0.441  -0.439  -0.437  -0.435  -0.432
 -0.429  -0.428  -0.426  -0.424  -0.420  -0.419  -0.416  -0.414
 -0.411  -0.404  -0.400  -0.398  -0.397  -0.395  -0.392  -0.379
 -0.374  -0.372  -0.366  -0.345  -0.330  -0.323  -0.311  -0.307
 -0.304  -0.294  -0.288  -0.285  -0.282  -0.231  -0.159
 -- Virtual --
 -0.063  -0.033  -0.014  -0.011  -0.005   0.013   0.015   0.018
  0.021   0.033   0.047   0.050   0.071   0.083   0.111   0.112
  0.119   0.126   0.131   0.132   0.135   0.140   0.147   0.152
  0.155   0.157   0.160   0.169   0.178   0.179   0.181   0.185
  0.189   0.193   0.194   0.196   0.198   0.200   0.202   0.205
  0.212   0.216   0.219   0.223   0.224   0.227   0.229   0.232
  0.235   0.237   0.238   0.244   0.246   0.251   0.252   0.257
  0.258   0.258   0.259   0.265   0.274   0.274   0.279   0.282
  0.286   0.292   0.293   0.297   0.300   0.307   0.309   0.310
  0.317   0.324   0.332   0.334   0.340   0.350   0.357   0.363
  0.364   0.376   0.377   0.381   0.387   0.390   0.396   0.399
  0.411   0.416   0.429   0.431   0.433   0.447   0.455   0.457
  0.463   0.468   0.474   0.478   0.480   0.485   0.492   0.496
  0.499   0.501   0.506   0.511   0.516   0.518   0.521   0.526
  0.529   0.533   0.536   0.539   0.540   0.544   0.545   0.550
  0.551   0.557   0.558   0.561   0.564   0.566   0.569   0.572
  0.575   0.578   0.580   0.584   0.588   0.589   0.594   0.597
  0.602   0.606   0.608   0.610   0.614   0.616   0.617   0.622
  0.624   0.625   0.628   0.633   0.636   0.639   0.643   0.644
  0.645   0.646   0.650   0.652   0.654   0.657   0.662   0.667
  0.669   0.673   0.677   0.679   0.684   0.686   0.691   0.694
  0.697   0.700   0.708   0.712   0.716   0.718   0.723   0.725
  0.727   0.733   0.738   0.742   0.745   0.747   0.749   0.755
  0.760   0.764   0.776   0.779   0.782   0.791   0.794   0.798
  0.801   0.816   0.820   0.826   0.832   0.840   0.846   0.852
  0.860   0.866   0.870   0.882   0.889   0.896   0.902   0.906
  0.910   0.921   0.923   0.930   0.934   0.935   0.936   0.943
  0.947   0.952   0.954   0.956   0.960   0.965   0.969   0.974
  0.974   0.980   0.983   0.985   0.988   0.994   0.996   1.000
  1.004   1.008   1.010   1.016   1.021   1.022   1.025   1.029
  1.035   1.037   1.040   1.042   1.045   1.048   1.054   1.054
  1.057   1.061   1.063   1.068   1.076   1.084   1.085   1.090
  1.090   1.097   1.101   1.108   1.109   1.116   1.121   1.122
  1.127   1.131   1.132   1.135   1.142   1.146   1.154   1.160
  1.166   1.168   1.174   1.182   1.191   1.203   1.206   1.213
  1.219   1.223   1.234   1.236   1.241   1.245   1.251   1.261
  1.263   1.274   1.284   1.290   1.295   1.303   1.307   1.309
  1.313   1.319   1.322   1.332   1.337   1.339   1.344   1.356
  1.364   1.365   1.374   1.383   1.384   1.395   1.404   1.411
  1.414   1.419   1.436   1.446   1.456   1.463   1.477   1.482
  1.488   1.492   1.501   1.508   1.511   1.513   1.519   1.520
  1.532   1.535   1.541   1.547   1.551   1.552   1.557   1.559
  1.564   1.566   1.570   1.576   1.580   1.582   1.590   1.597
  1.603   1.606   1.614   1.621   1.633   1.643   1.648   1.659
  1.665   1.680   1.685   1.702   1.719   1.721   1.735   1.735
  1.743   1.755   1.768   1.773   1.783   1.785   1.788   1.795
  1.808   1.812   1.825   1.828   1.833   1.837   1.842   1.849
  1.855   1.857   1.865   1.869   1.872   1.880   1.883   1.889
  1.893   1.904   1.919   1.925   1.930   1.934   1.937   1.949
  1.959   1.960   1.967   1.973   1.987   1.989   1.995   1.999
  2.004   2.006   2.010   2.018   2.023   2.026   2.030   2.038
  2.043   2.053   2.056   2.061   2.063   2.067   2.078   2.081
  2.088   2.094   2.103   2.106   2.128   2.130   2.143   2.145
  2.149   2.152   2.156   2.162   2.165   2.167   2.179   2.187
  2.190   2.201   2.206   2.208   2.214   2.216   2.221   2.232
  2.237   2.244   2.246   2.249   2.256   2.258   2.261   2.265
  2.276   2.284   2.286   2.293   2.303   2.305   2.312   2.316
  2.328   2.332   2.336   2.348   2.352   2.355   2.358   2.365
  2.371   2.376   2.380   2.383   2.387   2.393   2.398   2.403
  2.426   2.430   2.440   2.454   2.455   2.478   2.480   2.500
  2.507   2.523   2.541   2.543   2.553   2.555   2.565   2.579
  2.592   2.595   2.602   2.618   2.619   2.632   2.639   2.653
  2.659   2.670   2.687   2.692   2.700   2.706   2.709   2.711
  2.714   2.723   2.732   2.738   2.740   2.742   2.753   2.755
  2.757   2.768   2.770   2.775   2.782   2.795   2.798   2.811
  2.822   2.830   2.834   2.842   2.843   2.850   2.859   2.865
  2.868   2.876   2.895   2.903   2.911   2.913   2.926   2.948
  2.971   2.985   2.989   2.996   3.009   3.022   3.032   3.038
  3.043   3.070   3.089   3.135   3.225   3.285   3.333   3.359
  3.360   3.364   3.381   3.387   3.498   3.539   3.547   3.560
  3.679  13.189  13.246  13.262  13.324  13.356  13.418  13.623
 13.647  13.662  13.703  13.718  13.738  13.754  13.757  13.773
 13.783  13.814  13.827  13.901  13.911  13.940  14.016  14.056
 14.073  14.096  14.178  14.180  14.187  14.195  14.216  14.218
 14.243  14.251  14.255  14.266  14.295  14.336  14.395  14.528
 14.535  14.582  14.587  14.603  14.620  19.496  19.565  19.628
 
 Beta MOs
 -- Occupied --
-14.681 -14.656 -14.653 -10.520 -10.519 -10.514 -10.504 -10.499
-10.499 -10.498 -10.497 -10.492 -10.492 -10.491 -10.489 -10.486
-10.481 -10.480 -10.477 -10.476 -10.475 -10.474 -10.470 -10.470
-10.469 -10.469 -10.469 -10.467 -10.465 -10.465 -10.464 -10.464
-10.464 -10.463 -10.462 -10.452 -10.452 -10.445 -10.445 -10.443
-10.443 -10.443 -10.441 -10.438 -10.437 -10.431 -10.426  -1.093
 -1.039  -1.024  -1.018  -1.000  -0.987  -0.961  -0.959  -0.957
 -0.937  -0.930  -0.912  -0.893  -0.890  -0.883  -0.858  -0.857
 -0.849  -0.846  -0.835  -0.820  -0.809  -0.803  -0.797  -0.773
 -0.771  -0.744  -0.729  -0.725  -0.714  -0.712  -0.702  -0.691
 -0.676  -0.673  -0.672  -0.666  -0.665  -0.644  -0.619  -0.613
 -0.612  -0.608  -0.599  -0.584  -0.578  -0.571  -0.567  -0.561
 -0.540  -0.540  -0.536  -0.532  -0.531  -0.525  -0.522  -0.520
 -0.514  -0.508  -0.507  -0.503  -0.501  -0.500  -0.495  -0.492
 -0.492  -0.490  -0.484  -0.483  -0.475  -0.470  -0.456  -0.447
 -0.444  -0.440  -0.438  -0.437  -0.436  -0.435  -0.431  -0.430
 -0.428  -0.424  -0.423  -0.420  -0.418  -0.417  -0.412  -0.411
 -0.404  -0.403  -0.398  -0.397  -0.395  -0.394  -0.390  -0.379
 -0.374  -0.365  -0.335  -0.323  -0.318  -0.313  -0.306  -0.304
 -0.298  -0.291  -0.288  -0.282  -0.231
 -- Virtual --
 -0.148  -0.062  -0.035  -0.017  -0.010  -0.005   0.001   0.015
  0.018   0.033   0.035   0.047   0.051   0.065   0.072   0.086
  0.111   0.113   0.122   0.129   0.133   0.136   0.138   0.147
  0.152   0.156   0.157   0.160   0.164   0.170   0.179   0.180
  0.182   0.188   0.192   0.193   0.195   0.197   0.199   0.203
  0.207   0.213   0.217   0.219   0.223   0.225   0.229   0.229
  0.231   0.234   0.236   0.239   0.240   0.246   0.248   0.252
  0.253   0.257   0.259   0.260   0.261   0.266   0.276   0.280
  0.280   0.283   0.287   0.293   0.294   0.299   0.302   0.308
  0.309   0.313   0.318   0.326   0.332   0.336   0.343   0.351
  0.358   0.364   0.365   0.378   0.379   0.382   0.389   0.391
  0.398   0.402   0.415   0.417   0.430   0.432   0.436   0.448
  0.456   0.459   0.465   0.469   0.475   0.480   0.483   0.486
  0.495   0.497   0.501   0.504   0.509   0.516   0.520   0.521
  0.524   0.528   0.531   0.536   0.537   0.541   0.542   0.547
  0.547   0.551   0.554   0.560   0.561   0.564   0.567   0.567
  0.573   0.575   0.579   0.580   0.584   0.589   0.593   0.595
  0.596   0.603   0.607   0.608   0.611   0.616   0.618   0.619
  0.620   0.623   0.627   0.629   0.633   0.633   0.637   0.643
  0.644   0.647   0.647   0.650   0.653   0.656   0.658   0.661
  0.666   0.668   0.671   0.674   0.681   0.685   0.686   0.689
  0.692   0.696   0.699   0.703   0.709   0.714   0.717   0.720
  0.724   0.727   0.728   0.735   0.739   0.742   0.747   0.750
  0.751   0.756   0.766   0.770   0.778   0.782   0.786   0.793
  0.797   0.801   0.803   0.818   0.820   0.829   0.833   0.841
  0.847   0.853   0.862   0.867   0.873   0.884   0.892   0.898
  0.904   0.909   0.913   0.922   0.925   0.930   0.935   0.936
  0.938   0.945   0.948   0.954   0.955   0.957   0.960   0.966
  0.971   0.975   0.975   0.980   0.985   0.986   0.991   0.995
  0.997   1.001   1.004   1.009   1.014   1.017   1.022   1.023
  1.026   1.030   1.036   1.038   1.042   1.044   1.047   1.050
  1.055   1.056   1.061   1.064   1.065   1.071   1.077   1.085
  1.086   1.091   1.091   1.098   1.102   1.110   1.111   1.117
  1.122   1.123   1.128   1.132   1.135   1.137   1.143   1.146
  1.154   1.161   1.167   1.168   1.176   1.183   1.191   1.204
  1.208   1.215   1.221   1.226   1.235   1.236   1.241   1.246
  1.252   1.263   1.267   1.276   1.287   1.291   1.300   1.304
  1.308   1.311   1.316   1.323   1.327   1.336   1.340   1.342
  1.350   1.357   1.366   1.368   1.375   1.386   1.391   1.402
  1.407   1.413   1.416   1.421   1.437   1.448   1.457   1.466
  1.480   1.489   1.490   1.497   1.506   1.513   1.515   1.518
  1.521   1.531   1.536   1.541   1.546   1.550   1.553   1.557
  1.561   1.562   1.564   1.568   1.572   1.579   1.581   1.585
  1.593   1.598   1.604   1.607   1.618   1.624   1.634   1.645
  1.650   1.662   1.666   1.683   1.685   1.702   1.721   1.724
  1.735   1.736   1.745   1.756   1.769   1.776   1.785   1.787
  1.789   1.798   1.809   1.815   1.828   1.830   1.834   1.838
  1.848   1.849   1.856   1.858   1.866   1.870   1.874   1.884
  1.884   1.891   1.895   1.906   1.920   1.926   1.931   1.935
  1.938   1.950   1.959   1.962   1.970   1.975   1.989   1.990
  1.996   2.000   2.005   2.007   2.010   2.018   2.024   2.027
  2.031   2.042   2.047   2.055   2.060   2.062   2.066   2.068
  2.079   2.081   2.090   2.102   2.107   2.112   2.128   2.133
  2.143   2.146   2.152   2.153   2.160   2.163   2.165   2.167
  2.184   2.191   2.195   2.202   2.208   2.214   2.217   2.220
  2.227   2.234   2.244   2.247   2.254   2.257   2.259   2.263
  2.267   2.273   2.279   2.286   2.291   2.294   2.307   2.307
  2.313   2.317   2.330   2.333   2.341   2.351   2.352   2.356
  2.362   2.367   2.374   2.380   2.380   2.385   2.390   2.394
  2.398   2.405   2.427   2.432   2.441   2.456   2.457   2.480
  2.484   2.501   2.509   2.524   2.542   2.550   2.555   2.556
  2.569   2.583   2.593   2.596   2.604   2.619   2.621   2.633
  2.642   2.659   2.661   2.676   2.689   2.697   2.705   2.708
  2.712   2.714   2.718   2.725   2.733   2.740   2.741   2.754
  2.754   2.756   2.758   2.769   2.772   2.776   2.783   2.796
  2.801   2.811   2.822   2.831   2.836   2.842   2.845   2.854
  2.861   2.866   2.871   2.878   2.900   2.903   2.911   2.913
  2.926   2.948   2.972   2.987   2.991   2.998   3.013   3.023
  3.032   3.038   3.043   3.071   3.089   3.137   3.226   3.285
  3.333   3.359   3.362   3.367   3.381   3.388   3.498   3.542
  3.547   3.560   3.679  13.191  13.246  13.264  13.324  13.357
 13.421  13.624  13.653  13.662  13.703  13.718  13.738  13.754
 13.757  13.773  13.783  13.814  13.827  13.906  13.911  13.944
 14.019  14.057  14.074  14.097  14.178  14.181  14.188  14.196
 14.216  14.221  14.243  14.252  14.255  14.266  14.298  14.338
 14.395  14.531  14.538  14.583  14.587  14.603  14.620  19.496
 19.565  19.628
 --------------------------------------------------------------
 
          Ground-State Mulliken Net Atomic Charges

     Atom                 Charge (a.u.)    Spin (a.u.)
  --------------------------------------------------------
      1 N                    -0.702207      -0.000017
      2 C                     0.314256       0.000169
      3 C                    -0.301662      -0.000421
      4 H                     0.260381      -0.000035
      5 C                    -0.230470       0.000453
      6 H                     0.215568       0.000051
      7 C                    -0.220430      -0.000116
      8 H                     0.210974       0.000003
      9 C                    -0.321554       0.000119
     10 H                     0.213247      -0.000002
     11 C                     0.152031      -0.000105
     12 C                     0.308639       0.000072
     13 C                    -0.280659      -0.000092
     14 H                     0.241086       0.000051
     15 C                    -0.236134       0.000090
     16 H                     0.214657      -0.000008
     17 C                    -0.217508      -0.000069
     18 H                     0.212843       0.000005
     19 C                    -0.325538       0.000103
     20 H                     0.212703      -0.000007
     21 C                     0.172443      -0.000078
     22 C                     0.218012      -0.000955
     23 C                    -0.282963      -0.000839
     24 H                     0.285476      -0.001237
     25 C                    -0.240003       0.003978
     26 H                     0.235587      -0.000184
     27 C                    -0.300632       0.001644
     28 H                     0.218714      -0.000021
     29 C                     0.228562       0.020195
     30 C                     0.048518       0.001621
     31 C                    -0.516717       0.000194
     32 H                     0.245973      -0.000037
     33 H                     0.253779       0.000041
     34 C                    -0.229743       0.000009
     35 C                    -0.546034       0.000302
     36 H                     0.253494      -0.000012
     37 H                     0.258747       0.000136
     38 C                     0.113121       0.003582
     39 C                    -0.323442       0.001394
     40 H                     0.245116       0.000022
     41 C                     0.077399       0.007793
     42 C                     0.095747      -0.005859
     43 C                    -0.304950       0.017263
     44 H                     0.281849      -0.002921
     45 C                     0.217963       0.020567
     46 C                    -0.007792      -0.002423
     47 N                    -0.154598       0.003398
     48 C                    -0.008777       0.001449
     49 N                    -0.155553      -0.001545
     50 C                    -0.664959      -0.000001
     51 H                     0.227790      -0.000000
     52 H                     0.227851       0.000000
     53 H                     0.239486      -0.000000
     54 C                    -0.402906      -0.074107
     55 C                     0.016124       0.376634
     56 C                    -0.261546      -0.242697
     57 H                     0.224342       0.010593
     58 C                    -0.239782       0.597921
     59 H                     0.232479      -0.035561
     60 C                    -0.201868      -0.199901
     61 H                     0.232297       0.007939
     62 C                    -0.305919       0.320230
     63 H                     0.216515      -0.020966
     64 C                     0.141713       0.152159
     65 C                     0.101724       0.209769
     66 C                    -0.295205       0.315428
     67 H                     0.215269      -0.020811
     68 C                    -0.208462      -0.190846
     69 H                     0.230740       0.007259
     70 C                    -0.237157       0.619538
     71 H                     0.231497      -0.037138
     72 C                    -0.289286      -0.243157
     73 H                     0.219762       0.010757
     74 C                     0.170487       0.369248
     75 C                    -0.593592      -0.000005
     76 H                     0.232646       0.000000
     77 H                     0.219433      -0.000001
     78 H                     0.221009      -0.000000
  --------------------------------------------------------
  Sum of atomic charges =    -0.000000
  Sum of spin   charges =     2.000000

 -----------------------------------------------------------------
                    Cartesian Multipole Moments
 -----------------------------------------------------------------
    Charge (ESU x 10^10)
                -0.0000
    Dipole Moment (Debye)
         X      -5.5825      Y      -5.0954      Z       1.7994
       Tot       7.7696
    Quadrupole Moments (Debye-Ang)
        XX    -352.0833     XY     -67.4276     YY    -295.0949
        XZ      27.5393     YZ      20.1561     ZZ    -258.1740
    Octopole Moments (Debye-Ang^2)
       XXX   -3405.3279    XXY   -1140.3808    XYY   -1103.1529
       YYY   -1508.7607    XXZ     437.9325    XYZ     216.4100
       YYZ     169.3759    XZZ    -775.0733    YZZ    -454.0617
       ZZZ     305.2505
    Hexadecapole Moments (Debye-Ang^3)
      XXXX  -48504.5633   XXXY  -13680.3251   XXYY  -11430.7760
      XYYY   -8984.3724   YYYY  -12501.3753   XXXZ    6979.8934
      XXYZ    2348.4499   XYYZ    2078.0891   YYYZ    1945.1376
      XXZZ   -7797.8533   XYZZ   -2667.8570   YYZZ   -3168.6131
      XZZZ    3512.6378   YZZZ    1412.5176   ZZZZ   -6796.3614
 -----------------------------------------------------------------
 Calculating analytic gradient of the SCF energy
 -1.347076501664554E-003 -1.347048213742847E-003
 -1.347060992994431E-003 -1.347063723297906E-003
 -1.347069066755583E-003 -1.347055638633034E-003
 -1.347099585386923E-003 -1.347025113562151E-003
 -1.347066731686233E-003 -1.347058018213871E-003
 -1.347054691455228E-003 -1.347070005049529E-003
 -1.347060805443213E-003 -1.347063905085350E-003
 -1.347050152159281E-003 -1.347074595250164E-003
 -1.347046853232343E-003 -1.347077842106709E-003
 -1.347069095211817E-003 -1.347055612979281E-003
 -1.347037449051689E-003 -1.347087283252945E-003
 -1.347050940396763E-003 -1.347073769264439E-003
 -1.347080402781031E-003 -1.347044283599029E-003
 -1.347059522224390E-003 -1.347065224843355E-003
 -1.347047853492294E-003 -1.347076864461780E-003
 -1.347062947991797E-003 -1.347061760622660E-003
 -1.347061517258662E-003 -1.347063200953290E-003
 -1.347039967472813E-003 -1.347084729785385E-003
 -1.347051478268094E-003 -1.347073242552039E-003
 -1.347074750161803E-003 -1.347050008214854E-003
 -1.347031375537959E-003 -1.347093323106594E-003
 -1.347068436253984E-003 -1.347056282574552E-003
 -1.347079392022483E-003 -1.347045345167721E-003
 -1.347052071626623E-003 -1.347072662577965E-003
 -1.347093833156507E-003 -1.347030883156346E-003
 -1.347079566869241E-003 -1.347045201016396E-003
 -1.347048291846992E-003 -1.347076430560801E-003
 -1.347052710947015E-003 -1.347072011755996E-003
 -1.347082722136719E-003 -1.347042029007489E-003
 -1.347054957326114E-003 -1.347069774916855E-003
 -1.347068330053719E-003 -1.347056400146886E-003
 -1.347081097925569E-003 -1.347043665949389E-003
 -1.347071967226290E-003 -1.347052728126372E-003
 -1.347088867650973E-003 -1.347035850257932E-003
 -1.347078587087064E-003 -1.347046140650831E-003
 -1.347042716503977E-003 -1.347081990412319E-003
 -1.347083014747609E-003 -1.347041707837474E-003
 -1.347051667747211E-003 -1.347073053907952E-003
 -1.347080756583338E-003 -1.347043942926561E-003
 -1.347071487259078E-003 -1.347053233218378E-003
 -1.347053440036634E-003 -1.347071284179251E-003
 -1.347054722503947E-003 -1.347069970456668E-003
 -1.347075230645093E-003 -1.347049482317384E-003
 -1.347070919972458E-003 -1.347053806887972E-003
 -1.347058175043156E-003 -1.347066540285647E-003
 -1.347083906344823E-003 -1.347040783703679E-003
 -1.347057237235491E-003 -1.347067474816892E-003
 -1.347078669627901E-003 -1.347046058886406E-003
 -1.347083911244851E-003 -1.347040827649957E-003
 -1.347054023830371E-003 -1.347070697614223E-003
 -1.347099402392967E-003 -1.347025314357590E-003
 -1.347070664502089E-003 -1.347054086895603E-003
 -1.347071838511816E-003 -1.347052878505848E-003
 -1.347069951516180E-003 -1.347054779064212E-003
 -1.347083763960865E-003 -1.347040967622581E-003
 -1.347082461577034E-003 -1.347042281630198E-003
 -1.347048494796654E-003 -1.347076205150126E-003
 -1.347066173264400E-003 -1.347058558182678E-003
 -1.347069323758468E-003 -1.347055416516865E-003
 -1.347082922044888E-003 -1.347041782872106E-003
 -1.347062054635091E-003 -1.347062684202583E-003
 -1.347073349106170E-003 -1.347051388558052E-003
 -1.347075236979804E-003 -1.347049465755891E-003
 -1.347060618711142E-003 -1.347064102648965E-003
 -1.347046367191265E-003 -1.347078344523956E-003
 -1.347063292006593E-003 -1.347061432522653E-003
 -1.347051686532673E-003 -1.347073014890781E-003
 -1.347079911858127E-003 -1.347044804598231E-003
 -1.347070621978299E-003 -1.347054104201426E-003
 -1.347056555125495E-003 -1.347068139625675E-003
 -1.347077703032598E-003 -1.347046976441765E-003
 -1.347069039835727E-003 -1.347055657725078E-003
 -1.347056701594561E-003 -1.347068005258494E-003
 -1.347074010651357E-003 -1.347050703805476E-003
 -1.347079143038427E-003 -1.347045600975890E-003
 -1.347057587419228E-003 -1.347067135428852E-003
 -1.347065132708642E-003 -1.347059581681528E-003
 -1.347076608849143E-003 -1.347048119440912E-003
 -1.347052731172292E-003 -1.347071998136625E-003
 -1.347072555637474E-003 -1.347052166445479E-003
 -1.347072264942460E-003 -1.347052482668189E-003
 -1.347058891381455E-003 -1.347065818558454E-003
 -1.347076387412703E-003 -1.347048332901210E-003
 -1.347076689212633E-003 -1.347048043778571E-003
 -1.347059729357276E-003 -1.347064991939701E-003
 -1.347072372125063E-003 -1.347052349811329E-003
 -1.347056705610774E-003 -1.347068032849755E-003
 -1.347045487782948E-003 -1.347079228569172E-003
 -1.347077242230700E-003 -1.347047482145849E-003
 -1.347070116825559E-003 -1.347054627405613E-003
 -1.347077081116383E-003 -1.347047625174761E-003
 -1.347070949113226E-003 -1.347053748373895E-003
 -1.347051833866282E-003 -1.347072894020107E-003
 -1.347057639623720E-003 -1.347067058179056E-003
 -1.347080777639642E-003 -1.347043948613971E-003
 -1.347077734999601E-003 -1.347046985698768E-003
 -1.347049242031978E-003 -1.347075458236478E-003
 -1.347085182661215E-003 -1.347039509329881E-003
 -1.347060612394854E-003 -1.347064072411252E-003
 -1.347065319519375E-003 -1.347059400191348E-003
 -1.347059567729532E-003 -1.347065172269572E-003
 -1.347052169636708E-003 -1.347072528679277E-003
 -1.347046172858529E-003 -1.347078539512076E-003
 -1.347071885059885E-003 -1.347052811127546E-003
 -1.347080453860547E-003 -1.347044280586947E-003
 -1.347055506988829E-003 -1.347069229330323E-003
 -1.347065626912343E-003 -1.347059083704126E-003
 -1.347073162736140E-003 -1.347051563814685E-003
 -1.347061901756118E-003 -1.347062793628568E-003
 -1.347064643444265E-003 -1.347060043094341E-003
 -1.347083826430535E-003 -1.347040864208900E-003
 -1.347036943592542E-003 -1.347087766638628E-003
 -1.347042618459762E-003 -1.347082091789382E-003
 -1.347074028090886E-003 -1.347050727102570E-003
 -1.347073927269534E-003 -1.347050818646312E-003
 -1.347071630580096E-003 -1.347053049991022E-003
 -1.347063404662488E-003 -1.347061361012706E-003
 -1.347049002048410E-003 -1.347075731299114E-003
 -1.347057553547730E-003 -1.347067131109989E-003
 -1.347075752306008E-003 -1.347048982915561E-003
 -1.347023892756623E-003 -1.347100812115322E-003
 -1.347056751711341E-003 -1.347067964514515E-003
 -1.347078821322932E-003 -1.347045931077918E-003
 -1.347072903169298E-003 -1.347051823168654E-003
[...]
  0.212   0.213   0.221   0.222   0.223   0.225   0.227   0.231
  0.235   0.238   0.240   0.244   0.246   0.251   0.252   0.255
  0.256   0.259   0.261   0.264   0.273   0.275   0.275   0.282
  0.288   0.291   0.293   0.296   0.299   0.302   0.310   0.314
  0.316   0.327   0.331   0.333   0.340   0.351   0.358   0.362
  0.363   0.366   0.374   0.377   0.383   0.389   0.397   0.399
  0.405   0.414   0.429   0.431   0.433   0.446   0.455   0.461
  0.464   0.467   0.472   0.479   0.481   0.488   0.491   0.497
  0.498   0.502   0.507   0.512   0.515   0.522   0.523   0.529
  0.531   0.533   0.537   0.538   0.540   0.543   0.544   0.549
  0.550   0.551   0.559   0.561   0.564   0.567   0.568   0.570
  0.574   0.578   0.584   0.585   0.587   0.589   0.599   0.601
  0.604   0.606   0.608   0.611   0.612   0.616   0.619   0.621
  0.624   0.629   0.631   0.635   0.637   0.639   0.642   0.642
  0.645   0.647   0.649   0.650   0.655   0.659   0.666   0.667
  0.676   0.676   0.681   0.684   0.686   0.687   0.693   0.696
  0.697   0.705   0.710   0.715   0.716   0.719   0.725   0.728
  0.730   0.735   0.737   0.739   0.741   0.743   0.749   0.759
  0.761   0.768   0.773   0.774   0.781   0.787   0.795   0.797
  0.803   0.816   0.818   0.822   0.825   0.832   0.836   0.847
  0.858   0.867   0.873   0.880   0.891   0.894   0.904   0.906
  0.910   0.914   0.918   0.924   0.928   0.938   0.940   0.942
  0.947   0.947   0.952   0.954   0.961   0.963   0.970   0.972
  0.974   0.979   0.981   0.988   0.990   0.993   0.998   1.000
  1.004   1.008   1.008   1.014   1.020   1.023   1.026   1.029
  1.036   1.038   1.044   1.048   1.052   1.054   1.057   1.058
  1.061   1.068   1.072   1.076   1.080   1.082   1.086   1.091
  1.094   1.096   1.102   1.108   1.111   1.116   1.121   1.128
  1.129   1.133   1.137   1.142   1.146   1.156   1.157   1.163
  1.167   1.167   1.178   1.182   1.190   1.198   1.202   1.210
  1.218   1.232   1.240   1.243   1.252   1.256   1.260   1.263
  1.271   1.280   1.286   1.288   1.294   1.300   1.303   1.312
  1.318   1.319   1.325   1.329   1.339   1.342   1.350   1.352
  1.358   1.368   1.371   1.379   1.382   1.390   1.394   1.412
  1.413   1.424   1.433   1.446   1.448   1.457   1.475   1.489
  1.497   1.498   1.499   1.507   1.515   1.519   1.521   1.525
  1.528   1.534   1.537   1.541   1.549   1.552   1.555   1.559
  1.565   1.570   1.573   1.579   1.580   1.584   1.587   1.596
  1.601   1.608   1.612   1.620   1.629   1.642   1.646   1.657
  1.668   1.677   1.689   1.699   1.710   1.722   1.733   1.737
  1.747   1.759   1.763   1.772   1.777   1.784   1.798   1.800
  1.804   1.809   1.824   1.827   1.833   1.839   1.842   1.845
  1.852   1.853   1.865   1.868   1.875   1.880   1.886   1.888
  1.898   1.899   1.921   1.922   1.928   1.941   1.948   1.949
  1.957   1.966   1.971   1.979   1.988   1.990   1.997   2.001
  2.004   2.007   2.013   2.020   2.025   2.026   2.035   2.043
  2.044   2.049   2.057   2.062   2.066   2.067   2.078   2.082
  2.091   2.098   2.100   2.110   2.130   2.137   2.143   2.144
  2.149   2.152   2.157   2.165   2.166   2.175   2.179   2.186
  2.194   2.200   2.203   2.209   2.216   2.219   2.223   2.232
  2.236   2.239   2.241   2.248   2.253   2.261   2.262   2.269
  2.276   2.285   2.290   2.296   2.302   2.308   2.314   2.316
  2.324   2.333   2.341   2.348   2.355   2.356   2.359   2.364
  2.373   2.377   2.379   2.383   2.386   2.393   2.394   2.399
  2.423   2.431   2.436   2.464   2.472   2.478   2.485   2.502
  2.513   2.524   2.529   2.538   2.547   2.557   2.575   2.581
  2.591   2.596   2.604   2.617   2.625   2.628   2.636   2.652
  2.666   2.669   2.688   2.698   2.700   2.706   2.713   2.716
  2.722   2.724   2.733   2.739   2.742   2.744   2.749   2.756
  2.758   2.769   2.771   2.776   2.785   2.799   2.802   2.812
  2.821   2.833   2.835   2.843   2.848   2.853   2.863   2.865
  2.872   2.877   2.882   2.903   2.908   2.919   2.930   2.947
  2.981   2.989   2.993   2.995   3.002   3.006   3.030   3.034
  3.043   3.074   3.092   3.155   3.231   3.274   3.327   3.356
  3.357   3.367   3.381   3.394   3.502   3.535   3.545   3.561
  3.677  13.198  13.247  13.265  13.325  13.364  13.424  13.631
 13.655  13.660  13.698  13.723  13.728  13.752  13.758  13.771
 13.778  13.816  13.825  13.911  13.914  13.932  14.019  14.032
 14.061  14.082  14.180  14.181  14.189  14.197  14.218  14.227
 14.242  14.249  14.259  14.277  14.306  14.332  14.397  14.528
 14.531  14.580  14.588  14.604  14.626  19.495  19.564  19.628
 
 Beta MOs
 -- Occupied --
-14.678 -14.657 -14.654 -10.522 -10.521 -10.512 -10.505 -10.501
-10.500 -10.498 -10.497 -10.494 -10.492 -10.490 -10.490 -10.485
-10.479 -10.479 -10.477 -10.476 -10.475 -10.474 -10.470 -10.469
-10.469 -10.468 -10.468 -10.468 -10.465 -10.465 -10.464 -10.464
-10.463 -10.462 -10.462 -10.451 -10.451 -10.445 -10.444 -10.443
-10.442 -10.442 -10.440 -10.438 -10.437 -10.431 -10.426  -1.092
 -1.041  -1.026  -1.019  -1.001  -0.986  -0.960  -0.958  -0.956
 -0.937  -0.930  -0.911  -0.895  -0.890  -0.883  -0.858  -0.857
 -0.849  -0.846  -0.834  -0.819  -0.810  -0.801  -0.796  -0.773
 -0.772  -0.745  -0.729  -0.725  -0.715  -0.710  -0.702  -0.691
 -0.676  -0.673  -0.672  -0.666  -0.664  -0.644  -0.619  -0.613
 -0.612  -0.609  -0.598  -0.585  -0.580  -0.572  -0.567  -0.560
 -0.540  -0.539  -0.537  -0.533  -0.530  -0.525  -0.521  -0.518
 -0.515  -0.508  -0.504  -0.502  -0.501  -0.500  -0.497  -0.492
 -0.491  -0.490  -0.485  -0.483  -0.473  -0.469  -0.457  -0.447
 -0.443  -0.440  -0.439  -0.437  -0.436  -0.436  -0.432  -0.429
 -0.427  -0.425  -0.424  -0.422  -0.418  -0.416  -0.413  -0.410
 -0.404  -0.402  -0.399  -0.398  -0.396  -0.395  -0.389  -0.379
 -0.374  -0.362  -0.338  -0.324  -0.320  -0.313  -0.306  -0.303
 -0.298  -0.290  -0.287  -0.280  -0.231
 -- Virtual --
 -0.146  -0.060  -0.037  -0.023  -0.012  -0.005   0.007   0.015
  0.020   0.034   0.037   0.047   0.050   0.066   0.070   0.084
  0.111   0.112   0.120   0.129   0.130   0.135   0.138   0.148
  0.150   0.154   0.156   0.160   0.162   0.163   0.176   0.181
  0.182   0.186   0.193   0.194   0.195   0.197   0.199   0.202
  0.208   0.212   0.213   0.221   0.222   0.223   0.228   0.229
  0.231   0.236   0.238   0.238   0.241   0.246   0.247   0.252
  0.253   0.255   0.257   0.260   0.263   0.267   0.275   0.277
  0.280   0.282   0.289   0.292   0.295   0.297   0.302   0.306
  0.311   0.314   0.317   0.329   0.332   0.334   0.342   0.352
  0.359   0.363   0.364   0.367   0.375   0.379   0.384   0.389
  0.398   0.401   0.410   0.415   0.430   0.432   0.437   0.448
  0.456   0.462   0.467   0.468   0.473   0.480   0.484   0.490
  0.494   0.499   0.501   0.504   0.508   0.516   0.517   0.524
  0.528   0.531   0.532   0.535   0.537   0.541   0.543   0.545
  0.546   0.552   0.554   0.555   0.562   0.564   0.566   0.569
  0.570   0.573   0.580   0.585   0.588   0.589   0.594   0.599
  0.602   0.605   0.606   0.609   0.612   0.616   0.618   0.619
  0.621   0.625   0.628   0.631   0.632   0.636   0.638   0.642
  0.643   0.646   0.650   0.651   0.651   0.653   0.657   0.664
  0.668   0.669   0.677   0.679   0.682   0.686   0.688   0.691
  0.695   0.697   0.698   0.708   0.712   0.717   0.717   0.720
  0.726   0.731   0.732   0.737   0.740   0.741   0.744   0.745
  0.750   0.762   0.762   0.774   0.776   0.778   0.783   0.788
  0.798   0.801   0.806   0.818   0.820   0.822   0.827   0.836
  0.837   0.848   0.860   0.869   0.875   0.882   0.894   0.896
  0.906   0.907   0.912   0.917   0.920   0.926   0.928   0.939
  0.942   0.944   0.947   0.948   0.952   0.954   0.963   0.965
  0.970   0.973   0.975   0.980   0.982   0.990   0.992   0.994
  0.999   1.002   1.005   1.009   1.012   1.015   1.022   1.024
  1.026   1.030   1.038   1.039   1.044   1.051   1.053   1.055
  1.059   1.061   1.067   1.070   1.075   1.077   1.082   1.083
  1.088   1.091   1.095   1.097   1.104   1.110   1.112   1.117
  1.122   1.128   1.130   1.135   1.139   1.144   1.148   1.157
  1.158   1.163   1.168   1.169   1.179   1.183   1.192   1.199
  1.203   1.211   1.221   1.233   1.240   1.246   1.253   1.257
  1.261   1.267   1.272   1.282   1.287   1.291   1.299   1.304
  1.307   1.314   1.320   1.321   1.328   1.336   1.340   1.347
  1.352   1.354   1.362   1.372   1.378   1.382   1.384   1.392
  1.400   1.413   1.415   1.426   1.434   1.447   1.448   1.459
  1.476   1.494   1.498   1.502   1.508   1.513   1.519   1.522
  1.527   1.530   1.535   1.539   1.543   1.547   1.551   1.556
  1.557   1.561   1.566   1.571   1.575   1.580   1.582   1.588
  1.591   1.598   1.603   1.612   1.614   1.623   1.631   1.644
  1.647   1.658   1.668   1.678   1.689   1.700   1.715   1.723
  1.734   1.739   1.749   1.761   1.764   1.774   1.778   1.786
  1.801   1.802   1.806   1.810   1.825   1.829   1.835   1.841
  1.846   1.847   1.853   1.857   1.866   1.868   1.877   1.880
  1.888   1.890   1.900   1.902   1.922   1.924   1.929   1.941
  1.949   1.950   1.960   1.967   1.973   1.981   1.989   1.992
  1.998   2.002   2.004   2.008   2.014   2.020   2.026   2.026
  2.035   2.043   2.049   2.053   2.059   2.066   2.067   2.070
  2.079   2.084   2.095   2.101   2.109   2.114   2.130   2.140
  2.144   2.145   2.151   2.159   2.160   2.165   2.167   2.177
  2.185   2.188   2.195   2.202   2.208   2.214   2.217   2.226
  2.228   2.237   2.240   2.245   2.250   2.253   2.260   2.263
  2.266   2.272   2.281   2.287   2.294   2.297   2.303   2.311
  2.316   2.317   2.326   2.335   2.347   2.350   2.356   2.359
  2.361   2.367   2.375   2.379   2.381   2.385   2.387   2.393
  2.396   2.402   2.423   2.433   2.437   2.465   2.473   2.480
  2.491   2.502   2.514   2.526   2.532   2.544   2.549   2.559
  2.579   2.587   2.592   2.598   2.605   2.618   2.625   2.630
  2.638   2.654   2.673   2.676   2.690   2.702   2.705   2.710
  2.715   2.718   2.723   2.728   2.737   2.740   2.744   2.750
  2.753   2.756   2.759   2.771   2.774   2.777   2.785   2.800
  2.806   2.813   2.822   2.834   2.836   2.844   2.849   2.856
  2.865   2.869   2.873   2.881   2.884   2.903   2.908   2.919
  2.931   2.947   2.982   2.990   2.995   2.996   3.005   3.011
  3.030   3.034   3.043   3.075   3.093   3.157   3.231   3.274
  3.327   3.357   3.359   3.371   3.381   3.394   3.502   3.538
  3.545   3.561   3.678  13.200  13.248  13.267  13.325  13.364
 13.428  13.631  13.659  13.661  13.698  13.724  13.729  13.752
 13.758  13.771  13.778  13.816  13.825  13.911  13.918  13.937
 14.021  14.035  14.061  14.082  14.180  14.184  14.189  14.197
 14.218  14.229  14.242  14.249  14.259  14.278  14.306  14.336
 14.397  14.532  14.534  14.580  14.588  14.604  14.626  19.495
 19.564  19.628
 --------------------------------------------------------------
 
          Ground-State Mulliken Net Atomic Charges

     Atom                 Charge (a.u.)    Spin (a.u.)
  --------------------------------------------------------
      1 N                    -0.707993       0.000581
      2 C                     0.314354      -0.000172
      3 C                    -0.284346       0.000202
      4 H                     0.239695       0.000048
      5 C                    -0.236457      -0.000121
      6 H                     0.214370       0.000005
      7 C                    -0.217458       0.000238
      8 H                     0.212384      -0.000013
      9 C                    -0.327924      -0.000093
     10 H                     0.213372       0.000003
     11 C                     0.167743       0.000182
     12 C                     0.310325       0.000054
     13 C                    -0.292192       0.000083
     14 H                     0.261377      -0.000651
     15 C                    -0.233705       0.000275
     16 H                     0.218060      -0.000138
     17 C                    -0.219502      -0.000030
     18 H                     0.210118      -0.000009
     19 C                    -0.326044       0.000309
     20 H                     0.212705      -0.000016
     21 C                     0.159982       0.000069
     22 C                     0.228982      -0.005890
     23 C                    -0.297056       0.010059
     24 H                     0.284657      -0.001940
     25 C                    -0.237026       0.010410
     26 H                     0.233054      -0.000522
     27 C                    -0.303466      -0.002335
     28 H                     0.218269       0.000274
     29 C                     0.205954       0.019660
     30 C                     0.079540       0.007123
     31 C                    -0.528446      -0.000182
     32 H                     0.250130      -0.000005
     33 H                     0.248196       0.000254
     34 C                    -0.226206      -0.000025
     35 C                    -0.528623       0.000033
     36 H                     0.249332      -0.000008
     37 H                     0.257868       0.000127
     38 C                     0.084896       0.004416
     39 C                    -0.322176      -0.001132
     40 H                     0.247239       0.000132
     41 C                     0.079650       0.005551
     42 C                     0.079035      -0.000149
     43 C                    -0.279546      -0.002392
     44 H                     0.277956      -0.001142
     45 C                     0.241401       0.019564
     46 C                    -0.006546      -0.001876
     47 N                    -0.154124       0.002504
     48 C                    -0.009536      -0.000138
     49 N                    -0.153939       0.000186
     50 C                    -0.665169       0.000002
     51 H                     0.228165      -0.000000
     52 H                     0.227848      -0.000000
     53 H                     0.238453      -0.000000
     54 C                    -0.418374      -0.076070
     55 C                     0.124494       0.370252
     56 C                    -0.274537      -0.240100
     57 H                     0.218763       0.010492
     58 C                    -0.244297       0.618206
     59 H                     0.232651      -0.036917
     60 C                    -0.210539      -0.206589
     61 H                     0.231531       0.008123
     62 C                    -0.299695       0.332122
     63 H                     0.216447      -0.021698
     64 C                     0.107749       0.172347
     65 C                     0.120141       0.171050
     66 C                    -0.301285       0.326092
     67 H                     0.216512      -0.021363
     68 C                    -0.200282      -0.203753
     69 H                     0.231424       0.008030
     70 C                    -0.240101       0.619732
     71 H                     0.231960      -0.036902
     72 C                    -0.272438      -0.242774
     73 H                     0.217509       0.010652
     74 C                     0.097561       0.375698
     75 C                    -0.596166      -0.000004
     76 H                     0.232596       0.000001
     77 H                     0.221024       0.000001
     78 H                     0.219718       0.000002
  --------------------------------------------------------
  Sum of atomic charges =    -0.000000
  Sum of spin   charges =     2.000000

 -----------------------------------------------------------------
                    Cartesian Multipole Moments
 -----------------------------------------------------------------
    Charge (ESU x 10^10)
                -0.0000
    Dipole Moment (Debye)
         X      -5.9785      Y      -4.8466      Z       0.7349
       Tot       7.7313
    Quadrupole Moments (Debye-Ang)
        XX    -358.7981     XY     -67.6599     YY    -291.7443
        XZ      19.3960     YZ      13.7208     ZZ    -257.1594
    Octopole Moments (Debye-Ang^2)
       XXX   -3511.6040    XXY   -1138.5147    XYY   -1119.3922
       YYY   -1476.9749    XXZ     387.3098    XYZ     173.9435
       YYZ     132.0922    XZZ    -751.4925    YZZ    -456.6425
       ZZZ     237.7194
    Hexadecapole Moments (Debye-Ang^3)
      XXXX  -49455.5884   XXXY  -13576.1621   XXYY  -11400.6697
      XYYY   -8813.5495   YYYY  -13392.9858   XXXZ    7162.0372
      XXYZ    2221.9154   XYYZ    2029.8848   YYYZ    2161.8755
      XXZZ   -7418.7337   XYZZ   -2417.6424   YYZZ   -3079.4554
      XZZZ    3810.3161   YZZZ    1681.5206   ZZZZ   -6429.0379
 -----------------------------------------------------------------
Archival summary:
1\1\ctcp044\OPT\ProcedureUnspecified\BasisUnspecified\34431(3)\mewes\TueJan820:56:352019TueJan820:56:352019\0\\#,OPT,ProcedureUnspecified,BasisUnspecified,\\0,3\N\C,1,1.39762\C,2,1.39317,1,121.415\H,3,1.08128,2,120.331,1,-1.43894,0\C,3,1.38429,2,120.013,1,177.963,0\H,5,1.0821,3,119.343,2,-179.989,0\C,5,1.38391,3,120.283,2,-0.813148,0\H,7,1.08161,5,120.593,3,-179.17,0\C,7,1.38688,5,119.364,3,1.67123,0\H,9,1.08154,7,118.627,5,178.667,0\C,9,1.38711,7,121.611,5,-0.094646,0\C,1,1.40163,2,118.842,3,-149.785,0\C,12,1.39445,1,122.193,2,151.02,0\H,13,1.08074,12,121.186,1,2.21138,0\C,13,1.38436,12,120.186,1,-177.486,0\H,15,1.08198,13,118.819,12,179.472,0\C,15,1.38328,13,120.448,12,0.317512,0\H,17,1.08167,15,120.741,13,179.08,0\C,17,1.38657,15,119.139,13,-1.97421,0\H,19,1.08125,17,118.665,15,-178.154,0\C,19,1.38747,17,121.694,15,0.560445,0\C,1,1.41538,2,119.526,3,12.1414,0\C,22,1.38114,1,120.112,2,-90.1027,0\H,23,1.08097,22,116.846,1,2.70385,0\C,22,1.38413,1,120.293,2,92.4654,0\H,25,1.08211,22,120.241,1,-2.70267,0\C,25,1.382,22,118.688,1,177.429,0\H,27,1.08332,25,119.137,22,178.135,0\C,27,1.39374,25,122.244,22,-2.77599,0\C,23,1.3947,22,122.295,1,-173.621,0\C,29,1.49931,27,118.244,25,178.447,0\H,31,1.09108,29,108.616,27,-8.12607,0\H,31,1.09462,29,111.635,27,108.144,0\C,11,1.51792,9,123.789,7,172.997,0\C,34,1.52496,11,112.37,9,19.0321,0\H,35,1.08967,34,110.889,11,-177.957,0\H,35,1.08978,34,110.862,11,-60.5235,0\H,35,1.09047,34,112.164,11,60.8001,0\C,31,1.52853,29,111.533,27,-128.748,0\H,39,1.09094,31,109.756,29,151.738,0\H,39,1.09361,31,109.332,29,35.7498,0\C,39,1.49914,31,111.975,29,-87.708,0\C,42,1.39373,39,117.547,31,-126.927,0\H,43,1.08241,42,119.031,39,-3.00299,0\C,43,1.38295,42,122.38,39,176.307,0\C,42,1.39611,39,123.229,31,49.6358,0\C,46,1.39703,42,118.222,39,-175.527,0\H,47,1.08188,46,119.694,42,179.798,0\C,47,1.3826,46,122.454,42,-0.716151,0\C,45,1.4252,43,119.782,42,-179.817,0\N,50,1.15088,45,178.659,43,-0.55158,0\C,49,1.42574,47,119.607,46,179.852,0\N,52,1.15074,49,179.077,47,-3.54433,0\C,46,1.52859,42,127.441,39,8.36092,0\C,54,1.52298,46,106.932,42,114.956,0\C,55,1.35589,54,128.455,46,-64.4801,0\H,56,1.0834,55,120.92,54,2.84721,0\C,56,1.41232,55,119.047,54,-176.072,0\H,58,1.08038,56,119.953,55,179.489,0\C,58,1.42126,56,120.457,55,0.394285,0\H,60,1.082,58,118.549,56,179.197,0\C,60,1.35937,58,121.892,56,-0.683259,0\H,62,1.08128,60,121.114,58,179.728,0\C,62,1.44303,60,118.666,58,0.247659,0\C,64,1.36404,62,131.796,60,177.404,0\C,65,1.44467,64,131.921,62,0.334283,0\H,66,1.08135,65,120.225,64,-0.64882,0\C,66,1.35997,65,118.79,64,179.856,0\H,68,1.08244,66,119.529,65,-179.787,0\C,68,1.42082,66,121.833,65,0.439744,0\H,70,1.08052,68,119.694,66,-179.979,0\C,70,1.4132,68,120.369,66,0.601295,0\H,72,1.08354,70,119.814,68,178.272,0\C,72,1.35737,70,119.194,68,-0.878501,0\C,34,1.54407,11,108.366,9,-99.9391,0\H,75,1.08924,34,111.955,11,-58.3471,0\H,75,1.09145,34,110.432,11,61.8962,0\H,75,1.09165,34,110.375,11,-178.263,0\\\@

 Total job time:  30293.72s(wall), 86461.26s(cpu) 
 Tue Jan  8 20:56:35 2019

        *************************************************************
        *                                                           *
        *  Thank you very much for using Q-Chem.  Have a nice day.  *
        *                                                           *
        *************************************************************


0 sent ACK to 0 
now end server 0 ... 
