mFile = /cm/shared/apps/q-chem/intel/QCHEM_5.1.0_Trunk/bin/mpi/machines
Process 0 of 1 is on ctcp006 - thread support 0
initial socket setup ...start
initial socket setup ...done 
now start server 0 ... 
Q-Chem Developer Version!
                  Welcome to Q-Chem
     A Quantum Leap Into The Future Of Chemistry


 Q-Chem 5.1, Q-Chem, Inc., Pleasanton, CA (2018)

 Yihan Shao,  Zhengting Gan,  E. Epifanovsky,  A. T. B. Gilbert,  M. Wormit,  
 J. Kussmann,  A. W. Lange,  A. Behn,  Jia Deng,  Xintian Feng,  D. Ghosh,  
 M. Goldey,  P. R. Horn,  L. D. Jacobson,  I. Kaliman,  T. Kus,  A. Landau,  
 Jie Liu,  E. I. Proynov,  R. M. Richard,  R. P. Steele,  E. J. Sundstrom,  
 H. L. Woodcock III,  P. M. Zimmerman,  D. Zuev,  B. Albrecht,  E. Alguire,  
 S. A. Baeppler,  D. Barton,  Z. Benda,  Y. A. Bernard,  E. J. Berquist,  
 K. B. Bravaya,  H. Burton,  D. Casanova,  Chun-Min Chang,  Yunqing Chen,  
 A. Chien,  K. D. Closser,  M. P. Coons,  S. Coriani,  S. Dasgupta,  
 A. L. Dempwolff,  M. Diedenhofen,  Hainam Do,  R. G. Edgar,  Po-Tung Fang,  
 S. Faraji,  S. Fatehi,  Qingguo Feng,  K. D. Fenk,  J. Fosso-Tande,  
 Qinghui Ge,  A. Ghysels,  G. Gidofalvi,  J. Gomes,  J. Gonthier,  A. Gunina,  
 D. Hait,  M. W. D. Hanson-Heine,  P. H. P. Harbach,  A. W. Hauser,  
 J. E. Herr,  E. G. Hohenstein,  Z. C. Holden,  Kerwin Hui,  B. C. Huynh,  
 T.-C. Jagau,  Hyunjun Ji,  B. Kaduk,  K. Khistyaev,  Jaehoon Kim,  
 P. Klunzinger,  K. Koh,  D. Kosenkov,  L. Koulias,  T. Kowalczyk,  
 C. M. Krauter,  A. Kunitsa,  Ka Un Lao,  A. Laurent,  K. V. Lawler,  
 Joonho Lee,  D. Lefrancois,  S. Lehtola,  D. S. Levine,  Yi-Pei Li,  
 You-Sheng Lin,  Fenglai Liu,  E. Livshits,  A. Luenser,  P. Manohar,  
 E. Mansoor,  S. F. Manzer,  Shan-Ping Mao,  Yuezhi Mao,  N. Mardirossian,  
 A. V. Marenich,  T. Markovich,  L. A. Martinez-Martinez,  S. A. Maurer,  
 N. J. Mayhall,  S. C. McKenzie,  J.-M. Mewes,  A. F. Morrison,  
 J. W. Mullinax,  K. Nanda,  T. S. Nguyen-Beck,  R. Olivares-Amaya,  
 J. A. Parkhill,  T. M. Perrine,  F. Plasser,  P. Pokhilko,  S. Prager,  
 A. Prociuk,  E. Ramos,  D. R. Rehn,  F. Rob,  M. Schneider,  N. Sergueev,  
 S. M. Sharada,  S. Sharma,  D. W. Small,  T. Stauch,  T. Stein,  
 Yu-Chuan Su,  A. J. W. Thom,  A. Tkatchenko,  T. Tsuchimochi,  N. M. Tubman,  
 L. Vogt,  M. L. Vidal,  O. Vydrov,  M. A. Watson,  J. Wenzel,  
 M. de Wergifosse,  T. A. Wesolowski,  A. White,  J. Witte,  A. Yamada,  
 Jun Yang,  K. Yao,  S. Yeganeh,  S. R. Yost,  Zhi-Qiang You,  A. Zech,  
 Igor Ying Zhang,  Xing Zhang,  Yan Zhao,  Ying Zhu,  B. R. Brooks,  
 G. K. L. Chan,  C. J. Cramer,  M. S. Gordon,  W. J. Hehre,  A. Klamt,  
 M. W. Schmidt,  C. D. Sherrill,  D. G. Truhlar,  A. Aspuru-Guzik,  R. Baer,  
 A. T. Bell,  N. A. Besley,  Jeng-Da Chai,  A. E. DePrince, III,  
 R. A. DiStasio Jr.,  A. Dreuw,  B. D. Dunietz,  T. R. Furlani,  
 Chao-Ping Hsu,  Yousung Jung,  Jing Kong,  D. S. Lambrecht,  WanZhen Liang,  
 C. Ochsenfeld,  V. A. Rassolov,  L. V. Slipchenko,  J. E. Subotnik,  
 T. Van Voorhis,  J. M. Herbert,  A. I. Krylov,  P. M. W. Gill,  M. Head-Gordon

 Contributors to earlier versions of Q-Chem not listed above: 
 R. D. Adamson,  B. Austin,  J. Baker,  G. J. O. Beran,  K. Brandhorst,  
 S. T. Brown,  E. F. C. Byrd,  A. K. Chakraborty,  C.-L. Cheng,  
 Siu Hung Chien,  D. M. Chipman,  D. L. Crittenden,  H. Dachsel,  
 R. J. Doerksen,  A. D. Dutoi,  L. Fusti-Molnar,  W. A. Goddard III,  
 A. Golubeva-Zadorozhnaya,  S. R. Gwaltney,  G. Hawkins,  A. Heyden,  
 S. Hirata,  G. Kedziora,  F. J. Keil,  C. Kelley,  Jihan Kim,  R. A. King,  
 R. Z. Khaliullin,  P. P. Korambath,  W. Kurlancheek,  A. M. Lee,  M. S. Lee,  
 S. V. Levchenko,  Ching Yeh Lin,  D. Liotard,  R. C. Lochan,  I. Lotan,  
 P. E. Maslen,  N. Nair,  D. P. O'Neill,  D. Neuhauser,  E. Neuscamman,  
 C. M. Oana,  R. Olson,  B. Peters,  R. Peverati,  P. A. Pieniazek,  
 Y. M. Rhee,  J. Ritchie,  M. A. Rohrdanz,  E. Rosta,  N. J. Russ,  
 H. F. Schaefer III,  N. E. Schultz,  N. Shenvi,  A. C. Simmonett,  A. Sodt,  
 D. Stuck,  K. S. Thanthiriwatte,  V. Vanovschi,  Tao Wang,  A. Warshel,  
 C. F. Williams,  Q. Wu,  X. Xu,  W. Zhang

 Please cite Q-Chem as follows:
 Y. Shao et al., Mol. Phys. 113, 184-215 (2015)
 DOI: 10.1080/00268976.2014.952696

 Q-Chem 5.1.1 for Intel X86 EM64T Linux

 Parts of Q-Chem use Armadillo 8.300.2 (Tropical Shenanigans).
 http://arma.sourceforge.net/

 Q-Chem begins on Thu Nov 15 00:08:07 2018  

Host: ctcp006
0

     Scratch files written to /scratch/mewes/140405/qchem76180//
 Parallel job on  1  processors
The previous job contains 0 fragments, simply inherited here
Symmetry turned off for PCM/SM12/SMD calculation
Input Ideriv = 2
Curr. Ideriv = -1
Max.  Ideriv = 2
Input Ideriv = 2
Curr. Ideriv = 2
Max.  Ideriv = 2

Checking the input file for inconsistencies... 	...done.

--------------------------------------------------------------
User input:
--------------------------------------------------------------
$rem
threads 4
jobtype	opt
method PBEh-3c
basis def2-mSVP
mem_static	1024
mem_total	4000
sym_ignore	true
scf_convergence	9
solvent_method	pcm
$end

$molecule
read gsopt.mol
$end

$solvent
dielectric	4.33 
$end

$pcm
theory iefpcm
$end
--------------------------------------------------------------
 Adding empirical dispersion correction 
 ----------------------------------------------------------------
 Doing -D3(BJ) with
 s6 =   1.00000
 s8 =   0.00000
 a1 =   0.48600
 a2 =   4.50000
 -D3 energy including 3body term =     -0.1506665035 hartrees
 ----------------------------------------------------------------
 Adding gCP correction 
 ----------------------------------------------------------------
 gCP energy =      0.2096073259 hartrees
 ----------------------------------------------------------------
             Standard Nuclear Orientation (Angstroms)
    I     Atom           X                Y                Z
 ----------------------------------------------------------------
    1      N       0.0000000000     0.0000000000     0.0000000000
    2      C       0.0000000000     0.0000000000     1.3897080000
    3      C       1.1816295524     0.0000000000    -0.7317681725
    4      C       1.2024300050    -0.0139337216     2.1039347323
    5      C       1.1425689480    -0.0139679503     3.4937071448
    6      H       2.0678684805    -0.0258414142     4.0565132811
    7      C      -0.0512354821    -0.0019761849     4.1900279849
    8      H      -0.0547236877    -0.0028149941     5.2714450339
    9      C      -1.2351789210     0.0101946565     3.4718641454
   10      H      -2.1881178091     0.0198598434     3.9849621924
   11      C      -1.2123186276     0.0108391698     2.0913355557
   12      H      -2.1486168382     0.0199655900     1.5524607265
   13      C       2.4226846325    -0.0160035514    -0.0863411158
   14      C       3.5712990029    -0.0182509058    -0.8709464241
   15      H       4.5385625305    -0.0321781013    -0.3833741811
   16      C       3.5313673046    -0.0048984984    -2.2527020603
   17      H       4.4479452289    -0.0090847981    -2.8266220747
   18      C       2.2966456820     0.0123333778    -2.8796345471
   19      H       2.2293941290     0.0221056035    -3.9597127266
   20      C       1.1365199465     0.0153614012    -2.1309797096
   21      H       0.1832905446     0.0268369545    -2.6395289338
   22      C      -1.2467838980     0.0012910500    -0.6817482034
   23      C      -1.8868172651     1.1975451729    -0.9524274691
   24      H      -1.4140906853     2.1271085555    -0.6544327920
   25      C      -1.8373620166    -1.1946301588    -1.0504778861
   26      H      -1.3259122140    -2.1254402053    -0.8313933984
   27      C      -3.0693660577    -1.2053297169    -1.6921838207
   28      C      -3.1276592849     1.2100257218    -1.5790343608
   29      C      -3.7307984241     0.0027930554    -1.9567956576
   30      C      -3.6338772363    -2.5253361702    -2.1453560485
   31      H      -3.4110269448    -3.2935565979    -1.4004175111
   32      H      -4.7246136653    -2.4781287995    -2.2035804098
   33      C      -3.8224376329     2.5326891500    -1.7716024008
   34      H      -4.5421246893     2.4743971517    -2.5921839314
   35      H      -3.0913604044     3.2881581729    -2.0713202365
   36      C       2.5622045886    -0.0388722369     1.4264745355
   37      C      -3.0664557088    -2.9498176585    -3.4980119764
   38      H      -3.2990046534    -2.2162220898    -4.2702554503
   39      H      -3.4795675544    -3.9080587160    -3.8139634563
   40      H      -1.9813428054    -3.0512581246    -3.4536895922
   41      C      -4.5324188325     2.9936479211    -0.5002934467
   42      H      -5.0068131624     3.9645138900    -0.6451890238
   43      H      -5.3072663215     2.2865513662    -0.2031158840
   44      H      -3.8304566293     3.0847930062     0.3295815269
   45      C       3.3714156035     1.1892592557     1.8777331733
   46      H       2.8671575234     2.1129994181     1.5954798173
   47      H       3.5079151431     1.1991139535     2.9595955097
   48      H       4.3651927631     1.1996632635     1.4287705011
   49      C       3.3049424779    -1.3213919938     1.8419132882
   50      H       2.7557855743    -2.2086945546     1.5277340145
   51      H       4.2987999198    -1.3666769639     1.3948779454
   52      H       3.4335439301    -1.3729726354     2.9238912393
   53      B      -5.1425911320    -0.0221139061    -2.6544985266
   54      C      -6.4171062515    -0.2902711890    -1.8123703872
   55      C      -6.3139512064    -0.4247251110    -0.4280073924
   56      H      -5.3435257569    -0.3482175673     0.0500053936
   57      C      -7.4456367542    -0.6547073537     0.3270371453
   58      C      -8.7104759549    -0.7737214062    -0.2896276362
   59      C      -8.8185748871    -0.6538531365    -1.6639946315
   60      H      -9.7844730158    -0.7515012062    -2.1463669677
   61      C      -7.6802599334    -0.4038757012    -2.4398448443
   62      C      -7.6120014072    -0.8128967152     1.7684809633
   63      C      -6.7706576793    -0.7921697931     2.8502150253
   64      H      -5.7042511714    -0.6338469751     2.7445381322
   65      C      -8.9852821715    -1.0252092103     1.9791477892
   66      C      -9.5549518756    -1.2187956834     3.2328676802
   67      C      -9.7002902109    -1.0140612106     0.7657790952
   68      C     -11.0547161789    -1.2109363120     0.8136021723
   69      H     -11.6644334942    -1.2163513278    -0.0813417934
   70      C      -7.3226051538    -0.9852289176     4.1377732653
   71      H      -6.6602945415    -0.9685483769     4.9935635023
   72      C      -8.6675412109    -1.1921097344     4.3364095180
   73      H      -9.0472683795    -1.3347520730     5.3407211573
   74      C     -10.9551662586    -1.4189913249     3.2517126801
   75      H     -11.4685464917    -1.5773356489     4.1921621795
   76      C     -11.6659226464    -1.4136055681     2.0745916771
   77      H     -12.7360379781    -1.5696457554     2.1088000019
   78      C      -5.2736661070     0.2056501228    -4.1842858033
   79      C      -4.1375926131     0.5111988172    -4.9329260617
   80      H      -3.1729995221     0.5782795650    -4.4418263750
   81      C      -4.2464674878     0.7377017697    -6.2900391995
   82      C      -5.4973537637     0.6428531240    -6.9386622806
   83      C      -6.6269637680     0.3186658676    -6.2058267455
   84      H      -7.5912754520     0.2312676692    -6.6945294853
   85      C      -6.5327606828     0.1067487312    -4.8250094040
   86      C      -3.2354874009     1.1033207724    -7.2746215676
   87      C      -1.8881700391     1.3475678206    -7.2308774619
   88      H      -1.3219392332     1.2757050761    -6.3102153892
   89      C      -3.9116040168     1.2197954016    -8.5011310331
   90      C      -3.2931110685     1.5757697183    -9.6936917540
   91      C      -5.2864810515     0.9489211065    -8.3576879597
   92      C      -6.0802370808     1.0352714463    -9.4698700322
   93      H      -7.1450624185     0.8436847043    -9.4299155421
   94      C      -1.2319164836     1.7080195885    -8.4300598111
   95      H      -0.1677977319     1.9028858844    -8.4005660916
   96      C      -1.8999561267     1.8220839244    -9.6269034817
   97      H      -1.3564527790     2.1040558183   -10.5202653517
   98      C      -4.1372194766     1.6554425973   -10.8262135059
   99      H      -3.7275396570     1.9271249499   -11.7911865624
  100      C      -5.4809443505     1.3907913518   -10.7023024520
  101      H      -6.1107118352     1.4586917482   -11.5794522465
  102      B      -7.7944263086    -0.2562578258    -3.9876187048
  103      C      -9.1933975875    -0.5137435162    -4.6613694047
  104      C     -10.0571054200     0.5432608544    -4.9741944319
  105      C     -11.3268459277     0.2730787193    -5.4750846158
  106      H     -12.0073129225     1.0863462672    -5.7021334175
  107      C     -11.7436895083    -1.0317012707    -5.6730943511
  108      C     -10.8839794090    -2.0793990801    -5.3857262926
  109      H     -11.2180566813    -3.0981639178    -5.5469923051
  110      C      -9.6134680990    -1.8341929847    -4.8814541096
  111      N     -13.0563535249    -1.3012050147    -6.1451445228
  112      C     -13.2763259951    -1.4380720849    -7.5108603361
  113      C     -14.0797265401    -1.4639047227    -5.2178055575
  114      C     -15.3716026829    -1.8006641502    -5.6305615330
  115      C     -16.3513121158    -1.9559841025    -4.6545001128
  116      H     -17.3560136363    -2.2227966216    -4.9588165964
  117      C     -16.0956314107    -1.7875570107    -3.3060672885
  118      H     -16.8855255734    -1.9177428446    -2.5789983983
  119      C     -14.8117926415    -1.4505035554    -2.9110201824
  120      H     -14.5781168211    -1.3090210713    -1.8634975594
  121      C     -13.8154142189    -1.2906548829    -3.8525999788
  122      H     -12.8201745824    -1.0279721142    -3.5234672572
  123      C     -14.5427684282    -1.7743595975    -7.9985697695
  124      C     -14.7033883824    -1.8996388889    -9.3743939462
  125      H     -15.6787849032    -2.1634499370    -9.7642024566
  126      C     -13.6657536698    -1.7045951270   -10.2672161145
  127      H     -13.8307849015    -1.8129131847   -11.3303646616
  128      C     -12.4168815673    -1.3700987679    -9.7702232342
  129      H     -11.5828538986    -1.2103303723   -10.4411908764
  130      C     -12.2224896721    -1.2374921476    -8.4100725212
  131      H     -11.2404206796    -0.9750695369    -8.0428930006
  132      C      -8.6906972286    -2.9966831009    -4.6189351055
  133      H      -9.2822512856    -3.8801748535    -4.3668921811
  134      H      -8.0676033658    -2.8005104845    -3.7414291874
  135      C      -9.6625426532     1.9753081092    -4.7149596681
  136      H     -10.1027780081     2.6167584574    -5.4826712657
  137      H      -8.5801343448     2.0961260856    -4.8141200617
  138      C     -15.7342180343    -2.0156894802    -7.0879762931
  139      C     -10.1027907163     2.4667196828    -3.3375881797
  140      H      -9.6356992749     1.8883259734    -2.5407532012
  141      H      -9.8284678432     3.5117860801    -3.1912021709
  142      H     -11.1835956769     2.3850044425    -3.2169008055
  143      C      -7.7956394282    -3.3138506865    -5.8154247615
  144      H      -7.1506013919    -2.4714389740    -6.0646722104
  145      H      -8.3900025053    -3.5499134580    -6.6984470046
  146      H      -7.1534982256    -4.1695598346    -5.6044127140
  147      C     -16.2101115237    -3.4664136543    -7.2674474560
  148      H     -15.4207592499    -4.1656103896    -6.9916542460
  149      H     -16.4909737934    -3.6671610545    -8.3018789695
  150      H     -17.0789459648    -3.6795228883    -6.6437771358
  151      C     -16.8596633838    -1.0386471100    -7.4671765119
  152      H     -16.5298861620    -0.0068087349    -7.3464909970
  153      H     -17.1745245795    -1.1716886639    -8.5024947015
  154      H     -17.7405260055    -1.1831775939    -6.8411031319
 ----------------------------------------------------------------
 Nuclear Repulsion Energy = 13754.3410578355 hartrees
 There are      292 alpha and      292 beta electrons
 Requested basis set is def2-mSVP
 There are 738 shells and 1426 basis functions

 Total QAlloc Memory Limit   4000 MB
 Mega-Array Size      1001 MB
 MEM_STATIC part      1024 MB
 Discretize the solute cavity surface with Lebedev spheres
	Using 302 Lebedev grid points for each H atom
	Using 302 Lebedev grid points for other atoms
	Atomic van der Waals radii will be scaled by 1.20
 Remove points where switching function is < 1.0e-08
 Keep 15860 surface tesserae and discard 30648 interior tesserae
 Molecular Surface Area = 1139.689 Angst**2
 A cutoff of  1.0D-12 yielded  76047 shell pairs
 There are    293909 function pairs (    323201 Cartesian)
 
 -------------------------------------------------------
 OpenMP Integral Computing Module                       
 Release: version 1.0, May 2013, Q-Chem Inc. Pittsburgh 
 -------------------------------------------------------
 Integral Job Info:
 Integral job number is                      11
 Integral operator is                         1
 short-range coefficients                     0
 long-range coefficients              100000000
 Omega coefficients                           0
 if combine SR and LR in K                    0
 Integral screening is                        0
 Integral computing path is                   2
 max size of driver memory is            800000
 size of driver memory is                593474
 size of scratch memory is              1809772
 max col of scratch BK array               1296
 max len of scratch array in speh3          155
 max len of scratch index in speh4           18
 max int batch size is                      520
 min int batch size is                       52
 fixed nKL is                                52
 max L of basis functions is                  2
 order of int derivative is                   0
 number of shells is                        738
 number of basis is                        1512
 number of cartesian basis is              1512
 number of contracted shell pairs         76047
 number of primitive shell pairs         157325
 maxK2 (contraction) of shell pair           25
 max number of K2 of shell pair               1
 max number of CS2 of shell pair          18705
 max number of PS2 of shell pair          27595
 mem total for path MDJ                 1251244
 -------------------------------------------------------
 Smallest overlap matrix eigenvalue = 1.92E-04

 Scale SEOQF with 1.000000e-03/1.000000e-01/1.000000e-02

 Standard Electronic Orientation quadrupole field applied
 Nucleus-field energy     =    -0.0000000595 hartrees
 Guess from superposition of atomic densities
 Warning:  Energy on first SCF cycle will be non-variational
 SAD guess density has 584.000001 electrons

 -----------------------------------------------------------------------
  General SCF calculation program by
  Eric Jon Sundstrom, Paul Horn, Yuezhi Mao, Dmitri Zuev, Alec White,
  David Stuck, Shaama M.S., Shane Yost, Joonho Lee, David Small,
  Daniel Levine, Susi Lehtola, Hugh Burton, Evgeny Epifanovsky
 -----------------------------------------------------------------------
 Exchange:     0.4200 Hartree-Fock + 0.5800 PBEh-3c
 Correlation:  1.0000 PBEh-3c
 Using SG-1 standard quadrature grid
 Dispersion:   Grimme D3
 using 4 threads for integral computing
 -------------------------------------------------------
 OpenMP Integral computing Module                
 Release: version 2.0, May 2017, Q-Chem Inc. Pleasanton 
 -------------------------------------------------------
 -------------------------------------------------------
 OpenMP BLAS3 based DFT computing Module                
 Release: version 1.0, May 2013, Q-Chem Inc. Pittsburgh 
 -------------------------------------------------------
 A restricted SCF calculation will be
 performed using DIIS
 SCF converges when DIIS error is below 1.0e-09
 ---------------------------------------
  Cycle       Energy         DIIS error
 ---------------------------------------
 Using non-symmetric K matrix
    1   -3346.4486481818      2.26e-02  
    2   -3317.1216706242      1.54e-03  
    3   -3317.3554568351      1.33e-03  
    4   -3317.7681155967      4.24e-04  
    5   -3317.8126000162      1.45e-04  
    6   -3317.8181221672      3.73e-05  
    7   -3317.8184701577      1.15e-05  
    8   -3317.8185043967      3.65e-06  
    9   -3317.8185079487      1.13e-06  
   10   -3317.8185083382      3.84e-07  
   11   -3317.8185083963      1.21e-07  
   12   -3317.8185084028      4.34e-08  
   13   -3317.8185084036      1.41e-08  
   14   -3317.8185084037      6.80e-09  
   15   -3317.8185084037      2.71e-09  
   16   -3317.8185084037      9.60e-10  Convergence criterion met
 ---------------------------------------
 SCF time:   CPU 32322.29s  wall 8566.00s 

************** Final PCM Free Energy Summary **************
 G_electrostatic  =      -0.02960185 hartree =     -18.57544004 kcal/mol
 G_cavitation     =       0.00000000 hartree =       0.00000000 kcal/mol
 G_dispersion     =       0.00000000 hartree =       0.00000000 kcal/mol
 G_repulsion      =       0.00000000 hartree =       0.00000000 kcal/mol
 --------------------------------------------------
 Non-electrostatic Free Energy =       0.00000000 hartree =       0.00000000 kcal/mol
 Total                         =      -0.02960185 hartree =     -18.57544004 kcal/mol
 --------------------------------------------------
 SCF Energy (H0 + V/2)                       =   -3317.81850840 
 Solute Internal Energy (H0)                 =   -3317.78890656 
 Total Free Energy (H0 + V/2 + non-elec)     =   -3317.81850840 hartree
                                             = -2081962.53708241 kcal/mol
***********************************************************

 SCF   energy in the final basis set =    -3317.8185084037
 Total energy in the final basis set =    -3317.8185084037
 
 --------------------------------------------------------------
 
                    Orbital Energies (a.u.)
 --------------------------------------------------------------
 
 Alpha MOs
 -- Occupied --
-14.677 -14.676 -10.493 -10.493 -10.493 -10.493 -10.485 -10.485
-10.469 -10.468 -10.468 -10.467 -10.466 -10.466 -10.466 -10.466
-10.466 -10.466 -10.465 -10.465 -10.464 -10.464 -10.462 -10.462
-10.462 -10.462 -10.462 -10.462 -10.460 -10.459 -10.459 -10.459
-10.459 -10.458 -10.457 -10.457 -10.457 -10.457 -10.457 -10.457
-10.451 -10.451 -10.451 -10.451 -10.449 -10.449 -10.444 -10.444
-10.444 -10.444 -10.443 -10.443 -10.443 -10.443 -10.443 -10.443
-10.443 -10.443 -10.440 -10.440 -10.440 -10.440 -10.440 -10.439
-10.439 -10.438 -10.438 -10.438 -10.438 -10.437 -10.436 -10.436
-10.436 -10.435 -10.433 -10.433 -10.423 -10.423 -10.423 -10.423
-10.423 -10.422 -10.422 -10.421  -6.957  -6.954  -1.089  -1.089
 -1.020  -1.019  -0.973  -0.973  -0.966  -0.963  -0.959  -0.959
 -0.952  -0.952  -0.935  -0.935  -0.913  -0.909  -0.908  -0.904
 -0.895  -0.893  -0.872  -0.869  -0.858  -0.858  -0.851  -0.851
 -0.848  -0.848  -0.836  -0.836  -0.829  -0.826  -0.822  -0.816
 -0.815  -0.815  -0.815  -0.808  -0.806  -0.806  -0.791  -0.790
 -0.767  -0.767  -0.738  -0.733  -0.728  -0.723  -0.723  -0.722
 -0.718  -0.717  -0.708  -0.708  -0.708  -0.708  -0.693  -0.691
 -0.688  -0.681  -0.675  -0.670  -0.670  -0.669  -0.652  -0.651
 -0.640  -0.638  -0.636  -0.636  -0.616  -0.616  -0.615  -0.615
 -0.598  -0.597  -0.592  -0.589  -0.587  -0.587  -0.585  -0.577
 -0.576  -0.562  -0.561  -0.555  -0.550  -0.545  -0.536  -0.535
 -0.534  -0.532  -0.530  -0.527  -0.524  -0.523  -0.523  -0.520
 -0.515  -0.511  -0.505  -0.504  -0.504  -0.503  -0.502  -0.498
 -0.498  -0.496  -0.496  -0.494  -0.492  -0.489  -0.489  -0.489
 -0.488  -0.488  -0.488  -0.485  -0.480  -0.480  -0.479  -0.478
 -0.478  -0.475  -0.475  -0.474  -0.473  -0.468  -0.463  -0.460
 -0.456  -0.455  -0.451  -0.450  -0.447  -0.446  -0.445  -0.441
 -0.439  -0.438  -0.437  -0.437  -0.436  -0.430  -0.428  -0.428
 -0.428  -0.425  -0.425  -0.424  -0.422  -0.420  -0.416  -0.416
 -0.410  -0.406  -0.406  -0.405  -0.399  -0.399  -0.398  -0.398
 -0.397  -0.396  -0.395  -0.394  -0.394  -0.393  -0.392  -0.391
 -0.389  -0.387  -0.384  -0.377  -0.377  -0.373  -0.372  -0.371
 -0.368  -0.367  -0.365  -0.364  -0.359  -0.354  -0.352  -0.345
 -0.323  -0.317  -0.300  -0.300  -0.298  -0.297  -0.290  -0.290
 -0.287  -0.284  -0.284  -0.282  -0.281  -0.280  -0.280  -0.265
 -0.261  -0.258  -0.223  -0.223
 -- Virtual --
 -0.096  -0.062  -0.041  -0.033  -0.008   0.004   0.005   0.005
  0.010   0.011   0.012   0.012   0.013   0.017   0.018   0.033
  0.034   0.042   0.059   0.059   0.066   0.079   0.082   0.089
  0.114   0.121   0.122   0.127   0.139   0.141   0.146   0.150
  0.151   0.152   0.157   0.158   0.160   0.162   0.163   0.165
  0.166   0.167   0.167   0.169   0.175   0.177   0.179   0.183
  0.185   0.188   0.190   0.191   0.192   0.193   0.194   0.196
  0.197   0.197   0.200   0.201   0.202   0.202   0.202   0.204
  0.205   0.208   0.209   0.210   0.213   0.214   0.216   0.217
  0.218   0.219   0.221   0.222   0.223   0.223   0.224   0.226
  0.228   0.229   0.231   0.232   0.233   0.234   0.234   0.237
  0.239   0.240   0.242   0.243   0.243   0.244   0.245   0.246
  0.251   0.251   0.251   0.252   0.253   0.254   0.257   0.260
  0.262   0.267   0.268   0.268   0.268   0.270   0.272   0.273
  0.276   0.277   0.279   0.280   0.282   0.283   0.284   0.287
  0.290   0.291   0.294   0.295   0.296   0.297   0.298   0.302
  0.303   0.306   0.308   0.309   0.311   0.311   0.311   0.313
  0.314   0.317   0.317   0.317   0.321   0.325   0.333   0.341
  0.343   0.343   0.344   0.347   0.350   0.351   0.352   0.359
  0.362   0.371   0.373   0.374   0.376   0.381   0.382   0.384
  0.386   0.392   0.394   0.394   0.396   0.397   0.401   0.412
  0.413   0.418   0.424   0.425   0.435   0.437   0.438   0.441
  0.441   0.443   0.445   0.450   0.451   0.458   0.459   0.467
  0.470   0.476   0.477   0.479   0.481   0.486   0.491   0.492
  0.494   0.495   0.495   0.497   0.499   0.501   0.504   0.506
  0.509   0.510   0.512   0.513   0.515   0.518   0.519   0.523
  0.525   0.525   0.527   0.528   0.531   0.532   0.533   0.535
  0.539   0.541   0.542   0.543   0.545   0.546   0.546   0.548
  0.549   0.550   0.553   0.553   0.554   0.556   0.556   0.558
  0.558   0.562   0.563   0.565   0.566   0.567   0.569   0.572
  0.576   0.578   0.583   0.585   0.585   0.586   0.586   0.586
  0.588   0.589   0.591   0.591   0.593   0.593   0.596   0.597
  0.599   0.602   0.604   0.606   0.607   0.607   0.608   0.610
  0.614   0.615   0.615   0.617   0.617   0.618   0.622   0.624
  0.625   0.625   0.626   0.627   0.628   0.628   0.630   0.631
  0.632   0.632   0.635   0.635   0.636   0.640   0.641   0.644
  0.646   0.647   0.648   0.648   0.652   0.652   0.653   0.656
  0.656   0.657   0.658   0.658   0.665   0.666   0.667   0.668
  0.670   0.671   0.672   0.675   0.680   0.686   0.688   0.690
  0.692   0.694   0.696   0.697   0.702   0.703   0.710   0.711
  0.712   0.714   0.717   0.718   0.722   0.724   0.729   0.732
  0.733   0.735   0.740   0.742   0.744   0.747   0.748   0.752
  0.754   0.756   0.758   0.760   0.763   0.766   0.767   0.768
  0.770   0.772   0.774   0.776   0.777   0.778   0.778   0.781
  0.782   0.788   0.791   0.795   0.798   0.800   0.800   0.803
  0.804   0.809   0.811   0.812   0.812   0.813   0.817   0.820
  0.825   0.830   0.831   0.831   0.836   0.841   0.843   0.846
  0.850   0.852   0.855   0.859   0.862   0.872   0.873   0.875
  0.876   0.877   0.883   0.885   0.889   0.892   0.893   0.896
  0.898   0.905   0.906   0.912   0.915   0.917   0.922   0.923
  0.925   0.931   0.936   0.942   0.945   0.948   0.949   0.953
  0.954   0.955   0.956   0.957   0.964   0.966   0.966   0.971
  0.976   0.977   0.979   0.983   0.984   0.986   0.987   0.990
  0.990   0.992   0.994   0.998   0.999   1.000   1.001   1.002
  1.004   1.007   1.007   1.009   1.012   1.017   1.020   1.022
  1.023   1.027   1.031   1.031   1.034   1.034   1.037   1.039
  1.041   1.042   1.043   1.045   1.047   1.049   1.049   1.049
  1.050   1.052   1.055   1.056   1.057   1.058   1.062   1.065
  1.066   1.067   1.069   1.071   1.074   1.075   1.076   1.076
  1.079   1.082   1.084   1.085   1.086   1.087   1.090   1.092
  1.094   1.099   1.101   1.102   1.103   1.113   1.114   1.115
  1.116   1.120   1.125   1.126   1.128   1.130   1.132   1.133
  1.136   1.136   1.139   1.142   1.144   1.145   1.147   1.152
  1.153   1.155   1.158   1.163   1.166   1.166   1.169   1.170
  1.174   1.176   1.178   1.178   1.180   1.181   1.186   1.196
  1.199   1.211   1.213   1.216   1.218   1.219   1.223   1.224
  1.225   1.231   1.241   1.246   1.249   1.256   1.257   1.258
  1.259   1.264   1.269   1.275   1.276   1.281   1.283   1.286
  1.291   1.293   1.295   1.297   1.298   1.300   1.304   1.306
  1.309   1.311   1.315   1.316   1.317   1.318   1.326   1.329
  1.331   1.333   1.336   1.338   1.339   1.342   1.345   1.348
  1.351   1.356   1.359   1.364   1.366   1.367   1.368   1.373
  1.373   1.374   1.375   1.378   1.381   1.383   1.397   1.397
  1.404   1.406   1.407   1.408   1.413   1.416   1.417   1.424
  1.439   1.439   1.439   1.442   1.444   1.445   1.448   1.457
  1.459   1.464   1.466   1.469   1.479   1.483   1.492   1.497
  1.498   1.499   1.505   1.505   1.510   1.510   1.510   1.513
  1.516   1.517   1.517   1.522   1.527   1.529   1.530   1.531
  1.537   1.539   1.541   1.544   1.545   1.546   1.547   1.548
  1.549   1.550   1.554   1.559   1.562   1.564   1.564   1.565
  1.571   1.574   1.575   1.578   1.581   1.582   1.584   1.589
  1.591   1.596   1.596   1.612   1.613   1.617   1.619   1.626
  1.628   1.634   1.636   1.644   1.649   1.652   1.659   1.664
  1.665   1.665   1.676   1.688   1.694   1.701   1.710   1.711
  1.711   1.724   1.737   1.738   1.740   1.748   1.748   1.752
  1.757   1.757   1.763   1.771   1.776   1.778   1.783   1.786
  1.788   1.796   1.797   1.802   1.803   1.806   1.807   1.808
  1.810   1.811   1.814   1.814   1.816   1.818   1.834   1.835
  1.835   1.846   1.857   1.857   1.868   1.872   1.874   1.878
  1.880   1.883   1.899   1.901   1.901   1.902   1.905   1.915
  1.916   1.918   1.919   1.920   1.922   1.924   1.926   1.929
  1.931   1.932   1.934   1.941   1.943   1.951   1.951   1.964
  1.967   1.974   1.977   1.978   1.980   1.984   1.984   1.987
  1.991   1.992   1.994   1.996   1.997   2.000   2.002   2.009
  2.010   2.011   2.024   2.031   2.034   2.037   2.039   2.044
  2.049   2.050   2.054   2.057   2.058   2.062   2.070   2.070
  2.072   2.075   2.080   2.082   2.087   2.091   2.096   2.098
  2.098   2.099   2.112   2.112   2.118   2.123   2.127   2.131
  2.132   2.133   2.134   2.136   2.144   2.147   2.148   2.149
  2.155   2.156   2.157   2.159   2.166   2.179   2.182   2.184
  2.187   2.187   2.189   2.197   2.200   2.201   2.203   2.206
  2.214   2.214   2.217   2.219   2.219   2.220   2.230   2.232
  2.238   2.248   2.251   2.253   2.254   2.254   2.259   2.261
  2.263   2.264   2.271   2.275   2.276   2.277   2.282   2.283
  2.285   2.288   2.289   2.289   2.293   2.306   2.309   2.311
  2.312   2.321   2.321   2.321   2.322   2.325   2.330   2.332
  2.333   2.335   2.337   2.341   2.342   2.342   2.344   2.348
  2.349   2.354   2.355   2.355   2.356   2.358   2.358   2.363
  2.366   2.368   2.369   2.372   2.380   2.382   2.387   2.387
  2.388   2.390   2.393   2.396   2.400   2.403   2.405   2.409
  2.410   2.413   2.414   2.415   2.418   2.419   2.420   2.424
  2.430   2.432   2.439   2.442   2.445   2.451   2.462   2.473
  2.476   2.478   2.479   2.480   2.487   2.489   2.490   2.491
  2.492   2.496   2.505   2.508   2.518   2.520   2.522   2.527
  2.533   2.536   2.543   2.556   2.561   2.568   2.576   2.595
  2.596   2.604   2.611   2.612   2.613   2.622   2.626   2.630
  2.642   2.644   2.644   2.668   2.681   2.682   2.682   2.684
  2.686   2.687   2.701   2.702   2.704   2.706   2.710   2.713
  2.718   2.724   2.725   2.728   2.729   2.730   2.732   2.733
  2.736   2.749   2.753   2.754   2.764   2.769   2.775   2.780
  2.780   2.783   2.788   2.790   2.791   2.791   2.791   2.794
  2.802   2.803   2.807   2.808   2.810   2.811   2.812   2.812
  2.813   2.818   2.819   2.821   2.825   2.826   2.838   2.839
  2.846   2.858   2.863   2.864   2.874   2.877   2.879   2.880
  2.884   2.893   2.896   2.901   2.906   2.906   2.929   2.939
  2.945   2.950   2.957   2.963   2.967   2.969   2.970   2.983
  2.995   2.999   3.001   3.008   3.008   3.015   3.015   3.032
  3.045   3.049   3.064   3.074   3.083   3.083   3.111   3.115
  3.119   3.205   3.205   3.233   3.234   3.237   3.254   3.256
  3.403   3.410   3.410   3.441   3.448   3.490   3.493   3.495
  3.509   3.518   3.572   3.572   3.576   3.579   3.667   3.680
  9.579   9.733  13.141  13.175  13.248  13.249  13.338  13.338
 13.475  13.494  13.513  13.526  13.547  13.563  13.649  13.650
 13.667  13.678  13.708  13.711  13.727  13.739  13.741  13.770
 13.773  13.776  13.777  13.792  13.804  13.807  13.858  13.860
 13.871  13.876  13.883  13.902  13.904  13.917  13.940  13.999
 14.019  14.025  14.034  14.035  14.040  14.043  14.046  14.053
 14.153  14.162  14.163  14.165  14.165  14.183  14.185  14.204
 14.209  14.214  14.221  14.224  14.229  14.260  14.261  14.273
 14.290  14.293  14.306  14.308  14.309  14.318  14.344  14.346
 14.513  14.517  14.568  14.576  14.585  14.585  14.594  14.595
 14.607  14.608  14.618  14.624  19.646  19.646
 --------------------------------------------------------------
 
          Ground-State Mulliken Net Atomic Charges

     Atom                 Charge (a.u.)
  ----------------------------------------
      1 N                    -0.718379
      2 C                     0.308753
      3 C                     0.311814
      4 C                     0.131960
      5 C                    -0.310230
      6 H                     0.231147
      7 C                    -0.253017
      8 H                     0.232564
      9 C                    -0.252711
     10 H                     0.234461
     11 C                    -0.321547
     12 H                     0.260717
     13 C                     0.130766
     14 C                    -0.310515
     15 H                     0.231378
     16 C                    -0.253276
     17 H                     0.232808
     18 C                    -0.253007
     19 H                     0.236085
     20 C                    -0.324610
     21 H                     0.260128
     22 C                     0.192203
     23 C                    -0.304150
     24 H                     0.242183
     25 C                    -0.306691
     26 H                     0.241547
     27 C                     0.054753
     28 C                     0.060181
     29 C                    -0.226254
     30 C                    -0.557013
     31 H                     0.245784
     32 H                     0.259507
     33 C                    -0.552004
     34 H                     0.255781
     35 H                     0.244191
     36 C                    -0.201463
     37 C                    -0.654592
     38 H                     0.237466
     39 H                     0.228502
     40 H                     0.223759
     41 C                    -0.654688
     42 H                     0.229646
     43 H                     0.235529
     44 H                     0.223319
     45 C                    -0.616565
     46 H                     0.234505
     47 H                     0.226248
     48 H                     0.226299
     49 C                    -0.614324
     50 H                     0.234150
     51 H                     0.225983
     52 H                     0.226022
     53 B                     0.667446
     54 C                    -0.153418
     55 C                    -0.388875
     56 H                     0.244242
     57 C                     0.075549
     58 C                     0.100540
     59 C                    -0.396302
     60 H                     0.247324
     61 C                    -0.152997
     62 C                     0.184757
     63 C                    -0.387511
     64 H                     0.242691
     65 C                    -0.067277
     66 C                     0.231232
     67 C                     0.184760
     68 C                    -0.395901
     69 H                     0.243234
     70 C                    -0.226939
     71 H                     0.251735
     72 C                    -0.343844
     73 H                     0.248046
     74 C                    -0.347751
     75 H                     0.248385
     76 C                    -0.224530
     77 H                     0.250974
     78 C                    -0.151154
     79 C                    -0.389036
     80 H                     0.243402
     81 C                     0.076341
     82 C                     0.099397
     83 C                    -0.400029
     84 H                     0.243167
     85 C                    -0.153078
     86 C                     0.183658
     87 C                    -0.386419
     88 H                     0.244074
     89 C                    -0.066457
     90 C                     0.232090
     91 C                     0.184832
     92 C                    -0.395488
     93 H                     0.244543
     94 C                    -0.227688
     95 H                     0.252134
     96 C                    -0.343991
     97 H                     0.248011
     98 C                    -0.348201
     99 H                     0.248355
    100 C                    -0.224909
    101 H                     0.251678
    102 B                     0.667767
    103 C                    -0.214716
    104 C                     0.060028
    105 C                    -0.308047
    106 H                     0.241934
    107 C                     0.190478
    108 C                    -0.308801
    109 H                     0.241128
    110 C                     0.054943
    111 N                    -0.719305
    112 C                     0.311637
    113 C                     0.307931
    114 C                     0.133943
    115 C                    -0.310944
    116 H                     0.231193
    117 C                    -0.252733
    118 H                     0.232528
    119 C                    -0.253441
    120 H                     0.234175
    121 C                    -0.322272
    122 H                     0.261699
    123 C                     0.130694
    124 C                    -0.310409
    125 H                     0.230982
    126 C                    -0.253383
    127 H                     0.232588
    128 C                    -0.253618
    129 H                     0.236496
    130 C                    -0.323890
    131 H                     0.261188
    132 C                    -0.557234
    133 H                     0.245613
    134 H                     0.258587
    135 C                    -0.553142
    136 H                     0.244002
    137 H                     0.253370
    138 C                    -0.199488
    139 C                    -0.657478
    140 H                     0.240253
    141 H                     0.229477
    142 H                     0.222604
    143 C                    -0.656202
    144 H                     0.240788
    145 H                     0.223645
    146 H                     0.227990
    147 C                    -0.614082
    148 H                     0.233824
    149 H                     0.226085
    150 H                     0.226023
    151 C                    -0.618052
    152 H                     0.234665
    153 H                     0.226479
    154 H                     0.226591
  ----------------------------------------
  Sum of atomic charges =     0.000000

 -----------------------------------------------------------------
                    Cartesian Multipole Moments
 -----------------------------------------------------------------
    Charge (ESU x 10^10)
                 0.0000
    Dipole Moment (Debye)
         X       0.2488      Y       0.5785      Z      -0.0935
       Tot       0.6366
    Quadrupole Moments (Debye-Ang)
        XX    -468.2368     XY       6.3016     YY    -505.3637
        XZ     -20.3021     YZ     -14.2073     ZZ    -430.6565
    Octopole Moments (Debye-Ang^2)
       XXX    9102.5453    XXY      25.7863    XYY    3271.5932
       YYY     577.7003    XXZ    1746.0370    XYZ      29.0046
       YYZ    1564.9097    XZZ    2938.0262    YZZ     291.0263
       ZZZ    4067.8881
    Hexadecapole Moments (Debye-Ang^3)
      XXXX -204384.3522   XXXY   -5515.4224   XXYY  -38432.7017
      XYYY   -9524.6885   YYYY   -7074.2868   XXXZ  -43625.3613
      XXYZ    -199.4265   XYYZ  -14496.2176   YYYZ   -1231.3056
      XXZZ  -46237.2621   XYZZ   -2685.0096   YYZZ  -14886.8763
      XZZZ  -40178.6762   YZZZ   -3023.6360   ZZZZ  -69012.1055
 -----------------------------------------------------------------
 Calculating analytic gradient of the SCF energy
 -1.452649971975394E-003 -1.452656808992513E-003
 -1.452653679932527E-003 -1.452653183039189E-003
 -1.452654118031860E-003 -1.452652634377221E-003
 -1.452609026772591E-003 -1.452697748552786E-003
 -1.452652174316777E-003 -1.452654703703739E-003
 -1.452640325621025E-003 -1.452666439591220E-003
 -1.452620365637661E-003 -1.452686408844633E-003
 -1.452655895985947E-003 -1.452650981986102E-003
 -1.452620683738646E-003 -1.452686083524503E-003
 -1.452678485859827E-003 -1.452628299168978E-003
 -1.452652655965388E-003 -1.452654202493752E-003
 -1.452673635828146E-003 -1.452633131277772E-003
 -1.452631327195878E-003 -1.452675425758128E-003
 -1.452653448197909E-003 -1.452653412345340E-003
 -1.452644158932802E-003 -1.452662605059213E-003
 -1.452676211788460E-003 -1.452630532331558E-003
 -1.452652989691640E-003 -1.452653831038522E-003
 -1.452656109369103E-003 -1.452650674438577E-003
 -1.452683152310844E-003 -1.452623636624754E-003
 -1.452653085183219E-003 -1.452653781219081E-003
 -1.452645806735759E-003 -1.452660949671413E-003
 -1.452649677709061E-003 -1.452657096886217E-003
 -1.452653737154256E-003 -1.452653072417034E-003
 -1.452652294806844E-003 -1.452654482647675E-003
 -1.452618762067919E-003 -1.452688001793053E-003
 -1.452654589398250E-003 -1.452652282561107E-003
 -1.452641616897180E-003 -1.452665149524486E-003
 -1.452656034883639E-003 -1.452650747127823E-003
 -1.452657995644614E-003 -1.452648807998822E-003
 -1.452641598824887E-003 -1.452665158260952E-003
 -1.452656067090258E-003 -1.452650693982718E-003
 -1.452650930640550E-003 -1.452655954845857E-003
 -1.452639733658879E-003 -1.452667019548233E-003
 -1.452635276799415E-003 -1.452671482552962E-003
 -1.452655422283601E-003 -1.452651424914396E-003
 -1.452639707085828E-003 -1.452667072639644E-003
 -1.452683050549846E-003 -1.452623745121169E-003
 -1.452653195694480E-003 -1.452653662798384E-003
 -1.452668958284880E-003 -1.452637798848293E-003
 -1.452637970272451E-003 -1.452668788018746E-003
 -1.452653653789727E-003 -1.452653201514787E-003
 -1.452635673061108E-003 -1.452671081337839E-003
 -1.452665985918385E-003 -1.452640762360926E-003
 -1.452652588776909E-003 -1.452654228579187E-003
 -1.452671544820536E-003 -1.452635230648622E-003
 -1.452661644025221E-003 -1.452645151569173E-003
 -1.452652592567075E-003 -1.452654270488547E-003
 -1.452685738364131E-003 -1.452621015307714E-003
 -1.452651300106510E-003 -1.452655504506044E-003
 -1.452652494862931E-003 -1.452654314945365E-003
 -1.452651113897195E-003 -1.452655639905086E-003
 -1.452628081586903E-003 -1.452678685709279E-003
 -1.452652320226450E-003 -1.452654547735238E-003
 -1.452627615070520E-003 -1.452679147519915E-003
 -1.452644267810316E-003 -1.452662483637844E-003
 -1.452648469471762E-003 -1.452658328041187E-003
 -1.452661925431917E-003 -1.452644859026444E-003
 -1.452641390378657E-003 -1.452665382659375E-003
 -1.452654932434679E-003 -1.452651948665576E-003
 -1.452665712217129E-003 -1.452641034306408E-003
 -1.452631140028379E-003 -1.452675636460959E-003
 -1.452652483818504E-003 -1.452654358648096E-003
 -1.452644358548323E-003 -1.452662409088176E-003
 -1.452615261439398E-003 -1.452691509705248E-003
 -1.452656574371254E-003 -1.452650214101737E-003
 -1.452632200483440E-003 -1.452674562047196E-003
 -1.452692880448107E-003 -1.452613916030122E-003
 -1.452659892259151E-003 -1.452646834586682E-003
 -1.452665928081818E-003 -1.452640857735680E-003
 -1.452648805374958E-003 -1.452657981690395E-003
 -1.452664720284077E-003 -1.452641993679274E-003
 -1.452647101933161E-003 -1.452659670460636E-003
 -1.452686437527987E-003 -1.452620362458996E-003
 -1.452639872760933E-003 -1.452666850584049E-003
 -1.452678186585434E-003 -1.452628604042728E-003
 -1.452642625564821E-003 -1.452664159550491E-003
 -1.452643984940368E-003 -1.452662731805819E-003
 -1.452655208866515E-003 -1.452651560170766E-003
 -1.452606252796269E-003 -1.452700526382457E-003
 -1.452629953197085E-003 -1.452676805020703E-003
 -1.452629063747537E-003 -1.452677724688735E-003
 -1.452610210128170E-003 -1.452696575860907E-003
 -1.452680273476980E-003 -1.452626484449270E-003
 -1.452632071838137E-003 -1.452674702580135E-003
 -1.452676542698683E-003 -1.452630239791386E-003
 -1.452647845497104E-003 -1.452658917876821E-003
 -1.452663077516885E-003 -1.452643690280685E-003
 -1.452664471793945E-003 -1.452642271797021E-003
 -1.452661387231384E-003 -1.452645368562920E-003
 -1.452654570072713E-003 -1.452652214318993E-003
 -1.452637310957843E-003 -1.452669458520393E-003
 -1.452663920809473E-003 -1.452642814908897E-003
 -1.452651686201111E-003 -1.452655094958927E-003
 -1.452629829567061E-003 -1.452676935408529E-003
 -1.452657378505879E-003 -1.452649410558049E-003
 -1.452661686809655E-003 -1.452645105122922E-003
 -1.452658810853036E-003 -1.452647985825848E-003
 -1.452639512589737E-003 -1.452667246381359E-003
 -1.452664619135074E-003 -1.452642123552122E-003
 -1.452642141510962E-003 -1.452664656302869E-003
 -1.452650031387729E-003 -1.452656756167824E-003
 -1.452633709763696E-003 -1.452673056916157E-003
 -1.452648394240468E-003 -1.452658393591870E-003
 -1.452642710586168E-003 -1.452664033279345E-003
 -1.452644869997422E-003 -1.452661891671087E-003
 -1.452667193957020E-003 -1.452639600360629E-003
 -1.452651471119216E-003 -1.452655301101730E-003
 -1.452658306161066E-003 -1.452648455653441E-003
 -1.452622220006114E-003 -1.452684513211654E-003
 -1.452663836683819E-003 -1.452642917099150E-003
 -1.452647348926043E-003 -1.452659465934565E-003
 -1.452653186194694E-003 -1.452653576114086E-003
 -1.452670711762351E-003 -1.452636026212503E-003
 -1.452648455227338E-003 -1.452658311050587E-003
 -1.452642698338472E-003 -1.452664061271556E-003
 -1.452681852351444E-003 -1.452624911821008E-003
 -1.452660538115456E-003 -1.452646239442704E-003
 -1.452655986304326E-003 -1.452650782244097E-003
 -1.452670145558359E-003 -1.452636630481586E-003
 -1.452645454859027E-003 -1.452661333128004E-003
 -1.452631863569939E-003 -1.452674936358726E-003
 -1.452647808744911E-003 -1.452658948552044E-003
 -1.452631189323068E-003 -1.452675556110161E-003
 -1.452651409766043E-003 -1.452655362652609E-003
 -1.452621371449055E-003 -1.452685401544076E-003
 -1.452642354773369E-003 -1.452664403020610E-003
 -1.452648948947053E-003 -1.452657833016584E-003
 -1.452637323466698E-003 -1.452669423280450E-003
 -1.452658966121729E-003 -1.452647784029136E-003
 -1.452653293868844E-003 -1.452653492023038E-003
 -1.452636523354575E-003 -1.452670255076740E-003
 -1.452664592860918E-003 -1.452642176755754E-003
 -1.452647718837232E-003 -1.452659074451365E-003
 -1.452673531135775E-003 -1.452633235470078E-003
 -1.452652153508099E-003 -1.452654587360861E-003
 -1.452646861254313E-003 -1.452659908745911E-003
 -1.452664411508733E-003 -1.452642303052647E-003
 -1.452649560599152E-003 -1.452657202091511E-003
 -1.452635494681271E-003 -1.452671272650535E-003
 -1.452655065573823E-003 -1.452651702634708E-003
 -1.452647526162684E-003 -1.452659239640204E-003
 -1.452640364502361E-003 -1.452666422131159E-003
 -1.452654854648685E-003 -1.452651915502466E-003
 -1.452640641939171E-003 -1.452666104448546E-003
 -1.452646670424104E-003 -1.452660125712224E-003
 -1.452635348441941E-003 -1.452671413121220E-003
 -1.452651333997589E-003 -1.452655409203038E-003
 -1.452646694729158E-003 -1.452660078688224E-003
 -1.452641236678426E-003 -1.452665473640753E-003
 -1.452649589707924E-003 -1.452657174924479E-003
 -1.452639880368545E-003 -1.452666906327494E-003
 -1.452652302900236E-003 -1.452654466024781E-003
 -1.452640071141032E-003 -1.452666675540896E-003
 -1.452634968451630E-003 -1.452671799589044E-003
 -1.452652051262946E-003 -1.452654715659400E-003
 -1.452647228230130E-003 -1.452659538803859E-003
 -1.452647140692206E-003 -1.452659625587313E-003
 -1.452654284846783E-003 -1.452652570324005E-003
 -1.452648245817106E-003 -1.452658522039308E-003
 -1.452677549095142E-003 -1.452629234790322E-003
 -1.452654548272522E-003 -1.452652341611566E-003
 -1.452664481624298E-003 -1.452642279376505E-003
 -1.452653260071049E-003 -1.452653496983075E-003
 -1.452653228137424E-003 -1.452653680706197E-003
 -1.452632983615924E-003 -1.452673783401401E-003
 -1.452676991140719E-003 -1.452629767881653E-003
 -1.452656852165083E-003 -1.452650001736569E-003
 -1.452654240312392E-003 -1.452652540008474E-003
 -1.452684437685976E-003 -1.452622348964909E-003
 -1.452656638143494E-003 -1.452650260346754E-003
 -1.452638601075967E-003 -1.452668158434869E-003
 -1.452644953707707E-003 -1.452661817145467E-003
 -1.452653959818131E-003 -1.452652936482282E-003
 -1.452615188252321E-003 -1.452691584733573E-003
 -1.452667544103540E-003 -1.452639229180504E-003
 -1.452655317408146E-003 -1.452651592405670E-003
 -1.452646091434288E-003 -1.452660654923589E-003
 -1.452639841757176E-003 -1.452666927110943E-003
 -1.452655261203346E-003 -1.452651593958434E-003
 -1.452635616889434E-003 -1.452671152247694E-003
 -1.452630688749415E-003 -1.452676094369654E-003
 -1.452651249309677E-003 -1.452655640115370E-003
 -1.452638156783749E-003 -1.452668603228688E-003
 -1.452669273401347E-003 -1.452637481770406E-003
 -1.452654614115760E-003 -1.452652286268327E-003
 -1.452635289605830E-003 -1.452671489150164E-003
 -1.452689156882639E-003 -1.452617621410972E-003
 -1.452657832918480E-003 -1.452649066087746E-003
 -1.452635736551998E-003 -1.452671018828713E-003
 -1.452664105930104E-003 -1.452642664186549E-003
 -1.452656503046327E-003 -1.452650322971110E-003
 -1.452641073532474E-003 -1.452665687048457E-003
 -1.452661017461964E-003 -1.452645776831127E-003
 -1.452655139766726E-003 -1.452651759952927E-003
 -1.452633448568947E-003 -1.452673332728345E-003
 -1.452641911099960E-003 -1.452664832883569E-003
 -1.452650584060730E-003 -1.452656290445149E-003
 -1.452678817683685E-003 -1.452627958354130E-003
 -1.452657279974402E-003 -1.452649480669924E-003
 -1.452653887866550E-003 -1.452653012327304E-003
 -1.452630690588494E-003 -1.452676081830940E-003
 -1.452644783608041E-003 -1.452661982253528E-003
 -1.452654094812334E-003 -1.452652805153801E-003
 -1.452614632410991E-003 -1.452692133501785E-003
 -1.452658008076667E-003 -1.452648753955840E-003
 -1.452657048989105E-003 -1.452649778415638E-003
 -1.452638535995808E-003 -1.452668235217180E-003
 -1.452652990541650E-003 -1.452653739486019E-003
 -1.452651437529350E-003 -1.452655438523496E-003
 -1.452675788272155E-003 -1.452631001029029E-003
 -1.452662006706724E-003 -1.452644725751943E-003
 -1.452656056986750E-003 -1.452650745771716E-003
 -1.452647101319304E-003 -1.452659660053526E-003
 -1.452659965535132E-003 -1.452646825312182E-003
 -1.452657059924976E-003 -1.452649824033402E-003
 -1.452633188848478E-003 -1.452673539764103E-003
 -1.452645117001934E-003 -1.452661679485203E-003
 -1.452651609043347E-003 -1.452655217792317E-003
 -1.452672638552535E-003 -1.452634089636623E-003
 -1.452664510241264E-003 -1.452642234980149E-003
 -1.452657402301347E-003 -1.452649480382677E-003
 -1.452634670524951E-003 -1.452672102819135E-003
 -1.452643743811538E-003 -1.452663032389351E-003
 -1.452651089177858E-003 -1.452655737161279E-003
 -1.452672396178801E-003 -1.452634351790262E-003
 -1.452638085356428E-003 -1.452668658032487E-003
 -1.452649846219828E-003 -1.452657031208215E-003
 -1.452668461454290E-003 -1.452638315012327E-003
 -1.452651859791986E-003 -1.452654876511730E-003
 -1.452655023462475E-003 -1.452651781326999E-003
 -1.452643244264936E-003 -1.452663514422540E-003
 -1.452673293239994E-003 -1.452633484964526E-003
 -1.452656084880474E-003 -1.452650797462214E-003
 -1.452671311952366E-003 -1.452635456390189E-003
 -1.452642630516886E-003 -1.452664147083577E-003
 -1.452647872741891E-003 -1.452659024923816E-003
 -1.452665930590481E-003 -1.452640822278690E-003
 -1.452667673412245E-003 -1.452639099381989E-003
 -1.452649180413888E-003 -1.452657665037961E-003
 -1.452672297629508E-003 -1.452634472714532E-003
 -1.452659039826361E-003 -1.452647725292508E-003
 -1.452646406953810E-003 -1.452660480211401E-003
 -1.452687443928584E-003 -1.452619337867968E-003
 -1.452626753328641E-003 -1.452680028462625E-003
 -1.452644300900606E-003 -1.452662586656996E-003
 -1.452668929879549E-003 -1.452637837904562E-003
 -1.452649971687860E-003 -1.452656791793807E-003
 -1.452647269347821E-003 -1.452659628012986E-003
 -1.452674381010451E-003 -1.452632387405364E-003
 -1.452628959570855E-003 -1.452677805257936E-003
 -1.452647142881248E-003 -1.452659700340026E-003
 -1.452652841839045E-003 -1.452653938015138E-003
 -1.452630427115626E-003 -1.452676355822057E-003
 -1.452653469592283E-003 -1.452653410843534E-003
 -1.452645186064802E-003 -1.452661575640318E-003
 -1.452655356909984E-003 -1.452651402713731E-003
 -1.452648447935264E-003 -1.452658437061752E-003
 -1.452670728440715E-003 -1.452636045296747E-003
 -1.452656474677672E-003 -1.452650291094021E-003
 -1.452645933649500E-003 -1.452660950950322E-003
 -1.452694269086574E-003 -1.452612503991594E-003
 -1.452652728729591E-003 -1.452654026482981E-003
 -1.452653782273995E-003 -1.452653035963950E-003
 -1.452668397266239E-003 -1.452638378977343E-003
 -1.452644224390341E-003 -1.452662559229769E-003
 -1.452644512050540E-003 -1.452662376809956E-003
 -1.452672658568655E-003 -1.452634129857533E-003
 -1.452672116979063E-003 -1.452634633201948E-003
 -1.452659929401990E-003 -1.452646930589326E-003
 -1.452624477138365E-003 -1.452682300983961E-003
 -1.452640373331690E-003 -1.452666376023879E-003
 -1.452647178968411E-003 -1.452659704955020E-003
 -1.452662742127507E-003 -1.452644041821413E-003
 -1.452619568337859E-003 -1.452687211618522E-003
 -1.452642350180851E-003 -1.452664533859877E-003
 -1.452673141060815E-003 -1.452633618557548E-003
 -1.452643515117485E-003 -1.452663252994856E-003
 -1.452653229084644E-003 -1.452653585450047E-003
 -1.452659125620779E-003 -1.452647635704776E-003
 -1.452674724549711E-003 -1.452632022422886E-003
 -1.452659879875450E-003 -1.452646988375832E-003
 -1.452637673115807E-003 -1.452669100379395E-003
 -1.452650837594667E-003 -1.452655906590828E-003
 -1.452651354213708E-003 -1.452655441634416E-003
 -1.452665070547938E-003 -1.452641685659469E-003
 -1.452635384615395E-003 -1.452671365111523E-003
 -1.452644840426697E-003 -1.452662028070739E-003
 -1.452670204896163E-003 -1.452636572531311E-003
 -1.452663285830590E-003 -1.452643486644996E-003
 -1.452657809827933E-003 -1.452649010929756E-003
 -1.452635683494360E-003 -1.452671073271266E-003
 -1.452644636563103E-003 -1.452662135285680E-003
 -1.452645557370973E-003 -1.452661310290663E-003
 -1.452675164020737E-003 -1.452631578185640E-003
 -1.452663994348146E-003 -1.452642798337410E-003
 -1.452657938105632E-003 -1.452648881938300E-003
 -1.452636078579015E-003 -1.452670655509465E-003
 -1.452658850590035E-003 -1.452647878406780E-003
 -1.452658597281893E-003 -1.452648267746695E-003
 -1.452626132947078E-003 -1.452680660821734E-003
 -1.452645471303947E-003 -1.452661263660271E-003
 -1.452650275255331E-003 -1.452656520198279E-003
 -1.452662315713666E-003 -1.452644457866999E-003
 -1.452661431817954E-003 -1.452645336531308E-003
 -1.452655134049406E-003 -1.452651720221772E-003
 -1.452660642319526E-003 -1.452646131739862E-003
 -1.452631579732877E-003 -1.452675203707303E-003
 -1.452642602444410E-003 -1.452664161648544E-003
 -1.452640529019791E-003 -1.452666242354939E-003
 -1.452693181833805E-003 -1.452613594420963E-003
 -1.452687793907211E-003 -1.452618962501158E-003
 -1.452669815418954E-003 -1.452636974291190E-003
 -1.452616102995951E-003 -1.452690694789025E-003
 -1.452651387785575E-003 -1.452655336621553E-003
 -1.452633796757903E-003 -1.452672992982109E-003
 -1.452656690382601E-003 -1.452650102460109E-003
 -1.452664719939148E-003 -1.452641989382012E-003
 -1.452656375291407E-003 -1.452650396357634E-003
 -1.452692854975608E-003 -1.452613915887139E-003
 -1.452664301377341E-003 -1.452642485184115E-003
 -1.452667604116540E-003 -1.452639160743758E-003
 -1.452615829340657E-003 -1.452690961345365E-003
 -1.452630900265588E-003 -1.452675833013473E-003
 -1.452644733709379E-003 -1.452662055420125E-003
 -1.452660360650309E-003 -1.452646413943790E-003
 -1.452644830696505E-003 -1.452661897518858E-003
 -1.452664242267354E-003 -1.452642525556540E-003
 -1.452706185787996E-003 -1.452600602243357E-003
 -1.452639634682989E-003 -1.452667123097972E-003
 -1.452674809514056E-003 -1.452631973687778E-003
 -1.452651680231162E-003 -1.452655110109814E-003
 -1.452656552144304E-003 -1.452650305806396E-003
 -1.452660093462171E-003 -1.452646657911998E-003
 -1.452697146354368E-003 -1.452609631331851E-003
 -1.452665567491609E-003 -1.452641303089107E-003
 -1.452653792625319E-003 -1.452652981090070E-003
 -1.452692035649029E-003 -1.452614739871384E-003
 -1.452664110638630E-003 -1.452642757637571E-003
 -1.452676324971484E-003 -1.452630446306282E-003
 -1.452623036726886E-003 -1.452683766530772E-003
 -1.452644650787145E-003 -1.452662201760335E-003
 -1.452651219065554E-003 -1.452655533095087E-003
 -1.452676146486940E-003 -1.452630611874240E-003
 -1.452657941405608E-003 -1.452648911516495E-003
 -1.452661138684629E-003 -1.452645632927667E-003
 -1.452636422379091E-003 -1.452670321341303E-003
 -1.452646082500095E-003 -1.452660731649538E-003
 -1.452639022946295E-003 -1.452667770783159E-003
 -1.452640119692215E-003 -1.452666688148492E-003
 -1.452646930811885E-003 -1.452659931316326E-003
 -1.452628026993390E-003 -1.452678715648007E-003
 -1.452656828426159E-003 -1.452649973937207E-003
 -1.452652917260188E-003 -1.452653891536552E-003
 -1.452655640067303E-003 -1.452651109708446E-003
 -1.452685331103412E-003 -1.452621445875578E-003
 -1.452663627993881E-003 -1.452643236905697E-003
 -1.452668774392118E-003 -1.452637987560596E-003
 -1.452658567417249E-003 -1.452648192575839E-003
 -1.452659444800370E-003 -1.452647360625372E-003
 -1.452642778818885E-003 -1.452664003475551E-003
 -1.452660632874811E-003 -1.452646144750336E-003
 -1.452654354200642E-003 -1.452652520437126E-003
 -1.452643811948199E-003 -1.452662933887824E-003
 -1.452672957163034E-003 -1.452633814392276E-003
 -1.452665143732671E-003 -1.452641694732269E-003
 -1.452655668958694E-003 -1.452651106117547E-003
 -1.452621250468509E-003 -1.452685541799322E-003
 -1.452644033705170E-003 -1.452662819474995E-003
 -1.452644424327196E-003 -1.452662338206771E-003
 -1.452675705135206E-003 -1.452631047258605E-003
 -1.452657436779398E-003 -1.452649406695653E-003
 -1.452649103974327E-003 -1.452657663487525E-003
 -1.452633759473946E-003 -1.452672976888365E-003
 -1.452647025140976E-003 -1.452659782311004E-003
 -1.452657440007179E-003 -1.452649353230166E-003
 -1.452623704443278E-003 -1.452683096952309E-003
 -1.452645737088274E-003 -1.452661119676522E-003
 -1.452670608329089E-003 -1.452636144278256E-003
 -1.452655917901807E-003 -1.452650874000135E-003
 -1.452651997902608E-003 -1.452654810899148E-003
 -1.452653471566458E-003 -1.452653300402494E-003
 -1.452688600341539E-003 -1.452618167887978E-003
 -1.452660261060732E-003 -1.452646598619434E-003
 -1.452653169566496E-003 -1.452653596409463E-003
 -1.452653054849551E-003 -1.452653722544252E-003
 -1.452650781000473E-003 -1.452656013184968E-003
 -1.452666279691767E-003 -1.452640478286146E-003
 -1.452650579825603E-003 -1.452656199068023E-003
 -1.452654811538112E-003 -1.452652060328902E-003
 -1.452670803367936E-003 -1.452635951331439E-003
 -1.452673981376385E-003 -1.452632787592152E-003
 -1.452660641832760E-003 -1.452646191741628E-003
 -1.452663442317263E-003 -1.452643344046347E-003
 -1.452647659294357E-003 -1.452659143070103E-003
 -1.452661672133090E-003 -1.452645073183351E-003
 -1.452646087350239E-003 -1.452660647907332E-003
 -1.452663382965206E-003 -1.452643413274386E-003
 -1.452664527827161E-003 -1.452642203805067E-003
 -1.452666881884430E-003 -1.452639879090182E-003
 -1.452656556025751E-003 -1.452650241820194E-003
 -1.452658468324935E-003 -1.452648317160438E-003
 -1.452678497277371E-003 -1.452628258799278E-003
 -1.452645283197687E-003 -1.452661484572703E-003
 -1.452637592402667E-003 -1.452669165269832E-003
 -1.452665207700579E-003 -1.452641565687030E-003
 -1.452663664342837E-003 -1.452643114459562E-003
 -1.452644920726704E-003 -1.452661824107417E-003
 -1.452654076461320E-003 -1.452652700412187E-003
 -1.452672913747476E-003 -1.452633864888017E-003
 -1.452652255725029E-003 -1.452654529182876E-003
 -1.452648929066316E-003 -1.452657853946381E-003
 -1.452642852877982E-003 -1.452663948689168E-003
 -1.452645193120370E-003 -1.452661583574166E-003
 -1.452643810516377E-003 -1.452662939502424E-003
 -1.452682034554995E-003 -1.452624722359009E-003
 -1.452652172012291E-003 -1.452654583997520E-003
 -1.452651655224414E-003 -1.452655137418541E-003
 -1.452655436941337E-003 -1.452651343729530E-003
 -1.452636500271407E-003 -1.452670249373367E-003
 -1.452665176118794E-003 -1.452641581440836E-003
 -1.452667426500634E-003 -1.452639329538392E-003
 -1.452622422126450E-003 -1.452684355945498E-003
 -1.452651963490899E-003 -1.452654803612724E-003
 -1.452649106393395E-003 -1.452657665630848E-003
 -1.452635567037887E-003 -1.452671205741070E-003
 -1.452665707173877E-003 -1.452641074671933E-003
 -1.452672743560760E-003 -1.452634073128415E-003
 -1.452663740461458E-003 -1.452643010766884E-003
 -1.452673967351266E-003 -1.452632765396205E-003
 -1.452653992961509E-003 -1.452652794859687E-003
 -1.452671655325090E-003 -1.452635081194929E-003
 -1.452648026992792E-003 -1.452658721523004E-003
 -1.452658216924672E-003 -1.452648569250343E-003
 -1.452672007907077E-003 -1.452634769807984E-003
 -1.452645506146258E-003 -1.452661254675570E-003
 -1.452648250329040E-003 -1.452658537042506E-003
 -1.452681128352441E-003 -1.452625623123090E-003
 -1.452665029464012E-003 -1.452641725418638E-003
 -1.452662679123111E-003 -1.452644144378618E-003
 -1.452639909171642E-003 -1.452666844235584E-003
 -1.452659348150031E-003 -1.452647376493668E-003
 -1.452663533217519E-003 -1.452643246551241E-003
 -1.452641841175421E-003 -1.452664864000312E-003
 -1.452656371839403E-003 -1.452650392702877E-003
 -1.452672630265228E-003 -1.452634152650711E-003
 -1.452656286292017E-003 -1.452650480936387E-003
 -1.452654254810176E-003 -1.452652497049742E-003
 -1.452670898695270E-003 -1.452635895994147E-003
 -1.452656578977987E-003 -1.452650185231096E-003
 -1.452662927142781E-003 -1.452643816272700E-003
 -1.452652176680354E-003 -1.452654620235395E-003
 -1.452675074750438E-003 -1.452631708828110E-003
 -1.452656511486104E-003 -1.452650208554745E-003
 -1.452658251538444E-003 -1.452648509273686E-003
 -1.452665418569236E-003 -1.452641309951295E-003
 -1.452654925832016E-003 -1.452651832189536E-003
 -1.452670156540678E-003 -1.452636618103075E-003
 -1.452658266930602E-003 -1.452648508412049E-003
 -1.452653673018979E-003 -1.452653079891376E-003
 -1.452668970433536E-003 -1.452637817315276E-003
 -1.452659098203703E-003 -1.452647673595644E-003
 -1.452661599310209E-003 -1.452645142440180E-003
 Gradient of SCF Energy
            1           2           3           4           5           6
    1   0.0014885  -0.0021348  -0.0007579  -0.0050315  -0.0050107   0.0014455
    2   0.0000265   0.0001798   0.0002308   0.0000458   0.0001318   0.0000056
    3   0.0008945  -0.0011469  -0.0021072   0.0008044  -0.0022699   0.0008767
            7           8           9          10          11          12
    1   0.0002941   0.0001204   0.0051323  -0.0010889   0.0025671   0.0003345
    2  -0.0000471  -0.0000117  -0.0000388   0.0000108   0.0000143  -0.0000300
    3  -0.0039440   0.0009322  -0.0024082   0.0008624   0.0021934   0.0006045
           13          14          15          16          17          18
    1  -0.0011564  -0.0046254   0.0016339  -0.0033951   0.0007836   0.0006381
    2  -0.0000123   0.0000456   0.0000555   0.0000113  -0.0000267  -0.0000553
    3  -0.0048421  -0.0027387   0.0004302   0.0020567  -0.0002649   0.0055493
           19          20          21          22          23          24
    1   0.0001180   0.0033171   0.0009322  -0.0008298  -0.0006407   0.0004804
    2   0.0000318   0.0000075  -0.0000339  -0.0006428  -0.0025320   0.0007534
    3  -0.0010510   0.0010301   0.0001718  -0.0005193  -0.0003338   0.0003748
           25          26          27          28          29          30
    1  -0.0012025   0.0003730  -0.0000087   0.0005520  -0.0003776   0.0004727
    2   0.0019531  -0.0005452  -0.0000285  -0.0006737  -0.0001725   0.0018527
    3  -0.0000211   0.0002936   0.0001607   0.0003357   0.0002575  -0.0010262
           31          32          33          34          35          36
    1   0.0003697   0.0001750  -0.0006209   0.0002760   0.0010804   0.0008936
    2  -0.0010750  -0.0002626  -0.0015232   0.0004159   0.0013048   0.0000924
    3   0.0010514   0.0003157   0.0010881  -0.0001165  -0.0003320   0.0003114
           37          38          39          40          41          42
    1  -0.0000709   0.0003849  -0.0002204   0.0004872  -0.0003085  -0.0002151
    2   0.0015816  -0.0004793  -0.0007438  -0.0001648  -0.0012725   0.0008963
    3  -0.0001164   0.0005799  -0.0000788   0.0001684  -0.0000368  -0.0000884
           43          44          45          46          47          48
    1   0.0006419   0.0005729  -0.0012718   0.0012395   0.0004058   0.0012185
    2   0.0003241   0.0002052   0.0009476  -0.0008480  -0.0000824   0.0000627
    3  -0.0001100   0.0003491  -0.0005758   0.0006580   0.0010525   0.0001304
           49          50          51          52          53          54
    1  -0.0010457   0.0012326   0.0010242   0.0004135   0.0002400  -0.0012730
    2  -0.0011946   0.0007554   0.0000202  -0.0000560  -0.0001034  -0.0001478
    3  -0.0004953   0.0006629   0.0001536   0.0010772   0.0004806  -0.0001004
           55          56          57          58          59          60
    1  -0.0028670   0.0011312  -0.0028243   0.0002484   0.0016800  -0.0003728
    2  -0.0002156   0.0000371   0.0000346   0.0002578   0.0001353  -0.0001368
    3  -0.0010805   0.0006258  -0.0042931  -0.0036055   0.0016100  -0.0002562
           61          62          63          64          65          66
    1   0.0002540  -0.0006868  -0.0049999   0.0034029  -0.0026514  -0.0000332
    2   0.0001378  -0.0001484  -0.0006102   0.0004181  -0.0001480  -0.0000568
    3   0.0004044   0.0003901   0.0001575   0.0004028  -0.0025310   0.0007755
           67          68          69          70          71          72
    1  -0.0019696   0.0048371  -0.0016493  -0.0020590   0.0023340   0.0028091
    2  -0.0004271   0.0003123   0.0000125  -0.0000640   0.0000824   0.0008710
    3   0.0013008   0.0045076  -0.0019388  -0.0028251   0.0030616  -0.0043660
           73          74          75          76          77          78
    1  -0.0007853   0.0034596  -0.0015993   0.0051898  -0.0031282  -0.0002509
    2  -0.0004202   0.0009384  -0.0005432   0.0005404  -0.0004848   0.0003188
    3   0.0037642  -0.0041513   0.0033502   0.0008421   0.0003974  -0.0012047
           79          80          81          82          83          84
    1  -0.0022639   0.0010043  -0.0031810  -0.0015421   0.0026975  -0.0008602
    2  -0.0000772   0.0001694  -0.0007219  -0.0007013   0.0003147   0.0000039
    3  -0.0018045   0.0008384  -0.0024658   0.0003227   0.0008730  -0.0003207
           85          86          87          88          89          90
    1   0.0011283  -0.0003104  -0.0030105   0.0022455  -0.0024973   0.0005119
    2   0.0003811   0.0003560   0.0002247  -0.0000897  -0.0003308   0.0002121
    3   0.0003203  -0.0011024  -0.0034885   0.0028837  -0.0031265   0.0000099
           91          92          93          94          95          96
    1   0.0000022   0.0062060  -0.0029028  -0.0038492   0.0037788  -0.0020376
    2   0.0002701   0.0008107  -0.0004530  -0.0007581   0.0006743  -0.0013719
    3  -0.0020892   0.0016470   0.0001384   0.0005710   0.0002122   0.0056219
           97          98          99         100         101         102
    1   0.0023731  -0.0014199   0.0014801   0.0036831  -0.0018184   0.0009083
    2   0.0010514  -0.0012643   0.0009559  -0.0001149   0.0002709   0.0004999
    3  -0.0027170   0.0057627  -0.0031798   0.0043818  -0.0026947   0.0003524
          103         104         105         106         107         108
    1  -0.0012173  -0.0009440   0.0001890  -0.0001480  -0.0014532   0.0002754
    2  -0.0002641  -0.0012923  -0.0028729   0.0007580  -0.0007826   0.0022426
    3   0.0005911  -0.0004628   0.0007201   0.0001064  -0.0005027   0.0006444
          109         110         111         112         113         114
    1   0.0003467  -0.0010007  -0.0011496   0.0000797  -0.0023142   0.0001661
    2  -0.0004400   0.0002483  -0.0000918   0.0001450  -0.0000363   0.0002417
    3   0.0001318  -0.0003711  -0.0001971  -0.0035607  -0.0000259   0.0015086
          115         116         117         118         119         120
    1   0.0044729  -0.0012663   0.0033470  -0.0005327  -0.0011542   0.0004092
    2   0.0013379  -0.0003654   0.0005152  -0.0000873  -0.0006938   0.0002023
    3   0.0017109  -0.0001038  -0.0023278   0.0006689  -0.0053997   0.0016602
          121         122         123         124         125         126
    1  -0.0028972  -0.0001137   0.0023644   0.0048126  -0.0011323   0.0008058
    2  -0.0005771  -0.0001096   0.0003608   0.0013527  -0.0003869   0.0004032
    3   0.0000296   0.0005806  -0.0024580   0.0013213  -0.0002479   0.0039632
          127         128         129         130         131         132
    1  -0.0000460  -0.0040106   0.0007570  -0.0023267  -0.0001685   0.0013206
    2  -0.0000500  -0.0006751   0.0001526  -0.0006104   0.0000753   0.0023711
    3  -0.0005063   0.0036564  -0.0005233  -0.0014438  -0.0004263  -0.0002080
          133         134         135         136         137         138
    1  -0.0005882   0.0000754   0.0005951  -0.0004946   0.0005404   0.0000718
    2  -0.0011808  -0.0006235  -0.0017056   0.0011260   0.0006048  -0.0005207
    3   0.0004062   0.0001918   0.0019845  -0.0010708  -0.0002597   0.0005197
          139         140         141         142         143         144
    1   0.0010727  -0.0001334   0.0001974  -0.0002257   0.0005307  -0.0002963
    2  -0.0012113   0.0004068   0.0009456   0.0002340   0.0015062  -0.0006992
    3   0.0005052  -0.0005061   0.0001122   0.0000778  -0.0000874   0.0003936
          145         146         147         148         149         150
    1   0.0001223   0.0004364   0.0020380  -0.0009190  -0.0000953  -0.0004108
    2   0.0000018  -0.0006447  -0.0007562   0.0006486   0.0000346  -0.0001063
    3   0.0000504   0.0002060   0.0010076   0.0000181  -0.0006107   0.0004145
          151         152         153         154
    1   0.0018772  -0.0005335  -0.0004741  -0.0007054
    2   0.0017104  -0.0010029  -0.0000869  -0.0000641
    3   0.0007944  -0.0000497  -0.0006272   0.0005333
 Max gradient component =       6.206E-03
 RMS gradient           =       1.631E-03
 Computing fast IEFPCM-SWIG gradient.
 Updating gradient with PCM contributions...
 -- total gradient after adding PCM contribution --
---------------------------------------------------
  Atom         X              Y              Z     
---------------------------------------------------
   1      -0.000426       0.000024      -0.000154
   2      -0.001735       0.000145      -0.001270
   3      -0.000641       0.000258      -0.001665
   4      -0.002155      -0.000009      -0.000485
   5      -0.001764       0.000110      -0.000277
   6       0.000214       0.000053       0.000019
   7       0.000418      -0.000047      -0.000696
   8       0.000115      -0.000007      -0.000132
   9       0.001410      -0.000048      -0.000236
  10       0.000334       0.000029       0.000132
  11       0.000849       0.000072       0.000875
  12       0.000461      -0.000036      -0.000079
  13      -0.000754      -0.000061      -0.001712
  14      -0.001199       0.000003      -0.000941
  15       0.000248       0.000078      -0.000163
  16      -0.000576       0.000015       0.000482
  17      -0.000066      -0.000031       0.000235
  18       0.000547       0.000026       0.001444
  19       0.000210      -0.000027       0.000290
  20       0.001296       0.000007       0.000320
  21       0.000369      -0.000076       0.000562
  22       0.000182      -0.000575      -0.000019
  23      -0.000744      -0.000578      -0.000242
  24       0.000464      -0.000398       0.000296
  25      -0.001090       0.000060      -0.000107
  26       0.000335       0.000482       0.000342
  27      -0.000411      -0.000250      -0.000070
  28       0.000268      -0.000539       0.000274
  29      -0.000485      -0.000006       0.000190
  30       0.000735       0.000284      -0.000273
  31      -0.000083       0.000019       0.000272
  32       0.000239       0.000070       0.000436
  33       0.000276       0.000106       0.000482
  34       0.000419       0.000105      -0.000023
  35       0.000057       0.000120      -0.000112
  36       0.000361       0.000099       0.000011
  37       0.000200       0.000200       0.000336
  38       0.000214      -0.000104       0.000199
  39       0.000162       0.000133      -0.000026
  40       0.000038       0.000063      -0.000039
  41       0.000160       0.000033       0.000157
  42       0.000045      -0.000041       0.000194
  43       0.000333       0.000116      -0.000081
  44       0.000024      -0.000009       0.000021
  45       0.000218      -0.000360       0.000248
  46       0.000566      -0.000341       0.000282
  47       0.000012       0.000128       0.000058
  48       0.000178       0.000266       0.000326
  49       0.000443       0.000072       0.000302
  50       0.000531       0.000268       0.000261
  51       0.000015      -0.000159       0.000307
  52       0.000008      -0.000237       0.000143
  53       0.000323      -0.000113       0.000578
  54      -0.000593      -0.000073      -0.000607
  55      -0.001059      -0.000029      -0.000027
  56       0.000563      -0.000029      -0.000228
  57      -0.002525      -0.000074      -0.002856
  58      -0.001109      -0.000021      -0.002876
  59      -0.000034       0.000006       0.000817
  60       0.000471      -0.000060      -0.000408
  61       0.000192       0.000167      -0.000378
  62      -0.000308       0.000016      -0.000717
  63      -0.000574      -0.000021       0.000720
  64       0.000189      -0.000057       0.000340
  65      -0.002834      -0.000204      -0.002261
  66       0.000100      -0.000036       0.000554
  67      -0.001289      -0.000234       0.000248
  68       0.001575       0.000156       0.001536
  69       0.000428       0.000044       0.000426
  70       0.000315      -0.000014       0.000378
  71       0.000139       0.000013       0.000214
  72       0.001425       0.000305      -0.000052
  73       0.000418       0.000063       0.000221
  74       0.001092       0.000252      -0.000253
  75       0.000286       0.000012       0.000134
  76       0.001318      -0.000028       0.001071
  77       0.000365       0.000010       0.000269
  78      -0.000123       0.000155      -0.000463
  79      -0.000252       0.000164      -0.000997
  80      -0.000112      -0.000008       0.000824
  81      -0.002040      -0.000456      -0.003002
  82      -0.001833      -0.000547      -0.000990
  83       0.000818       0.000269      -0.000245
  84      -0.000109      -0.000093       0.000630
  85       0.000512       0.000234       0.000558
  86      -0.000810       0.000090      -0.000248
  87       0.000070       0.000157      -0.000179
  88       0.000184       0.000063       0.000215
  89      -0.002427      -0.000285      -0.003390
  90       0.000447       0.000174       0.000205
  91      -0.000400       0.000017      -0.001145
  92       0.001723       0.000181       0.000892
  93       0.000495       0.000091       0.000351
  94       0.000057      -0.000016       0.000591
  95       0.000170       0.000017       0.000118
  96       0.000511      -0.000180       0.002025
  97       0.000321       0.000031       0.000402
  98       0.000054      -0.000117       0.001532
  99       0.000126      -0.000009       0.000321
 100       0.001457       0.000148       0.001120
 101       0.000312       0.000038       0.000277
 102       0.000758       0.000439       0.000351
 103      -0.001016      -0.000005       0.000604
 104      -0.000756      -0.000987      -0.000239
 105      -0.000040      -0.000926       0.000697
 106       0.000046      -0.000304       0.000137
 107      -0.002654      -0.000874      -0.001019
 108       0.000563       0.000471       0.000725
 109       0.000122       0.000373       0.000067
 110      -0.000325      -0.000021      -0.000114
 111       0.000867       0.000308       0.000592
 112      -0.000328       0.000057      -0.003350
 113      -0.002532      -0.000108      -0.000427
 114      -0.000839      -0.000202      -0.001556
 115       0.000946       0.000417       0.000589
 116       0.000164      -0.000019       0.000219
 117       0.000903       0.000068      -0.000207
 118       0.000241       0.000046      -0.000047
 119      -0.000276      -0.000194      -0.001055
 120      -0.000017       0.000014      -0.000001
 121      -0.000801      -0.000058       0.000503
 122       0.000296      -0.000061      -0.000011
 123      -0.000330      -0.000148      -0.000614
 124       0.001383       0.000422       0.000040
 125       0.000061      -0.000025       0.000304
 126       0.000082       0.000048       0.000828
 127       0.000120       0.000040       0.000321
 128      -0.001014      -0.000083       0.000988
 129      -0.000084      -0.000035       0.000177
 130      -0.000712      -0.000179      -0.000339
 131       0.000184       0.000169       0.000330
 132       0.000838       0.000767      -0.000115
 133       0.000051      -0.000028       0.000300
 134      -0.000056      -0.000305       0.000275
 135       0.000116      -0.000226       0.000795
 136       0.000255       0.000120      -0.000109
 137       0.000431       0.000281      -0.000217
 138       0.000698      -0.000351       0.000740
 139       0.000443       0.000061      -0.000058
 140       0.000154       0.000086      -0.000035
 141      -0.000020       0.000020       0.000226
 142       0.000319       0.000131       0.000234
 143       0.000162       0.000051       0.000309
 144       0.000176      -0.000088       0.000222
 145       0.000331       0.000260       0.000143
 146       0.000097       0.000082      -0.000108
 147       0.000288       0.000142       0.000480
 148      -0.000051       0.000363       0.000319
 149       0.000458       0.000026       0.000119
 150       0.000529      -0.000109       0.000130
 151       0.000693      -0.000022       0.000376
 152       0.000107      -0.000242       0.000169
 153      -0.000021       0.000295       0.000214
 154       0.000138       0.000363       0.000163
---------------------------------------------------
[...]
    146  H        -7.8662855294   -4.7019279698   -5.5928732246
    147  C       -16.2863961081   -2.2692218252   -8.1636083787
    148  H       -15.7425837798   -3.1704096060   -7.8797319393
    149  H       -16.4335478530   -2.2911110162   -9.2441422153
    150  H       -17.2748280430   -2.3135406199   -7.7045365341
    151  C       -16.3160890720    0.2415930629   -8.1607835688
    152  H       -15.7922563666    1.1549377985   -7.8780875816
    153  H       -16.4662819898    0.2600708796   -9.2411380908
    154  H       -17.3031444269    0.2619859130   -7.6970412840
   Point Group: c1    Number of degrees of freedom:   456


   Energy is  -3317.818958745

 Hessian Updated using BFGS Update

429 Hessian modes will be used to form the next step
  Hessian Eigenvalues:
     0.001015    0.004003    0.004009    0.004086    0.004198    0.004393
     0.005275    0.005505    0.005561    0.005596    0.006507    0.008214
     0.008355    0.008584    0.011079    0.011819    0.012591    0.012708
     0.013442    0.014400    0.014958    0.015281    0.015431    0.015677
     0.016234    0.016532    0.016819    0.016990    0.017070    0.017123
     0.017355    0.017761    0.017910    0.017989    0.018342    0.018427
     0.018474    0.018597    0.018644    0.019004    0.019130    0.019184
     0.020029    0.020265    0.020389    0.020485    0.020555    0.020702
     0.021008    0.021051    0.021090    0.021107    0.021232    0.021324
     0.021428    0.021462    0.021615    0.021646    0.021708    0.021806
     0.022145    0.022256    0.022315    0.022504    0.022533    0.022542
     0.022658    0.022743    0.022786    0.022913    0.023183    0.023198
     0.023211    0.023240    0.023285    0.023339    0.023437    0.023467
     0.023475    0.023515    0.023565    0.023574    0.023648    0.023669
     0.023764    0.023799    0.023809    0.023841    0.023852    0.023866
     0.023896    0.023923    0.024008    0.024047    0.024060    0.024090
     0.024106    0.024124    0.024152    0.024159    0.024184    0.024385
     0.024414    0.024504    0.024524    0.024530    0.024541    0.024541
     0.024553    0.024575    0.024591    0.024679    0.024717    0.024733
     0.024736    0.024755    0.024799    0.024884    0.025947    0.028351
     0.036248    0.038976    0.042393    0.042936    0.044786    0.046466
     0.052141    0.053586    0.054359    0.054800    0.054850    0.054906
     0.055080    0.055104    0.055209    0.055483    0.055535    0.055627
     0.055640    0.055768    0.055934    0.056026    0.056077    0.056230
     0.056289    0.056314    0.056427    0.056590    0.056630    0.058402
     0.061074    0.078582    0.079293    0.093563    0.093942    0.094582
     0.094775    0.128528    0.128949    0.129534    0.129872    0.133944
     0.134648    0.155348    0.157730    0.158581    0.159180    0.159470
     0.159755    0.159982    0.159984    0.159988    0.159995    0.159998
     0.159999    0.159999    0.159999    0.159999    0.159999    0.159999
     0.160000    0.160000    0.160000    0.160000    0.160000    0.160000
     0.160000    0.160114    0.160304    0.160347    0.160570    0.160590
     0.160907    0.161272    0.161447    0.162235    0.177190    0.178776
     0.205045    0.217663    0.219459    0.219952    0.220002    0.220027
     0.220073    0.220608    0.220968    0.221972    0.222146    0.222331
     0.225119    0.225979    0.226029    0.226362    0.227767    0.231598
     0.231951    0.233798    0.234555    0.234878    0.235243    0.235357
     0.235853    0.237443    0.237551    0.239200    0.239918    0.241802
     0.242889    0.244732    0.245058    0.245275    0.246805    0.247378
     0.248975    0.249191    0.249460    0.249630    0.249674    0.249730
     0.249768    0.249803    0.249835    0.249852    0.249877    0.249925
     0.249951    0.249967    0.249972    0.249987    0.250741    0.251480
     0.251935    0.254961    0.256240    0.256971    0.257807    0.264788
     0.267397    0.273292    0.273844    0.278984    0.285343    0.286557
     0.286730    0.286983    0.288363    0.289296    0.296652    0.296724
     0.296915    0.297137    0.297523    0.299223    0.305651    0.313401
     0.316796    0.317625    0.318617    0.324258    0.335480    0.338205
     0.339493    0.341921    0.343910    0.344276    0.344446    0.344536
     0.344646    0.344715    0.345039    0.345128    0.346669    0.347174
     0.347255    0.347266    0.347423    0.347453    0.347501    0.347589
     0.347638    0.347648    0.347733    0.347789    0.347807    0.347811
     0.347852    0.348042    0.348177    0.348179    0.348380    0.348536
     0.348651    0.348995    0.349237    0.351086    0.352652    0.354442
     0.354518    0.354605    0.354661    0.354676    0.354780    0.354919
     0.355141    0.356027    0.356041    0.356094    0.356181    0.356239
     0.356279    0.356333    0.356387    0.356410    0.356472    0.356756
     0.356871    0.356909    0.357148    0.357209    0.357224    0.357304
     0.357346    0.357580    0.357650    0.358209    0.358212    0.358230
     0.358355    0.359115    0.359562    0.359698    0.361420    0.369167
     0.370131    0.382485    0.392382    0.396510    0.401018    0.404501
     0.409377    0.410498    0.415006    0.415869    0.415913    0.419650
     0.422770    0.423177    0.423352    0.423712    0.424971    0.425500
     0.426546    0.426866    0.427280    0.427873    0.428112    0.431237
     0.432290    0.433029    0.434194    0.434995    0.435305    0.439118
     0.441779    0.448858    0.449456    0.453636    0.454486    0.456980
     0.457362    0.457543    0.458029    0.460766    0.461454    0.462008
     0.462412    0.471881    0.472740    0.473211    0.473255    0.473551
     0.473763    0.474130    0.475135    0.476234    0.476561    0.476959
     0.479368    0.479773    0.479876    0.480318    0.481343    0.482570
     0.483499    0.484218    0.484620    0.484833    0.486811    0.487043
     0.487096    0.487161    0.487416    0.491775    0.500381    0.501295
     0.502385    0.505507    0.528902

 Minimum Search - Taking Simple RFO Step
 Searching for Lamda that Minimizes Along All modes
 Value Taken    Lamda =  -0.00000765
 Step Taken.  Stepsize is  0.027667

                             Maximum     Tolerance    Cnvgd?
         Gradient           0.000181      0.000300     YES
         Displacement       0.008157      0.001200      NO
         Energy change     -0.000016      0.000001      NO


 New Cartesian Coordinates Obtained by Inverse Iteration

 Displacement from previous Coordinates is:  0.202995
 Adding empirical dispersion correction 
 ----------------------------------------------------------------
 Doing -D3(BJ) with
 s6 =   1.00000
 s8 =   0.00000
 a1 =   0.48600
 a2 =   4.50000
 -D3 energy including 3body term =     -0.1505339472 hartrees
 ----------------------------------------------------------------
 Adding gCP correction 
 ----------------------------------------------------------------
 gCP energy =      0.2092771750 hartrees
 ----------------------------------------------------------------
             Standard Nuclear Orientation (Angstroms)
    I     Atom           X                Y                Z
 ----------------------------------------------------------------
    1      N       0.0670842637     0.5488036504    -0.1048499098
    2      C       0.3873947509     0.5137245700     1.2475976061
    3      C       1.0418741949     0.7030511657    -1.0840434519
    4      C       1.7122023528     0.6602699991     1.6723452259
    5      C       1.9698158819     0.6182342572     3.0394460576
    6      H       2.9901998978     0.7323100749     3.3841782989
    7      C       0.9708985090     0.4369379727     3.9804547555
    8      H       1.2120386698     0.4092109177     5.0345283104
    9      C      -0.3376801308     0.2952516181     3.5453702488
   10      H      -1.1421815010     0.1548705331     4.2558528514
   11      C      -0.6280850891     0.3341849622     2.1954224367
   12      H      -1.6542588974     0.2245050444     1.8738783295
   13      C       2.3878056907     0.8578501741    -0.7372192812
   14      C       3.3178393393     1.0100634415    -1.7623192330
   15      H       4.3629595264     1.1339035851    -1.5067710938
   16      C       2.9620391101     1.0129367436    -3.0996500814
   17      H       3.7152871004     1.1338395978    -3.8665040572
   18      C       1.6249804644     0.8584665355    -3.4307340711
   19      H       1.3103186547     0.8569079574    -4.4668993073
   20      C       0.6768076410     0.7051817919    -2.4383378003
   21      H      -0.3587768176     0.5886142126    -2.7246284686
   22      C      -1.2738234349     0.3175332458    -0.5202275627
   23      C      -2.1234190271     1.3863280329    -0.7594949405
   24      H      -1.7711715888     2.3967422342    -0.5834935997
   25      C      -1.7137205206    -0.9772665752    -0.7377077653
   26      H      -1.0417668331    -1.8067261669    -0.5442815850
   27      C      -2.9927496940    -1.2173590963    -1.2290640342
   28      C      -3.4051453879     1.1681434882    -1.2516354055
   29      C      -3.8431778023    -0.1396583606    -1.5043770583
   30      C      -3.4036306631    -2.6376706804    -1.5272555742
   31      H      -3.0572319209    -3.2923980593    -0.7233479366
   32      H      -4.4931167206    -2.7281035706    -1.5332585500
   33      C      -4.3248315681     2.3408726512    -1.4720642717
   34      H      -5.0024947075     2.1396015377    -2.3077618818
   35      H      -3.7418480187     3.2164173864    -1.7670145161
   36      C       2.8630495011     0.8759658224     0.7043946769
   37      C      -2.8484878991    -3.1428964267    -2.8577716025
   38      H      -3.2115939836    -2.5441770586    -3.6934652387
   39      H      -3.1489568478    -4.1760015354    -3.0349321629
   40      H      -1.7585331711    -3.1050432401    -2.8698431970
   41      C      -5.1436058441     2.6737241091    -0.2264506979
   42      H      -5.8044350100     3.5212752429    -0.4109465387
   43      H      -5.7629929081     1.8294544235     0.0771278242
   44      H      -4.4948244566     2.9297494453     0.6119624769
   45      C       3.5024254039     2.2443792008     0.9933033033
   46      H       2.7763543266     3.0457854115     0.8532391344
   47      H       3.8729788463     2.2994328294     2.0174886489
   48      H       4.3461468467     2.4357422364     0.3288909665
   49      C       3.9017710883    -0.2407946371     0.9015706955
   50      H       3.4610576944    -1.2179207304     0.7018243478
   51      H       4.7545600578    -0.1140685501     0.2335998875
   52      H       4.2893585309    -0.2473880533     1.9206285449
   53      B      -5.2372100217    -0.3795226556    -2.1942665747
   54      C      -6.5110850030    -0.7329826826    -1.3711562031
   55      C      -6.4356178717    -0.9445737398     0.0112074738
   56      H      -5.4812311116    -0.8527574588     0.5180404888
   57      C      -7.5743662978    -1.2790387969     0.7270914759
   58      C      -8.8140567508    -1.3858946107     0.0579421195
   59      C      -8.9037471040    -1.1644083311    -1.3023368376
   60      H      -9.8617363235    -1.2456357611    -1.8040514539
   61      C      -7.7594855635    -0.8469130406    -2.0334201203
   62      C      -7.8063475914    -1.5791375158     2.1439376524
   63      C      -7.0299824421    -1.6495058749     3.2704469696
   64      H      -5.9657069472    -1.4511128853     3.2467582441
   65      C      -9.1826645421    -1.8564752816     2.2659471597
   66      C      -9.8203037469    -2.2010043250     3.4520551163
   67      C      -9.8395050495    -1.7517295488     1.0273348657
   68      C     -11.1865270818    -1.9984684337     0.9633015559
   69      H     -11.7387661284    -1.9343794431     0.0333226469
   70      C      -7.6496258526    -1.9951345579     4.4964750753
   71      H      -7.0346958351    -2.0500515616     5.3850975384
   72      C      -8.9954048907    -2.2641972871     4.6004905448
   73      H      -9.4214893988    -2.5261562542     5.5611369114
   74      C     -11.2127099543    -2.4507819637     3.3657787677
   75      H     -11.7697009256    -2.7237643408     4.2536797310
   76      C     -11.8616493490    -2.3497008188     2.1558750929
   77      H     -12.9249886904    -2.5463296186     2.1101325869
   78      C      -5.3246589048    -0.2556960844    -3.7469788906
   79      C      -4.1727211808    -0.0238820600    -4.5081387879
   80      H      -3.2113966429     0.0752365395    -4.0171887356
   81      C      -4.2584384672     0.0752010362    -5.8867251282
   82      C      -5.5137896594    -0.0481377763    -6.5225754476
   83      C      -6.6583439586    -0.2693783650    -5.7832427178
   84      H      -7.6180934958    -0.3576928358    -6.2801242587
   85      C      -6.5779403370    -0.3801482977    -4.3950527451
   86      C      -3.2505541394     0.3019348389    -6.9288938977
   87      C      -1.8939641081     0.4953738088    -6.9585943715
   88      H      -1.2964134532     0.5045642353    -6.0552302100
   89      C      -3.9483785087     0.3073540615    -8.1529855409
   90      C      -3.3605111441     0.4962393470    -9.3999983229
   91      C      -5.3257942192     0.0993828108    -7.9629788836
   92      C      -6.1525645378     0.0786243764    -9.0573894771
   93      H      -7.2209641234    -0.0767219252    -8.9669649120
   94      C      -1.2644453111     0.6888404534    -8.2129735486
   95      H      -0.1932037722     0.8406695280    -8.2326302337
   96      C      -1.9589241000     0.6924806876    -9.4009771705
   97      H      -1.4326060042     0.8456737470   -10.3352510105
   98      C      -4.2318993957     0.4716838977   -10.5173106719
   99      H      -3.8360504591     0.6131550755   -11.5156932551
  100      C      -5.5811145419     0.2685646165   -10.3379442306
  101      H      -6.2315723426     0.2533682087   -11.2029718455
  102      B      -7.8647174163    -0.6436434314    -3.5701548107
  103      C      -9.2587728897    -0.7215646608    -4.2995783785
  104      C      -9.9765008816     0.4490314381    -4.5863122275
  105      C     -11.1937319003     0.3699374798    -5.2519691599
  106      H     -11.7497590542     1.2722968437    -5.4826438673
  107      C     -11.7117888684    -0.8599327745    -5.6223616542
  108      C     -11.0134328526    -2.0190364846    -5.3364752402
  109      H     -11.4292981616    -2.9760481623    -5.6336228696
  110      C      -9.7853051179    -1.9604340031    -4.6875887665
  111      N     -12.9572377364    -0.9326543654    -6.3056047057
  112      C     -12.9622689255    -0.9543240529    -7.6948940932
  113      C     -14.1352619751    -0.9730085311    -5.5699043843
  114      C     -15.3789398542    -1.0095547448    -6.2121169142
  115      C     -16.5259096850    -1.0437479172    -5.4249360235
  116      H     -17.4931102852    -1.0674295695    -5.9121845789
  117      C     -16.4821345190    -1.0466037356    -4.0421505080
  118      H     -17.3969441494    -1.0726495526    -3.4654415245
  119      C     -15.2449498390    -1.0162855287    -3.4176791162
  120      H     -15.1743713534    -1.0196930687    -2.3375597732
  121      C     -14.0861668040    -0.9809301333    -4.1697475951
  122      H     -13.1327065379    -0.9578737397    -3.6615387932
  123      C     -14.1670451438    -0.9950659415    -8.4064896471
  124      C     -14.1114265802    -1.0135883571    -9.7972112733
  125      H     -15.0375710982    -1.0423606020   -10.3579883880
  126      C     -12.9183297566    -0.9943672807   -10.4974279882
  127      H     -12.9178459478    -1.0099170996   -11.5790723021
  128      C     -11.7316442137    -0.9537658213    -9.7825923944
  129      H     -10.7797014967    -0.9376434344   -10.2977629623
  130      C     -11.7515632815    -0.9331035847    -8.4010942081
  131      H     -10.8131025573    -0.9009373515    -7.8666598981
  132      C      -9.0267221150    -3.2444456976    -4.4710392526
  133      H      -9.7011910112    -4.0042513635    -4.0670624830
  134      H      -8.2467992557    -3.1094755883    -3.7170322095
  135      C      -9.4860772609     1.7978109803    -4.1328169887
  136      H      -9.7238625720     2.5477864018    -4.8912412072
  137      H      -8.3962794695     1.8006700672    -4.0417692111
  138      C     -15.5248244643    -1.0122818979    -7.7257825267
  139      C     -10.1118347152     2.2086449024    -2.8013354465
  140      H      -9.8697272330     1.4924825306    -2.0154622305
  141      H      -9.7514038658     3.1874881590    -2.4836054755
  142      H     -11.1986541168     2.2605427043    -2.8797748068
  143      C      -8.3990880163    -3.7641027400    -5.7632348720
  144      H      -7.6917103066    -3.0440265985    -6.1760418405
  145      H      -9.1605713100    -3.9531248241    -6.5209725566
  146      H      -7.8624109376    -4.6971150798    -5.5895988620
  147      C     -16.2883879055    -2.2773066518    -8.1574778498
  148      H     -15.7439308239    -3.1780681437    -7.8734750422
  149      H     -16.4371559497    -2.3003112497    -9.2377516244
  150      H     -17.2761836608    -2.3214896663    -7.6970954189
  151      C     -16.3186560652     0.2333648953    -8.1582789104
  152      H     -15.7950853212     1.1472994163    -7.8770243796
  153      H     -16.4694277841     0.2503557384    -9.2385962973
  154      H     -17.3054017603     0.2537410849    -7.6938511967
 ----------------------------------------------------------------
 Nuclear Repulsion Energy = 13748.3526740959 hartrees
 There are      292 alpha and      292 beta electrons
 Discretize the solute cavity surface with Lebedev spheres
	Using 302 Lebedev grid points for each H atom
	Using 302 Lebedev grid points for other atoms
	Atomic van der Waals radii will be scaled by 1.20
 Remove points where switching function is < 1.0e-08
 Keep 15879 surface tesserae and discard 30629 interior tesserae
 Molecular Surface Area = 1144.033 Angst**2
 Applying Cartesian multipole field
    Component          Value
    ---------          -----
     (2,0,0)        1.00000E-13
     (0,2,0)        2.00000E-11
     (0,0,2)       -3.00000E-12
 Nucleus-field energy     =    -0.0000000614 hartrees
 Requested basis set is def2-mSVP
 There are 738 shells and 1426 basis functions
 A cutoff of  1.0D-12 yielded  76011 shell pairs
 There are    294069 function pairs (    323395 Cartesian)
 Smallest overlap matrix eigenvalue = 1.92E-04
 Guess MOs from SCF MO coefficient file

 -----------------------------------------------------------------------
  General SCF calculation program by
  Eric Jon Sundstrom, Paul Horn, Yuezhi Mao, Dmitri Zuev, Alec White,
  David Stuck, Shaama M.S., Shane Yost, Joonho Lee, David Small,
  Daniel Levine, Susi Lehtola, Hugh Burton, Evgeny Epifanovsky
 -----------------------------------------------------------------------
 Exchange:     0.4200 Hartree-Fock + 0.5800 PBEh-3c
 Correlation:  1.0000 PBEh-3c
 Using SG-1 standard quadrature grid
 Dispersion:   Grimme D3
 using 4 threads for integral computing
 -------------------------------------------------------
 OpenMP Integral computing Module                
 Release: version 2.0, May 2017, Q-Chem Inc. Pleasanton 
 -------------------------------------------------------
 -------------------------------------------------------
 OpenMP BLAS3 based DFT computing Module                
 Release: version 1.0, May 2013, Q-Chem Inc. Pittsburgh 
 -------------------------------------------------------
 A restricted SCF calculation will be
 performed using DIIS
 SCF converges when DIIS error is below 1.0e-09
 ---------------------------------------
  Cycle       Energy         DIIS error
 ---------------------------------------
 Using non-symmetric K matrix
    1   -3315.5663713236      7.36e-05  
    2   -3317.8145114918      1.02e-04  
    3   -3317.8181437338      3.84e-05  
    4   -3317.8185323595      2.77e-05  
    5   -3317.8187853351      1.78e-05  
