mFile = /cm/shared/apps/q-chem/intel/QCHEM_5.1.0_Trunk/bin/mpi/machines
Process 0 of 1 is on ctcp033 - thread support 0
initial socket setup ...start
initial socket setup ...done 
now start server 0 ... 
Q-Chem Developer Version!
                  Welcome to Q-Chem
     A Quantum Leap Into The Future Of Chemistry


 Q-Chem 5.1, Q-Chem, Inc., Pleasanton, CA (2018)

 Yihan Shao,  Zhengting Gan,  E. Epifanovsky,  A. T. B. Gilbert,  M. Wormit,  
 J. Kussmann,  A. W. Lange,  A. Behn,  Jia Deng,  Xintian Feng,  D. Ghosh,  
 M. Goldey,  P. R. Horn,  L. D. Jacobson,  I. Kaliman,  T. Kus,  A. Landau,  
 Jie Liu,  E. I. Proynov,  R. M. Richard,  R. P. Steele,  E. J. Sundstrom,  
 H. L. Woodcock III,  P. M. Zimmerman,  D. Zuev,  B. Albrecht,  E. Alguire,  
 S. A. Baeppler,  D. Barton,  Z. Benda,  Y. A. Bernard,  E. J. Berquist,  
 K. B. Bravaya,  H. Burton,  D. Casanova,  Chun-Min Chang,  Yunqing Chen,  
 A. Chien,  K. D. Closser,  M. P. Coons,  S. Coriani,  S. Dasgupta,  
 A. L. Dempwolff,  M. Diedenhofen,  Hainam Do,  R. G. Edgar,  Po-Tung Fang,  
 S. Faraji,  S. Fatehi,  Qingguo Feng,  K. D. Fenk,  J. Fosso-Tande,  
 Qinghui Ge,  A. Ghysels,  G. Gidofalvi,  J. Gomes,  J. Gonthier,  A. Gunina,  
 D. Hait,  M. W. D. Hanson-Heine,  P. H. P. Harbach,  A. W. Hauser,  
 J. E. Herr,  E. G. Hohenstein,  Z. C. Holden,  Kerwin Hui,  B. C. Huynh,  
 T.-C. Jagau,  Hyunjun Ji,  B. Kaduk,  K. Khistyaev,  Jaehoon Kim,  
 P. Klunzinger,  K. Koh,  D. Kosenkov,  L. Koulias,  T. Kowalczyk,  
 C. M. Krauter,  A. Kunitsa,  Ka Un Lao,  A. Laurent,  K. V. Lawler,  
 Joonho Lee,  D. Lefrancois,  S. Lehtola,  D. S. Levine,  Yi-Pei Li,  
 You-Sheng Lin,  Fenglai Liu,  E. Livshits,  A. Luenser,  P. Manohar,  
 E. Mansoor,  S. F. Manzer,  Shan-Ping Mao,  Yuezhi Mao,  N. Mardirossian,  
 A. V. Marenich,  T. Markovich,  L. A. Martinez-Martinez,  S. A. Maurer,  
 N. J. Mayhall,  S. C. McKenzie,  J.-M. Mewes,  A. F. Morrison,  
 J. W. Mullinax,  K. Nanda,  T. S. Nguyen-Beck,  R. Olivares-Amaya,  
 J. A. Parkhill,  T. M. Perrine,  F. Plasser,  P. Pokhilko,  S. Prager,  
 A. Prociuk,  E. Ramos,  D. R. Rehn,  F. Rob,  M. Schneider,  N. Sergueev,  
 S. M. Sharada,  S. Sharma,  D. W. Small,  T. Stauch,  T. Stein,  
 Yu-Chuan Su,  A. J. W. Thom,  A. Tkatchenko,  T. Tsuchimochi,  N. M. Tubman,  
 L. Vogt,  M. L. Vidal,  O. Vydrov,  M. A. Watson,  J. Wenzel,  
 M. de Wergifosse,  T. A. Wesolowski,  A. White,  J. Witte,  A. Yamada,  
 Jun Yang,  K. Yao,  S. Yeganeh,  S. R. Yost,  Zhi-Qiang You,  A. Zech,  
 Igor Ying Zhang,  Xing Zhang,  Yan Zhao,  Ying Zhu,  B. R. Brooks,  
 G. K. L. Chan,  C. J. Cramer,  M. S. Gordon,  W. J. Hehre,  A. Klamt,  
 M. W. Schmidt,  C. D. Sherrill,  D. G. Truhlar,  A. Aspuru-Guzik,  R. Baer,  
 A. T. Bell,  N. A. Besley,  Jeng-Da Chai,  A. E. DePrince, III,  
 R. A. DiStasio Jr.,  A. Dreuw,  B. D. Dunietz,  T. R. Furlani,  
 Chao-Ping Hsu,  Yousung Jung,  Jing Kong,  D. S. Lambrecht,  WanZhen Liang,  
 C. Ochsenfeld,  V. A. Rassolov,  L. V. Slipchenko,  J. E. Subotnik,  
 T. Van Voorhis,  J. M. Herbert,  A. I. Krylov,  P. M. W. Gill,  M. Head-Gordon

 Contributors to earlier versions of Q-Chem not listed above: 
 R. D. Adamson,  B. Austin,  J. Baker,  G. J. O. Beran,  K. Brandhorst,  
 S. T. Brown,  E. F. C. Byrd,  A. K. Chakraborty,  C.-L. Cheng,  
 Siu Hung Chien,  D. M. Chipman,  D. L. Crittenden,  H. Dachsel,  
 R. J. Doerksen,  A. D. Dutoi,  L. Fusti-Molnar,  W. A. Goddard III,  
 A. Golubeva-Zadorozhnaya,  S. R. Gwaltney,  G. Hawkins,  A. Heyden,  
 S. Hirata,  G. Kedziora,  F. J. Keil,  C. Kelley,  Jihan Kim,  R. A. King,  
 R. Z. Khaliullin,  P. P. Korambath,  W. Kurlancheek,  A. M. Lee,  M. S. Lee,  
 S. V. Levchenko,  Ching Yeh Lin,  D. Liotard,  R. C. Lochan,  I. Lotan,  
 P. E. Maslen,  N. Nair,  D. P. O'Neill,  D. Neuhauser,  E. Neuscamman,  
 C. M. Oana,  R. Olson,  B. Peters,  R. Peverati,  P. A. Pieniazek,  
 Y. M. Rhee,  J. Ritchie,  M. A. Rohrdanz,  E. Rosta,  N. J. Russ,  
 H. F. Schaefer III,  N. E. Schultz,  N. Shenvi,  A. C. Simmonett,  A. Sodt,  
 D. Stuck,  K. S. Thanthiriwatte,  V. Vanovschi,  Tao Wang,  A. Warshel,  
 C. F. Williams,  Q. Wu,  X. Xu,  W. Zhang

 Please cite Q-Chem as follows:
 Y. Shao et al., Mol. Phys. 113, 184-215 (2015)
 DOI: 10.1080/00268976.2014.952696

 Q-Chem 5.1.1 for Intel X86 EM64T Linux

 Parts of Q-Chem use Armadillo 8.300.2 (Tropical Shenanigans).
 http://arma.sourceforge.net/

 Q-Chem begins on Thu Dec 20 15:47:30 2018  

Host: ctcp033
0

     Scratch files written to /scratch/mewes1/142148/qchem24955//
 Parallel job on  1  processors
The previous job contains 0 fragments, simply inherited here
Symmetry turned off for PCM/SM12/SMD calculation
Input Ideriv = 2
Curr. Ideriv = -1
Max.  Ideriv = 2
Input Ideriv = 2
Curr. Ideriv = 2
Max.  Ideriv = 2

Checking the input file for inconsistencies... 	...done.

--------------------------------------------------------------
User input:
--------------------------------------------------------------
$rem
threads 4
jobtype	opt
method PBEh-3c
basis def2-mSVP
mem_static	1024
mem_total	4000
sym_ignore	true
scf_convergence	9
solvent_method	pcm
$end

$molecule
read eth_preopt.mol
$end

$solvent
dielectric	4.33 
$end

$pcm
theory iefpcm
heavypoints 194
hpoints     194
$end
--------------------------------------------------------------
 Adding empirical dispersion correction 
 ----------------------------------------------------------------
 Doing -D3(BJ) with
 s6 =   1.00000
 s8 =   0.00000
 a1 =   0.48600
 a2 =   4.50000
 -D3 energy including 3body term =     -0.1505339497 hartrees
 ----------------------------------------------------------------
 Adding gCP correction 
 ----------------------------------------------------------------
 gCP energy =      0.2092771724 hartrees
 ----------------------------------------------------------------
             Standard Nuclear Orientation (Angstroms)
    I     Atom           X                Y                Z
 ----------------------------------------------------------------
    1      N       0.0670840000     0.5488040000    -0.1048500000
    2      C       0.3873950000     0.5137250000     1.2475980000
    3      C       1.0418740000     0.7030510000    -1.0840430000
    4      C       1.7122020000     0.6602700000     1.6723450000
    5      C       1.9698160000     0.6182340000     3.0394460000
    6      H       2.9902000000     0.7323100000     3.3841780000
    7      C       0.9708990000     0.4369380000     3.9804550000
    8      H       1.2120390000     0.4092110000     5.0345280000
    9      C      -0.3376800000     0.2952520000     3.5453700000
   10      H      -1.1421810000     0.1548710000     4.2558530000
   11      C      -0.6280850000     0.3341850000     2.1954220000
   12      H      -1.6542590000     0.2245050000     1.8738780000
   13      C       2.3878060000     0.8578500000    -0.7372190000
   14      C       3.3178390000     1.0100630000    -1.7623190000
   15      H       4.3629600000     1.1339040000    -1.5067710000
   16      C       2.9620390000     1.0129370000    -3.0996500000
   17      H       3.7152870000     1.1338400000    -3.8665040000
   18      C       1.6249800000     0.8584660000    -3.4307340000
   19      H       1.3103190000     0.8569080000    -4.4668990000
   20      C       0.6768080000     0.7051820000    -2.4383380000
   21      H      -0.3587770000     0.5886140000    -2.7246280000
   22      C      -1.2738230000     0.3175330000    -0.5202280000
   23      C      -2.1234190000     1.3863280000    -0.7594950000
   24      H      -1.7711720000     2.3967420000    -0.5834940000
   25      C      -1.7137210000    -0.9772670000    -0.7377080000
   26      H      -1.0417670000    -1.8067260000    -0.5442820000
   27      C      -2.9927500000    -1.2173590000    -1.2290640000
   28      C      -3.4051450000     1.1681430000    -1.2516350000
   29      C      -3.8431780000    -0.1396580000    -1.5043770000
   30      C      -3.4036310000    -2.6376710000    -1.5272560000
   31      H      -3.0572320000    -3.2923980000    -0.7233480000
   32      H      -4.4931170000    -2.7281040000    -1.5332590000
   33      C      -4.3248320000     2.3408730000    -1.4720640000
   34      H      -5.0024950000     2.1396020000    -2.3077620000
   35      H      -3.7418480000     3.2164170000    -1.7670150000
   36      C       2.8630490000     0.8759660000     0.7043950000
   37      C      -2.8484880000    -3.1428960000    -2.8577720000
   38      H      -3.2115940000    -2.5441770000    -3.6934650000
   39      H      -3.1489570000    -4.1760020000    -3.0349320000
   40      H      -1.7585330000    -3.1050430000    -2.8698430000
   41      C      -5.1436060000     2.6737240000    -0.2264510000
   42      H      -5.8044350000     3.5212750000    -0.4109470000
   43      H      -5.7629930000     1.8294540000     0.0771280000
   44      H      -4.4948240000     2.9297490000     0.6119620000
   45      C       3.5024250000     2.2443790000     0.9933030000
   46      H       2.7763540000     3.0457850000     0.8532390000
   47      H       3.8729790000     2.2994330000     2.0174890000
   48      H       4.3461470000     2.4357420000     0.3288910000
   49      C       3.9017710000    -0.2407950000     0.9015710000
   50      H       3.4610580000    -1.2179210000     0.7018240000
   51      H       4.7545600000    -0.1140680000     0.2336000000
   52      H       4.2893590000    -0.2473880000     1.9206290000
   53      B      -5.2372100000    -0.3795230000    -2.1942670000
   54      C      -6.5110850000    -0.7329830000    -1.3711560000
   55      C      -6.4356180000    -0.9445740000     0.0112070000
   56      H      -5.4812310000    -0.8527570000     0.5180400000
   57      C      -7.5743660000    -1.2790390000     0.7270910000
   58      C      -8.8140570000    -1.3858950000     0.0579420000
   59      C      -8.9037470000    -1.1644080000    -1.3023370000
   60      H      -9.8617360000    -1.2456360000    -1.8040510000
   61      C      -7.7594860000    -0.8469130000    -2.0334200000
   62      C      -7.8063480000    -1.5791380000     2.1439380000
   63      C      -7.0299820000    -1.6495060000     3.2704470000
   64      H      -5.9657070000    -1.4511130000     3.2467580000
   65      C      -9.1826650000    -1.8564750000     2.2659470000
   66      C      -9.8203040000    -2.2010040000     3.4520550000
   67      C      -9.8395050000    -1.7517300000     1.0273350000
   68      C     -11.1865270000    -1.9984680000     0.9633020000
   69      H     -11.7387660000    -1.9343790000     0.0333230000
   70      C      -7.6496260000    -1.9951350000     4.4964750000
   71      H      -7.0346960000    -2.0500520000     5.3850980000
   72      C      -8.9954050000    -2.2641970000     4.6004910000
   73      H      -9.4214890000    -2.5261560000     5.5611370000
   74      C     -11.2127100000    -2.4507820000     3.3657790000
   75      H     -11.7697010000    -2.7237640000     4.2536800000
   76      C     -11.8616490000    -2.3497010000     2.1558750000
   77      H     -12.9249890000    -2.5463300000     2.1101330000
   78      C      -5.3246590000    -0.2556960000    -3.7469790000
   79      C      -4.1727210000    -0.0238820000    -4.5081390000
   80      H      -3.2113970000     0.0752370000    -4.0171890000
   81      C      -4.2584380000     0.0752010000    -5.8867250000
   82      C      -5.5137900000    -0.0481380000    -6.5225750000
   83      C      -6.6583440000    -0.2693780000    -5.7832430000
   84      H      -7.6180930000    -0.3576930000    -6.2801240000
   85      C      -6.5779400000    -0.3801480000    -4.3950530000
   86      C      -3.2505540000     0.3019350000    -6.9288940000
   87      C      -1.8939640000     0.4953740000    -6.9585940000
   88      H      -1.2964130000     0.5045640000    -6.0552300000
   89      C      -3.9483790000     0.3073540000    -8.1529860000
   90      C      -3.3605110000     0.4962390000    -9.3999980000
   91      C      -5.3257940000     0.0993830000    -7.9629790000
   92      C      -6.1525650000     0.0786240000    -9.0573890000
   93      H      -7.2209640000    -0.0767220000    -8.9669650000
   94      C      -1.2644450000     0.6888400000    -8.2129740000
   95      H      -0.1932040000     0.8406700000    -8.2326300000
   96      C      -1.9589240000     0.6924810000    -9.4009770000
   97      H      -1.4326060000     0.8456740000   -10.3352510000
   98      C      -4.2318990000     0.4716840000   -10.5173110000
   99      H      -3.8360500000     0.6131550000   -11.5156930000
  100      C      -5.5811150000     0.2685650000   -10.3379440000
  101      H      -6.2315720000     0.2533680000   -11.2029720000
  102      B      -7.8647170000    -0.6436430000    -3.5701550000
  103      C      -9.2587730000    -0.7215650000    -4.2995780000
  104      C      -9.9765010000     0.4490310000    -4.5863120000
  105      C     -11.1937320000     0.3699370000    -5.2519690000
  106      H     -11.7497590000     1.2722970000    -5.4826440000
  107      C     -11.7117890000    -0.8599330000    -5.6223620000
  108      C     -11.0134330000    -2.0190360000    -5.3364750000
  109      H     -11.4292980000    -2.9760480000    -5.6336230000
  110      C      -9.7853050000    -1.9604340000    -4.6875890000
  111      N     -12.9572380000    -0.9326540000    -6.3056050000
  112      C     -12.9622690000    -0.9543240000    -7.6948940000
  113      C     -14.1352620000    -0.9730090000    -5.5699040000
  114      C     -15.3789400000    -1.0095550000    -6.2121170000
  115      C     -16.5259100000    -1.0437480000    -5.4249360000
  116      H     -17.4931100000    -1.0674300000    -5.9121850000
  117      C     -16.4821350000    -1.0466040000    -4.0421500000
  118      H     -17.3969440000    -1.0726500000    -3.4654420000
  119      C     -15.2449500000    -1.0162860000    -3.4176790000
  120      H     -15.1743710000    -1.0196930000    -2.3375600000
  121      C     -14.0861670000    -0.9809300000    -4.1697480000
  122      H     -13.1327070000    -0.9578740000    -3.6615390000
  123      C     -14.1670450000    -0.9950660000    -8.4064900000
  124      C     -14.1114270000    -1.0135880000    -9.7972110000
  125      H     -15.0375710000    -1.0423610000   -10.3579880000
  126      C     -12.9183300000    -0.9943670000   -10.4974280000
  127      H     -12.9178460000    -1.0099170000   -11.5790720000
  128      C     -11.7316440000    -0.9537660000    -9.7825920000
  129      H     -10.7797020000    -0.9376430000   -10.2977630000
  130      C     -11.7515630000    -0.9331040000    -8.4010940000
  131      H     -10.8131030000    -0.9009370000    -7.8666600000
  132      C      -9.0267220000    -3.2444460000    -4.4710390000
  133      H      -9.7011910000    -4.0042510000    -4.0670620000
  134      H      -8.2467990000    -3.1094760000    -3.7170320000
  135      C      -9.4860770000     1.7978110000    -4.1328170000
  136      H      -9.7238630000     2.5477860000    -4.8912410000
  137      H      -8.3962790000     1.8006700000    -4.0417690000
  138      C     -15.5248240000    -1.0122820000    -7.7257830000
  139      C     -10.1118350000     2.2086450000    -2.8013350000
  140      H      -9.8697270000     1.4924830000    -2.0154620000
  141      H      -9.7514040000     3.1874880000    -2.4836050000
  142      H     -11.1986540000     2.2605430000    -2.8797750000
  143      C      -8.3990880000    -3.7641030000    -5.7632350000
  144      H      -7.6917100000    -3.0440270000    -6.1760420000
  145      H      -9.1605710000    -3.9531250000    -6.5209730000
  146      H      -7.8624110000    -4.6971150000    -5.5895990000
  147      C     -16.2883880000    -2.2773070000    -8.1574780000
  148      H     -15.7439310000    -3.1780680000    -7.8734750000
  149      H     -16.4371560000    -2.3003110000    -9.2377520000
  150      H     -17.2761840000    -2.3214900000    -7.6970950000
  151      C     -16.3186560000     0.2333650000    -8.1582790000
  152      H     -15.7950850000     1.1472990000    -7.8770240000
  153      H     -16.4694280000     0.2503560000    -9.2385960000
  154      H     -17.3054020000     0.2537410000    -7.6938510000
 ----------------------------------------------------------------
 Nuclear Repulsion Energy = 13748.3526688843 hartrees
 There are      292 alpha and      292 beta electrons
 Requested basis set is def2-mSVP
 There are 738 shells and 1426 basis functions

 Total QAlloc Memory Limit   4000 MB
 Mega-Array Size      1001 MB
 MEM_STATIC part      1024 MB
 Discretize the solute cavity surface with Lebedev spheres
	Using 194 Lebedev grid points for each H atom
	Using 194 Lebedev grid points for other atoms
	Atomic van der Waals radii will be scaled by 1.20
 Remove points where switching function is < 1.0e-08
 Keep 11222 surface tesserae and discard 18654 interior tesserae
 Molecular Surface Area = 1136.941 Angst**2
 A cutoff of  1.0D-12 yielded  76011 shell pairs
 There are    294069 function pairs (    323395 Cartesian)
 
 -------------------------------------------------------
 OpenMP Integral Computing Module                       
 Release: version 1.0, May 2013, Q-Chem Inc. Pittsburgh 
 -------------------------------------------------------
 Integral Job Info:
 Integral job number is                      11
 Integral operator is                         1
 short-range coefficients                     0
 long-range coefficients              100000000
 Omega coefficients                           0
 if combine SR and LR in K                    0
 Integral screening is                        0
 Integral computing path is                   2
 max size of driver memory is            800000
 size of driver memory is                593474
 size of scratch memory is              1809772
 max col of scratch BK array               1296
 max len of scratch array in speh3          155
 max len of scratch index in speh4           18
 max int batch size is                      520
 min int batch size is                       52
 fixed nKL is                                52
 max L of basis functions is                  2
 order of int derivative is                   0
 number of shells is                        738
 number of basis is                        1512
 number of cartesian basis is              1512
 number of contracted shell pairs         76011
 number of primitive shell pairs         157216
 maxK2 (contraction) of shell pair           25
 max number of K2 of shell pair               1
 max number of CS2 of shell pair          18685
 max number of PS2 of shell pair          27595
 mem total for path MDJ                 1254572
 -------------------------------------------------------
 Smallest overlap matrix eigenvalue = 1.92E-04

 Scale SEOQF with 1.000000e-03/1.000000e-01/1.000000e-02

 Standard Electronic Orientation quadrupole field applied
 Nucleus-field energy     =    -0.0000000614 hartrees
 Guess from superposition of atomic densities
 Warning:  Energy on first SCF cycle will be non-variational
 SAD guess density has 584.000001 electrons

 -----------------------------------------------------------------------
  General SCF calculation program by
  Eric Jon Sundstrom, Paul Horn, Yuezhi Mao, Dmitri Zuev, Alec White,
  David Stuck, Shaama M.S., Shane Yost, Joonho Lee, David Small,
  Daniel Levine, Susi Lehtola, Hugh Burton, Evgeny Epifanovsky
 -----------------------------------------------------------------------
 Exchange:     0.4200 Hartree-Fock + 0.5800 PBEh-3c
 Correlation:  1.0000 PBEh-3c
 Using SG-1 standard quadrature grid
 Dispersion:   Grimme D3
 using 4 threads for integral computing
 -------------------------------------------------------
 OpenMP Integral computing Module                
 Release: version 2.0, May 2017, Q-Chem Inc. Pleasanton 
 -------------------------------------------------------
 -------------------------------------------------------
 OpenMP BLAS3 based DFT computing Module                
 Release: version 1.0, May 2013, Q-Chem Inc. Pittsburgh 
 -------------------------------------------------------
 A restricted SCF calculation will be
 performed using DIIS
 SCF converges when DIIS error is below 1.0e-09
 ---------------------------------------
  Cycle       Energy         DIIS error
 ---------------------------------------
 Using non-symmetric K matrix
    1   -3346.3444243856      2.26e-02  
    2   -3317.1234112377      1.54e-03  
    3   -3317.3571148313      1.33e-03  
    4   -3317.7687206066      4.23e-04  
    5   -3317.8129264904      1.45e-04  
    6   -3317.8184172738      3.68e-05  
    7   -3317.8187564046      1.14e-05  
    8   -3317.8187900908      3.63e-06  
    9   -3317.8187936177      1.13e-06  
   10   -3317.8187940050      3.83e-07  
   11   -3317.8187940624      1.21e-07  
   12   -3317.8187940689      4.29e-08  
   13   -3317.8187940696      1.37e-08  
   14   -3317.8187940698      6.50e-09  
   15   -3317.8187940698      2.53e-09  
   16   -3317.8187940698      9.31e-10  Convergence criterion met
 ---------------------------------------
 SCF time:   CPU 23074.96s  wall 5938.00s 

************** Final PCM Free Energy Summary **************
 G_electrostatic  =      -0.02978186 hartree =     -18.68840217 kcal/mol
 G_cavitation     =       0.00000000 hartree =       0.00000000 kcal/mol
 G_dispersion     =       0.00000000 hartree =       0.00000000 kcal/mol
 G_repulsion      =       0.00000000 hartree =       0.00000000 kcal/mol
 --------------------------------------------------
 Non-electrostatic Free Energy =       0.00000000 hartree =       0.00000000 kcal/mol
 Total                         =      -0.02978186 hartree =     -18.68840217 kcal/mol
 --------------------------------------------------
 SCF Energy (H0 + V/2)                       =   -3317.81879407 
 Solute Internal Energy (H0)                 =   -3317.78901221 
 Total Free Energy (H0 + V/2 + non-elec)     =   -3317.81879407 hartree
                                             = -2081962.71634058 kcal/mol
***********************************************************

 SCF   energy in the final basis set =    -3317.8187940698
 Total energy in the final basis set =    -3317.8187940698
 
 --------------------------------------------------------------
 
                    Orbital Energies (a.u.)
 --------------------------------------------------------------
 
 Alpha MOs
 -- Occupied --
-14.677 -14.676 -10.494 -10.494 -10.493 -10.493 -10.485 -10.485
-10.469 -10.468 -10.468 -10.467 -10.467 -10.466 -10.466 -10.466
-10.466 -10.466 -10.466 -10.466 -10.465 -10.464 -10.463 -10.462
-10.462 -10.462 -10.462 -10.462 -10.460 -10.459 -10.459 -10.459
-10.459 -10.459 -10.457 -10.457 -10.457 -10.457 -10.457 -10.457
-10.451 -10.451 -10.451 -10.451 -10.449 -10.449 -10.444 -10.444
-10.444 -10.444 -10.444 -10.444 -10.444 -10.444 -10.444 -10.443
-10.443 -10.443 -10.441 -10.440 -10.440 -10.440 -10.440 -10.440
-10.439 -10.439 -10.438 -10.438 -10.438 -10.438 -10.436 -10.436
-10.436 -10.436 -10.433 -10.433 -10.423 -10.423 -10.423 -10.423
-10.423 -10.422 -10.422 -10.422  -6.957  -6.955  -1.089  -1.089
 -1.019  -1.019  -0.973  -0.973  -0.965  -0.963  -0.959  -0.959
 -0.952  -0.951  -0.935  -0.934  -0.912  -0.908  -0.908  -0.904
 -0.895  -0.894  -0.872  -0.869  -0.858  -0.858  -0.851  -0.851
 -0.848  -0.848  -0.836  -0.835  -0.829  -0.826  -0.822  -0.816
 -0.815  -0.815  -0.815  -0.808  -0.806  -0.806  -0.791  -0.790
 -0.767  -0.766  -0.738  -0.733  -0.728  -0.723  -0.723  -0.722
 -0.719  -0.718  -0.708  -0.708  -0.707  -0.707  -0.693  -0.691
 -0.689  -0.681  -0.675  -0.670  -0.669  -0.668  -0.652  -0.651
 -0.640  -0.638  -0.636  -0.635  -0.615  -0.615  -0.615  -0.615
 -0.598  -0.597  -0.592  -0.589  -0.588  -0.587  -0.585  -0.577
 -0.576  -0.562  -0.561  -0.555  -0.550  -0.545  -0.536  -0.536
 -0.534  -0.532  -0.530  -0.527  -0.524  -0.523  -0.523  -0.520
 -0.515  -0.512  -0.505  -0.504  -0.504  -0.503  -0.502  -0.498
 -0.497  -0.496  -0.496  -0.494  -0.492  -0.490  -0.489  -0.489
 -0.488  -0.488  -0.487  -0.485  -0.480  -0.480  -0.479  -0.478
 -0.478  -0.475  -0.475  -0.474  -0.473  -0.468  -0.463  -0.460
 -0.456  -0.455  -0.450  -0.450  -0.447  -0.445  -0.445  -0.441
 -0.439  -0.438  -0.437  -0.437  -0.436  -0.429  -0.429  -0.428
 -0.428  -0.425  -0.425  -0.424  -0.422  -0.420  -0.416  -0.416
 -0.410  -0.407  -0.406  -0.405  -0.400  -0.399  -0.398  -0.398
 -0.397  -0.396  -0.395  -0.395  -0.394  -0.393  -0.392  -0.392
 -0.389  -0.387  -0.384  -0.377  -0.377  -0.373  -0.372  -0.371
 -0.368  -0.367  -0.365  -0.365  -0.359  -0.355  -0.352  -0.345
 -0.323  -0.317  -0.300  -0.300  -0.298  -0.297  -0.290  -0.289
 -0.287  -0.284  -0.284  -0.283  -0.281  -0.280  -0.279  -0.265
 -0.261  -0.258  -0.223  -0.223
 -- Virtual --
 -0.096  -0.062  -0.041  -0.033  -0.008   0.004   0.004   0.005
  0.010   0.010   0.012   0.013   0.013   0.017   0.018   0.033
  0.033   0.042   0.059   0.059   0.065   0.079   0.082   0.089
  0.114   0.115   0.120   0.127   0.139   0.141   0.144   0.149
  0.151   0.152   0.157   0.158   0.158   0.161   0.162   0.165
  0.165   0.166   0.167   0.169   0.173   0.176   0.178   0.183
  0.185   0.187   0.189   0.190   0.191   0.192   0.193   0.196
  0.196   0.197   0.199   0.201   0.202   0.202   0.203   0.204
  0.205   0.206   0.208   0.210   0.212   0.214   0.215   0.217
  0.218   0.218   0.221   0.222   0.223   0.224   0.224   0.226
  0.228   0.229   0.229   0.231   0.233   0.234   0.236   0.237
  0.239   0.240   0.241   0.243   0.244   0.244   0.246   0.247
  0.250   0.251   0.252   0.253   0.253   0.254   0.257   0.259
  0.261   0.267   0.268   0.268   0.269   0.270   0.272   0.273
  0.275   0.276   0.279   0.280   0.283   0.284   0.284   0.287
  0.290   0.291   0.294   0.295   0.296   0.296   0.299   0.300
  0.303   0.305   0.307   0.309   0.310   0.311   0.312   0.312
  0.314   0.315   0.317   0.318   0.320   0.325   0.333   0.340
  0.341   0.342   0.344   0.348   0.350   0.351   0.353   0.357
  0.362   0.369   0.373   0.373   0.375   0.377   0.381   0.383
  0.386   0.390   0.393   0.394   0.396   0.397   0.400   0.411
  0.413   0.417   0.420   0.424   0.435   0.438   0.440   0.441
  0.442   0.444   0.444   0.450   0.451   0.457   0.460   0.466
  0.470   0.476   0.476   0.479   0.482   0.487   0.491   0.492
  0.494   0.495   0.496   0.497   0.498   0.500   0.503   0.504
  0.509   0.512   0.513   0.513   0.514   0.517   0.521   0.523
  0.524   0.525   0.527   0.530   0.531   0.532   0.532   0.535
  0.539   0.541   0.542   0.543   0.544   0.546   0.546   0.548
  0.549   0.551   0.552   0.554   0.554   0.555   0.556   0.557
  0.559   0.561   0.563   0.563   0.566   0.567   0.570   0.570
  0.575   0.578   0.583   0.585   0.585   0.586   0.586   0.586
  0.587   0.589   0.590   0.591   0.592   0.593   0.596   0.597
  0.597   0.601   0.604   0.605   0.606   0.607   0.608   0.609
  0.613   0.614   0.615   0.615   0.616   0.618   0.621   0.623
  0.624   0.625   0.626   0.627   0.627   0.628   0.629   0.631
  0.632   0.632   0.634   0.635   0.635   0.637   0.640   0.642
  0.646   0.647   0.647   0.648   0.651   0.652   0.653   0.655
  0.656   0.656   0.657   0.659   0.665   0.665   0.667   0.668
  0.669   0.671   0.673   0.676   0.679   0.684   0.687   0.690
  0.694   0.695   0.697   0.697   0.701   0.703   0.709   0.711
  0.712   0.714   0.716   0.719   0.720   0.726   0.730   0.731
  0.733   0.735   0.740   0.742   0.744   0.747   0.748   0.751
  0.753   0.756   0.757   0.760   0.763   0.765   0.766   0.770
  0.771   0.771   0.774   0.775   0.778   0.778   0.780   0.781
  0.782   0.785   0.793   0.795   0.797   0.799   0.801   0.804
  0.805   0.808   0.810   0.811   0.812   0.812   0.816   0.820
  0.826   0.829   0.831   0.832   0.836   0.838   0.841   0.845
  0.851   0.851   0.855   0.856   0.861   0.870   0.873   0.876
  0.877   0.878   0.879   0.886   0.888   0.891   0.892   0.895
  0.897   0.901   0.908   0.912   0.915   0.917   0.921   0.923
  0.925   0.930   0.933   0.939   0.945   0.946   0.949   0.950
  0.953   0.955   0.955   0.957   0.963   0.964   0.966   0.972
  0.977   0.977   0.980   0.982   0.984   0.984   0.987   0.990
  0.991   0.993   0.993   0.997   1.000   1.001   1.002   1.002
  1.004   1.007   1.008   1.010   1.012   1.018   1.020   1.021
  1.023   1.028   1.030   1.032   1.033   1.034   1.036   1.038
  1.040   1.041   1.044   1.046   1.046   1.048   1.049   1.049
  1.051   1.055   1.056   1.057   1.058   1.061   1.064   1.065
  1.067   1.067   1.068   1.069   1.072   1.074   1.076   1.078
  1.078   1.083   1.084   1.085   1.087   1.089   1.091   1.093
  1.096   1.099   1.102   1.103   1.105   1.113   1.114   1.116
  1.116   1.121   1.124   1.125   1.127   1.128   1.131   1.132
  1.134   1.136   1.138   1.142   1.144   1.147   1.147   1.151
  1.152   1.157   1.159   1.163   1.166   1.168   1.169   1.171
  1.174   1.175   1.178   1.179   1.180   1.181   1.186   1.193
  1.201   1.205   1.211   1.216   1.219   1.220   1.221   1.223
  1.227   1.229   1.244   1.248   1.249   1.256   1.257   1.258
  1.260   1.265   1.267   1.271   1.276   1.281   1.285   1.287
  1.290   1.292   1.297   1.297   1.298   1.300   1.308   1.308
  1.310   1.312   1.314   1.316   1.317   1.320   1.326   1.328
  1.329   1.334   1.335   1.337   1.338   1.342   1.345   1.346
  1.354   1.357   1.359   1.364   1.366   1.368   1.369   1.373
  1.374   1.374   1.375   1.377   1.383   1.384   1.398   1.399
  1.405   1.407   1.408   1.408   1.414   1.417   1.418   1.426
  1.438   1.439   1.439   1.441   1.443   1.445   1.447   1.454
  1.458   1.464   1.467   1.469   1.479   1.482   1.494   1.497
  1.498   1.499   1.505   1.505   1.506   1.509   1.510   1.510
  1.514   1.516   1.517   1.521   1.525   1.528   1.530   1.530
  1.536   1.539   1.541   1.541   1.546   1.546   1.546   1.548
  1.549   1.551   1.553   1.559   1.560   1.561   1.564   1.564
  1.571   1.574   1.575   1.578   1.580   1.581   1.584   1.587
  1.589   1.595   1.597   1.605   1.611   1.619   1.621   1.626
  1.627   1.633   1.635   1.647   1.649   1.655   1.661   1.664
  1.665   1.668   1.672   1.685   1.694   1.700   1.709   1.710
  1.711   1.724   1.737   1.738   1.740   1.745   1.748   1.750
  1.754   1.758   1.765   1.767   1.774   1.777   1.782   1.787
  1.788   1.793   1.797   1.801   1.805   1.805   1.806   1.807
  1.808   1.810   1.813   1.813   1.815   1.818   1.833   1.834
  1.835   1.844   1.856   1.856   1.866   1.869   1.874   1.878
  1.879   1.883   1.898   1.900   1.901   1.902   1.904   1.914
  1.916   1.917   1.918   1.922   1.922   1.923   1.928   1.929
  1.931   1.932   1.932   1.941   1.944   1.949   1.950   1.965
  1.967   1.975   1.977   1.978   1.981   1.982   1.983   1.985
  1.991   1.993   1.993   1.996   1.997   2.000   2.001   2.008
  2.010   2.010   2.024   2.029   2.032   2.036   2.037   2.043
  2.049   2.049   2.052   2.056   2.060   2.062   2.069   2.070
  2.071   2.073   2.079   2.080   2.084   2.091   2.097   2.097
  2.097   2.098   2.110   2.110   2.118   2.120   2.127   2.128
  2.130   2.132   2.133   2.135   2.143   2.146   2.146   2.148
  2.153   2.154   2.155   2.157   2.165   2.177   2.180   2.183
  2.185   2.186   2.187   2.196   2.199   2.200   2.201   2.205
  2.212   2.213   2.217   2.217   2.218   2.219   2.230   2.231
  2.237   2.247   2.249   2.252   2.253   2.254   2.259   2.262
  2.263   2.263   2.272   2.275   2.276   2.276   2.279   2.281
  2.282   2.284   2.287   2.288   2.292   2.305   2.308   2.310
  2.316   2.319   2.319   2.320   2.321   2.323   2.330   2.332
  2.332   2.334   2.336   2.340   2.341   2.342   2.343   2.346
  2.348   2.353   2.353   2.354   2.355   2.357   2.357   2.363
  2.366   2.367   2.368   2.372   2.380   2.383   2.386   2.386
  2.387   2.389   2.394   2.396   2.399   2.403   2.404   2.408
  2.412   2.413   2.413   2.415   2.417   2.417   2.420   2.425
  2.427   2.432   2.438   2.442   2.442   2.448   2.462   2.472
  2.475   2.476   2.478   2.482   2.485   2.487   2.490   2.491
  2.491   2.497   2.504   2.507   2.516   2.518   2.521   2.526
  2.532   2.537   2.540   2.553   2.561   2.567   2.576   2.594
  2.596   2.603   2.610   2.611   2.613   2.622   2.626   2.628
  2.641   2.642   2.643   2.667   2.679   2.680   2.681   2.683
  2.684   2.687   2.699   2.701   2.702   2.705   2.709   2.711
  2.715   2.723   2.725   2.728   2.728   2.729   2.731   2.732
  2.736   2.748   2.751   2.753   2.765   2.769   2.773   2.778
  2.779   2.782   2.786   2.788   2.788   2.789   2.790   2.793
  2.801   2.802   2.805   2.806   2.807   2.809   2.810   2.811
  2.812   2.818   2.820   2.822   2.824   2.826   2.837   2.838
  2.846   2.858   2.862   2.863   2.872   2.876   2.877   2.880
  2.883   2.892   2.895   2.900   2.903   2.904   2.929   2.937
  2.945   2.950   2.955   2.962   2.967   2.968   2.969   2.981
  2.995   2.997   3.002   3.006   3.007   3.013   3.014   3.031
  3.044   3.048   3.063   3.073   3.081   3.082   3.109   3.115
  3.118   3.202   3.202   3.231   3.233   3.237   3.252   3.254
  3.401   3.408   3.409   3.439   3.446   3.487   3.490   3.492
  3.507   3.515   3.569   3.569   3.574   3.577   3.664   3.678
  9.579   9.730  13.141  13.174  13.248  13.249  13.337  13.339
 13.478  13.496  13.513  13.526  13.546  13.572  13.649  13.649
 13.665  13.673  13.708  13.711  13.730  13.738  13.740  13.768
 13.771  13.775  13.776  13.792  13.802  13.806  13.860  13.862
 13.870  13.876  13.882  13.900  13.903  13.913  13.938  13.999
 14.014  14.026  14.034  14.037  14.038  14.042  14.047  14.055
 14.150  14.159  14.161  14.162  14.163  14.181  14.183  14.204
 14.206  14.210  14.219  14.222  14.226  14.257  14.259  14.267
 14.289  14.292  14.304  14.306  14.307  14.317  14.343  14.347
 14.511  14.515  14.565  14.573  14.581  14.582  14.591  14.591
 14.604  14.605  14.617  14.622  19.645  19.645
 --------------------------------------------------------------
 
          Ground-State Mulliken Net Atomic Charges

     Atom                 Charge (a.u.)
  ----------------------------------------
      1 N                    -0.717693
      2 C                     0.311656
      3 C                     0.306131
      4 C                     0.131037
      5 C                    -0.310327
      6 H                     0.231204
      7 C                    -0.253648
      8 H                     0.232572
      9 C                    -0.253177
     10 H                     0.236650
     11 C                    -0.325700
     12 H                     0.261228
     13 C                     0.133313
     14 C                    -0.310155
     15 H                     0.231262
     16 C                    -0.253275
     17 H                     0.232366
     18 C                    -0.253582
     19 H                     0.234726
     20 C                    -0.322576
     21 H                     0.263189
     22 C                     0.187430
     23 C                    -0.314191
     24 H                     0.241409
     25 C                    -0.298282
     26 H                     0.242172
     27 C                     0.058380
     28 C                     0.055049
     29 C                    -0.215648
     30 C                    -0.556112
     31 H                     0.245164
     32 H                     0.255544
     33 C                    -0.555978
     34 H                     0.258369
     35 H                     0.245324
     36 C                    -0.200747
     37 C                    -0.655281
     38 H                     0.238344
     39 H                     0.228914
     40 H                     0.223352
     41 C                    -0.654200
     42 H                     0.228106
     43 H                     0.238571
     44 H                     0.223272
     45 C                    -0.612904
     46 H                     0.234029
     47 H                     0.225849
     48 H                     0.225768
     49 C                    -0.617631
     50 H                     0.234371
     51 H                     0.226540
     52 H                     0.226387
     53 B                     0.667481
     54 C                    -0.151985
     55 C                    -0.401386
     56 H                     0.242691
     57 C                     0.098756
     58 C                     0.074492
     59 C                    -0.388713
     60 H                     0.242571
     61 C                    -0.153127
     62 C                     0.184168
     63 C                    -0.394110
     64 H                     0.244831
     65 C                    -0.064931
     66 C                     0.229576
     67 C                     0.183926
     68 C                    -0.385077
     69 H                     0.243741
     70 C                    -0.225736
     71 H                     0.251524
     72 C                    -0.347181
     73 H                     0.248377
     74 C                    -0.342987
     75 H                     0.248133
     76 C                    -0.228341
     77 H                     0.251969
     78 C                    -0.150870
     79 C                    -0.397412
     80 H                     0.248417
     81 C                     0.097942
     82 C                     0.075070
     83 C                    -0.387566
     84 H                     0.241951
     85 C                    -0.153138
     86 C                     0.185404
     87 C                    -0.397147
     88 H                     0.245454
     89 C                    -0.065787
     90 C                     0.228030
     91 C                     0.184739
     92 C                    -0.385780
     93 H                     0.243023
     94 C                    -0.225606
     95 H                     0.250407
     96 C                    -0.346683
     97 H                     0.248501
     98 C                    -0.342273
     99 H                     0.248107
    100 C                    -0.227798
    101 H                     0.251813
    102 B                     0.671832
    103 C                    -0.227686
    104 C                     0.057120
    105 C                    -0.306245
    106 H                     0.241559
    107 C                     0.192353
    108 C                    -0.304235
    109 H                     0.242806
    110 C                     0.059067
    111 N                    -0.718338
    112 C                     0.309850
    113 C                     0.310700
    114 C                     0.130369
    115 C                    -0.309747
    116 H                     0.231362
    117 C                    -0.253799
    118 H                     0.232608
    119 C                    -0.252528
    120 H                     0.235747
    121 C                    -0.323947
    122 H                     0.260090
    123 C                     0.130611
    124 C                    -0.309634
    125 H                     0.231391
    126 C                    -0.254145
    127 H                     0.232589
    128 C                    -0.251595
    129 H                     0.234753
    130 C                    -0.322905
    131 H                     0.260081
    132 C                    -0.554358
    133 H                     0.245108
    134 H                     0.258438
    135 C                    -0.555274
    136 H                     0.245484
    137 H                     0.257392
    138 C                    -0.202061
    139 C                    -0.654688
    140 H                     0.236732
    141 H                     0.228641
    142 H                     0.223684
    143 C                    -0.652082
    144 H                     0.232773
    145 H                     0.223364
    146 H                     0.229739
    147 C                    -0.615943
    148 H                     0.234400
    149 H                     0.225979
    150 H                     0.226421
    151 C                    -0.613504
    152 H                     0.233955
    153 H                     0.225603
    154 H                     0.226078
  ----------------------------------------
  Sum of atomic charges =     0.000000

 -----------------------------------------------------------------
                    Cartesian Multipole Moments
 -----------------------------------------------------------------
    Charge (ESU x 10^10)
                 0.0000
    Dipole Moment (Debye)
         X      -0.2527      Y      -0.5974      Z       0.1438
       Tot       0.6644
    Quadrupole Moments (Debye-Ang)
        XX    -460.1821     XY      11.6918     YY    -505.6930
        XZ     -20.5147     YZ     -11.6512     ZZ    -432.3805
    Octopole Moments (Debye-Ang^2)
       XXX    9002.3915    XXY      75.3033    XYY    3266.7143
       YYY     645.1479    XXZ    1692.0258    XYZ      74.0780
       YYZ    1604.3213    XZZ    2916.3279    YZZ     209.8133
       ZZZ    4027.4302
    Hexadecapole Moments (Debye-Ang^3)
      XXXX -203455.1104   XXXY   -7159.7768   XXYY  -38626.4162
      XYYY  -10093.1438   YYYY   -6839.6428   XXXZ  -42417.4547
      XXYZ   -1300.7712   XYYZ  -14811.2051   YYYZ   -1581.3268
      XXZZ  -45651.8385   XYZZ   -2636.7294   YYZZ  -15076.6228
      XZZZ  -39594.0731   YZZZ   -2419.6242   ZZZZ  -68374.5271
 -----------------------------------------------------------------
 Calculating analytic gradient of the SCF energy
 -1.424722902769173E-003 -1.424724103384674E-003
 -1.424729091861170E-003 -1.424717986655227E-003
 -1.424713270076706E-003 -1.424733697473609E-003
 -1.424679514215191E-003 -1.424767475472914E-003
 -1.424718573284100E-003 -1.424728520430112E-003
 -1.424726565082445E-003 -1.424720426977062E-003
 -1.424682412659168E-003 -1.424764573883939E-003
 -1.424720318435321E-003 -1.424726774258754E-003
 -1.424704016571151E-003 -1.424742970229984E-003
 -1.424757430227629E-003 -1.424689577480682E-003
 -1.424726918564988E-003 -1.424720155611462E-003
 -1.424728066647797E-003 -1.424718911776262E-003
 -1.424702176448753E-003 -1.424744787616907E-003
 -1.424719080749330E-003 -1.424727985389624E-003
 -1.424731503676017E-003 -1.424715482001020E-003
 -1.424743375208146E-003 -1.424703571076725E-003
 -1.424724970881720E-003 -1.424722059192160E-003
 -1.424718031103068E-003 -1.424728980991402E-003
 -1.424752815233042E-003 -1.424694199918453E-003
 -1.424727179536569E-003 -1.424719897140423E-003
 -1.424702943273918E-003 -1.424744026087673E-003
 -1.424722458709780E-003 -1.424724554432045E-003
 -1.424722072075751E-003 -1.424724955493613E-003
 -1.424724342209344E-003 -1.424722643437931E-003
 -1.424689950727302E-003 -1.424757026520365E-003
 -1.424719002015789E-003 -1.424728079489647E-003
 -1.424727946581270E-003 -1.424719037850523E-003
 -1.424723516941471E-003 -1.424723473751857E-003
 -1.424725825062928E-003 -1.424721186923779E-003
 -1.424710355547003E-003 -1.424736621166871E-003
 -1.424724777096781E-003 -1.424722214977085E-003
 -1.424725043278416E-003 -1.424722051604288E-003
 -1.424703288512057E-003 -1.424743683123031E-003
 -1.424701024857779E-003 -1.424745955292146E-003
 -1.424725983077018E-003 -1.424721073067464E-003
 -1.424714962399748E-003 -1.424732042150453E-003
 -1.424753555183827E-003 -1.424693462001949E-003
 -1.424725279437869E-003 -1.424721795521384E-003
 -1.424721345360335E-003 -1.424725622624166E-003
 -1.424698937756571E-003 -1.424748031268303E-003
 -1.424718383510200E-003 -1.424728698426394E-003
 -1.424718624952168E-003 -1.424728368185572E-003
 -1.424743117546342E-003 -1.424703838105449E-003
 -1.424723310312015E-003 -1.424723731047934E-003
 -1.424736588846725E-003 -1.424710426253408E-003
 -1.424738890256913E-003 -1.424708131006939E-003
 -1.424722308132005E-003 -1.424724778935097E-003
 -1.424746213274036E-003 -1.424700745513497E-003
 -1.424720208388485E-003 -1.424726809953639E-003
 -1.424720640486936E-003 -1.424726387843993E-003
 -1.424721207192697E-003 -1.424725761526200E-003
 -1.424688407207875E-003 -1.424758582791721E-003
 -1.424718324900184E-003 -1.424728768114276E-003
 -1.424712291581740E-003 -1.424734687707561E-003
 -1.424718213720469E-003 -1.424728769000359E-003
 -1.424721348412226E-003 -1.424725681364886E-003
 -1.424734672157020E-003 -1.424712326495999E-003
 -1.424717991651507E-003 -1.424728993286358E-003
 -1.424724889327833E-003 -1.424722216109117E-003
 -1.424731607345239E-003 -1.424715355328609E-003
 -1.424701796281669E-003 -1.424745180549082E-003
 -1.424724767909784E-003 -1.424722300576487E-003
 -1.424723217953461E-003 -1.424723776588888E-003
 -1.424682978566977E-003 -1.424764008377123E-003
 -1.424715514775633E-003 -1.424731489935164E-003
 -1.424710744234346E-003 -1.424736236829934E-003
 -1.424763435798252E-003 -1.424683573057132E-003
 -1.424741771591686E-003 -1.424705180378522E-003
 -1.424733436840771E-003 -1.424713569071094E-003
 -1.424718357109173E-003 -1.424728638163091E-003
 -1.424730799768482E-003 -1.424716145017844E-003
 -1.424712787690159E-003 -1.424734199291918E-003
 -1.424761004342207E-003 -1.424686011535211E-003
 -1.424721563889197E-003 -1.424725376049723E-003
 -1.424740949395274E-003 -1.424706055849931E-003
 -1.424719524951827E-003 -1.424727486290515E-003
 -1.424710923447352E-003 -1.424736003862776E-003
 -1.424718114600849E-003 -1.424728871791019E-003
 -1.424683529567275E-003 -1.424763463229131E-003
 -1.424687600488994E-003 -1.424759373001488E-003
 -1.424706408249646E-003 -1.424740598216814E-003
 -1.424673132486310E-003 -1.424773872127115E-003
 -1.424735242376054E-003 -1.424711733822547E-003
 -1.424702956907989E-003 -1.424744044980001E-003
 -1.424747427324071E-003 -1.424699574771521E-003
 -1.424731581042048E-003 -1.424715399558819E-003
 -1.424737136321078E-003 -1.424709851489903E-003
 -1.424737691409023E-003 -1.424709284843501E-003
 -1.424737899963150E-003 -1.424709078006876E-003
 -1.424714358229105E-003 -1.424732638990975E-003
 -1.424713367689779E-003 -1.424733624099823E-003
 -1.424732407105823E-003 -1.424714555837235E-003
 -1.424721002783249E-003 -1.424725992436264E-003
 -1.424702218225490E-003 -1.424744775897938E-003
 -1.424724621855550E-003 -1.424722384903753E-003
 -1.424725820499563E-003 -1.424721186999925E-003
 -1.424730786081926E-003 -1.424716231148963E-003
 -1.424716310706165E-003 -1.424730656847041E-003
 -1.424727703795444E-003 -1.424719250459994E-003
 -1.424718386094851E-003 -1.424728625770413E-003
 -1.424718248630547E-003 -1.424728755459164E-003
 -1.424697303722460E-003 -1.424749672002249E-003
 -1.424714082941479E-003 -1.424732926955629E-003
 -1.424711719676462E-003 -1.424735232575078E-003
 -1.424709078720797E-003 -1.424737899482174E-003
 -1.424736048985673E-003 -1.424710975667662E-003
 -1.424723338624043E-003 -1.424723652619606E-003
 -1.424735004510212E-003 -1.424711961612033E-003
 -1.424691240121124E-003 -1.424755725151081E-003
 -1.424726975125201E-003 -1.424719999631904E-003
 -1.424721757252763E-003 -1.424725262791279E-003
 -1.424723547915696E-003 -1.424723443566726E-003
 -1.424740270120793E-003 -1.424706693843811E-003
 -1.424714124622658E-003 -1.424732852869533E-003
 -1.424711568010777E-003 -1.424735405775799E-003
 -1.424755109247537E-003 -1.424691886132115E-003
 -1.424724997855982E-003 -1.424721988408769E-003
 -1.424731645446545E-003 -1.424715341925898E-003
 -1.424741555518981E-003 -1.424705438172929E-003
 -1.424713107108247E-003 -1.424733899723337E-003
 -1.424702076849256E-003 -1.424744952183226E-003
 -1.424709933258311E-003 -1.424737039235458E-003
 -1.424703634933553E-003 -1.424743322737816E-003
 -1.424726132496128E-003 -1.424720872129262E-003
 -1.424697046323808E-003 -1.424749924760513E-003
 -1.424710499847942E-003 -1.424736474315557E-003
 -1.424723527141630E-003 -1.424723476839495E-003
 -1.424708142719622E-003 -1.424738816182896E-003
 -1.424727186686280E-003 -1.424719778879712E-003
 -1.424721277995694E-003 -1.424725724162645E-003
 -1.424705886303707E-003 -1.424741109500880E-003
 -1.424731479609888E-003 -1.424715503489311E-003
 -1.424715937632250E-003 -1.424731104674865E-003
 -1.424742258680722E-003 -1.424704717421454E-003
 -1.424718662285611E-003 -1.424728272755162E-003
 -1.424714709558412E-003 -1.424732286640530E-003
 -1.424733993120086E-003 -1.424712934684826E-003
 -1.424722257606261E-003 -1.424724719649001E-003
 -1.424705630580260E-003 -1.424741371791329E-003
 -1.424721937192879E-003 -1.424725048976312E-003
 -1.424724474778060E-003 -1.424722492037512E-003
 -1.424705839983692E-003 -1.424741171286589E-003
 -1.424722610845586E-003 -1.424724372015216E-003
 -1.424715963295969E-003 -1.424730996715300E-003
 -1.424720803989563E-003 -1.424726225712772E-003
 -1.424704916249519E-003 -1.424742073631503E-003
 -1.424715791435538E-003 -1.424731143998912E-003
 -1.424717567736140E-003 -1.424729418954474E-003
 -1.424710664732225E-003 -1.424736270461363E-003
 -1.424721506558178E-003 -1.424725472605801E-003
 -1.424705497746336E-003 -1.424741510593113E-003
 -1.424719335641159E-003 -1.424727649744243E-003
 -1.424715704546103E-003 -1.424731255677273E-003
 -1.424705622960527E-003 -1.424741376283235E-003
 -1.424719416773900E-003 -1.424727575386774E-003
 -1.424724714464713E-003 -1.424722250896467E-003
 -1.424717149667389E-003 -1.424729836154405E-003
 -1.424722974744431E-003 -1.424724099333607E-003
 -1.424714762944393E-003 -1.424732227120598E-003
 -1.424745865523465E-003 -1.424701137512951E-003
 -1.424723999437048E-003 -1.424723100284503E-003
 -1.424732314260581E-003 -1.424714663872308E-003
 -1.424727802558993E-003 -1.424719182136851E-003
 -1.424728350849615E-003 -1.424718763920337E-003
 -1.424702526724130E-003 -1.424744460497944E-003
 -1.424748316181870E-003 -1.424698668745743E-003
 -1.424729808289476E-003 -1.424717252791684E-003
 -1.424726062065844E-003 -1.424720934195258E-003
 -1.424748577944658E-003 -1.424698424018702E-003
 -1.424730551180468E-003 -1.424716553162814E-003
 -1.424709790446642E-003 -1.424737194010152E-003
 -1.424717925857004E-003 -1.424729056538151E-003
 -1.424728891030650E-003 -1.424718212678515E-003
 -1.424689646905534E-003 -1.424757351160701E-003
 -1.424732232621871E-003 -1.424714763160207E-003
 -1.424727784089841E-003 -1.424719331329529E-003
 -1.424712365493241E-003 -1.424734605459462E-003
 -1.424708924726251E-003 -1.424738066700030E-003
 -1.424727021600046E-003 -1.424720042452127E-003
 -1.424704876243166E-003 -1.424742110695425E-003
 -1.424703796195408E-003 -1.424743199941871E-003
 -1.424721220135206E-003 -1.424725881621105E-003
 -1.424703653144729E-003 -1.424743332884908E-003
 -1.424736692210757E-003 -1.424710275735832E-003
 -1.424728224937427E-003 -1.424718876047353E-003
 -1.424714152614233E-003 -1.424732847844252E-003
 -1.424757251498126E-003 -1.424689749133073E-003
 -1.424733497541926E-003 -1.424713604056903E-003
 -1.424704672681538E-003 -1.424742303741807E-003
 -1.424733337384513E-003 -1.424713649727206E-003
 -1.424725065862560E-003 -1.424721966125315E-003
 -1.424718722962206E-003 -1.424728256317965E-003
 -1.424732999428253E-003 -1.424713999907319E-003
 -1.424730718925021E-003 -1.424716386688474E-003
 -1.424704391270211E-003 -1.424742616483014E-003
 -1.424703964610421E-003 -1.424743004085001E-003
 -1.424716709395109E-003 -1.424730367775242E-003
 -1.424751617139981E-003 -1.424695377813275E-003
 -1.424721848566278E-003 -1.424725129991902E-003
 -1.424726937562913E-003 -1.424720165061978E-003
 -1.424705950135187E-003 -1.424741041359400E-003
 -1.424721241495521E-003 -1.424725742416527E-003
 -1.424729779528120E-003 -1.424717323086225E-003
 -1.424682693066338E-003 -1.424764298673466E-003
 -1.424724663967507E-003 -1.424722309383454E-003
 -1.424723943451302E-003 -1.424723093702758E-003
 -1.424708662233668E-003 -1.424738332886092E-003
 -1.424717380264442E-003 -1.424729568970578E-003
 -1.424718308876492E-003 -1.424728772326043E-003
 -1.424750560191234E-003 -1.424696449779901E-003
 -1.424731292155710E-003 -1.424715661683020E-003
 -1.424726994749093E-003 -1.424720018771853E-003
 -1.424714657561175E-003 -1.424732333461206E-003
 -1.424733254588697E-003 -1.424713732549636E-003
 -1.424730816048441E-003 -1.424716268198461E-003
 -1.424702419311196E-003 -1.424744541275260E-003
 -1.424712509191398E-003 -1.424734499497864E-003
 -1.424719150072219E-003 -1.424727887334316E-003
 -1.424740290535992E-003 -1.424706662966317E-003
 -1.424742139940295E-003 -1.424704826943184E-003
 -1.424731622482430E-003 -1.424715463487081E-003
 -1.424707345654790E-003 -1.424739651618868E-003
 -1.424713220220202E-003 -1.424733768114107E-003
 -1.424719310940238E-003 -1.424727727466140E-003
 -1.424740848054008E-003 -1.424706128013735E-003
 -1.424701920065947E-003 -1.424745046865438E-003
 -1.424716937340793E-003 -1.424730148532378E-003
 -1.424738388797693E-003 -1.424708601536143E-003
 -1.424726140531770E-003 -1.424720822361596E-003
 -1.424725623265658E-003 -1.424721390790231E-003
 -1.424712107544725E-003 -1.424734865102860E-003
 -1.424746225062219E-003 -1.424700775347500E-003
 -1.424727271936508E-003 -1.424719837348586E-003
 -1.424740101588475E-003 -1.424706874156071E-003
 -1.424710406699894E-003 -1.424736582839389E-003
 -1.424721372200325E-003 -1.424725757069530E-003
 -1.424728472735279E-003 -1.424718490766697E-003
 -1.424736508918359E-003 -1.424710476953782E-003
 -1.424720953405192E-003 -1.424726121172760E-003
 -1.424740542470919E-003 -1.424706443557933E-003
 -1.424732105587241E-003 -1.424714881267746E-003
 -1.424722475190646E-003 -1.424724639621690E-003
 -1.424762021832289E-003 -1.424684966161549E-003
 -1.424694265656706E-003 -1.424752739363242E-003
 -1.424720831093912E-003 -1.424726285918083E-003
 -1.424736212302052E-003 -1.424710762397327E-003
 -1.424723615471787E-003 -1.424723360033794E-003
 -1.424724401524554E-003 -1.424722727136583E-003
 -1.424744103964550E-003 -1.424702880866791E-003
 -1.424699163180031E-003 -1.424747815673430E-003
 -1.424720288794637E-003 -1.424726783551968E-003
 -1.424720766292455E-003 -1.424726231458981E-003
 -1.424700467557080E-003 -1.424746535056504E-003
 -1.424723936970568E-003 -1.424723172618216E-003
 -1.424711423387496E-003 -1.424735553824035E-003
 -1.424719068953165E-003 -1.424727908049602E-003
 -1.424721748795258E-003 -1.424725370553378E-003
 -1.424746382378474E-003 -1.424700606562591E-003
 -1.424731438552610E-003 -1.424715544622863E-003
 -1.424721114144931E-003 -1.424726006231969E-003
 -1.424761544423153E-003 -1.424685437112438E-003
 -1.424718073032258E-003 -1.424728908162857E-003
 -1.424718540743688E-003 -1.424728506812444E-003
 -1.424738281802394E-003 -1.424708706418736E-003
 -1.424716847599765E-003 -1.424730163175974E-003
 -1.424720753381866E-003 -1.424726365238669E-003
 -1.424743497015601E-003 -1.424703501085059E-003
 -1.424735616507374E-003 -1.424711346411964E-003
 -1.424725366972154E-003 -1.424721727205996E-003
 -1.424698959560841E-003 -1.424748033007643E-003
 -1.424707071086310E-003 -1.424739902328804E-003
 -1.424721488553031E-003 -1.424725630939071E-003
 -1.424742597982408E-003 -1.424704398355844E-003
 -1.424687659530159E-003 -1.424759336142099E-003
 -1.424719331880860E-003 -1.424727785991535E-003
 -1.424739273234543E-003 -1.424707700336693E-003
 -1.424711634531648E-003 -1.424735352438481E-003
 -1.424721912854960E-003 -1.424725131421514E-003
 -1.424735562827552E-003 -1.424711415907541E-003
 -1.424738930755475E-003 -1.424708031810781E-003
 -1.424725630442963E-003 -1.424721466158545E-003
 -1.424708853752004E-003 -1.424738137320624E-003
 -1.424725436938103E-003 -1.424721517837839E-003
 -1.424721330364045E-003 -1.424725693331493E-003
 -1.424732703600597E-003 -1.424714272143543E-003
 -1.424711931506531E-003 -1.424735030041119E-003
 -1.424719024493110E-003 -1.424728077266267E-003
 -1.424741736769407E-003 -1.424705256011196E-003
 -1.424733808803806E-003 -1.424713183857172E-003
 -1.424725530359107E-003 -1.424721514407775E-003
 -1.424704575523460E-003 -1.424742391265568E-003
 -1.424715876679252E-003 -1.424731131394545E-003
 -1.424719395823022E-003 -1.424727707133637E-003
 -1.424742136800562E-003 -1.424704811093183E-003
 -1.424732309442713E-003 -1.424714703100904E-003
 -1.424725019814622E-003 -1.424722024681807E-003
 -1.424704613384841E-003 -1.424742334272880E-003
 -1.424723881384612E-003 -1.424723067115181E-003
 -1.424725145909424E-003 -1.424721948177127E-003
 -1.424701654563386E-003 -1.424745350722120E-003
 -1.424714590114786E-003 -1.424732361092081E-003
 -1.424721083039836E-003 -1.424725937333276E-003
 -1.424729548552459E-003 -1.424717429600346E-003
 -1.424728575646344E-003 -1.424718408434122E-003
 -1.424723341240284E-003 -1.424723734238959E-003
 -1.424729965596671E-003 -1.424717017961934E-003
 -1.424699022090862E-003 -1.424747977851340E-003
 -1.424725019887888E-003 -1.424721961064166E-003
 -1.424711897991220E-003 -1.424735086419849E-003
 -1.424767800131223E-003 -1.424679196250163E-003
 -1.424749768988120E-003 -1.424697206300760E-003
 -1.424746324939583E-003 -1.424700680341273E-003
 -1.424690477866389E-003 -1.424756539348343E-003
 -1.424732151094139E-003 -1.424714789870889E-003
 -1.424696733763891E-003 -1.424750273337685E-003
 -1.424733373760194E-003 -1.424713633228119E-003
 -1.424733489632252E-003 -1.424713443307012E-003
 -1.424721357810414E-003 -1.424725629907489E-003
 -1.424761439252280E-003 -1.424685549223632E-003
 -1.424725448895871E-003 -1.424721556909907E-003
 -1.424744524294700E-003 -1.424702455292113E-003
 -1.424684014467691E-003 -1.424762997611120E-003
 -1.424712265520405E-003 -1.424734681624911E-003
 -1.424710464052206E-003 -1.424736538043320E-003
 -1.424728175547526E-003 -1.424718824762851E-003
 -1.424713057856854E-003 -1.424733877695208E-003
 -1.424731669148196E-003 -1.424715319899902E-003
 -1.424767809732511E-003 -1.424679193452763E-003
 -1.424700275066378E-003 -1.424746700312435E-003
 -1.424747239496618E-003 -1.424699752267577E-003
 -1.424726665542208E-003 -1.424720332166362E-003
 -1.424722977601301E-003 -1.424724102924305E-003
 -1.424724010050209E-003 -1.424722959966334E-003
 -1.424767566930126E-003 -1.424679424594556E-003
 -1.424726621915005E-003 -1.424720473889156E-003
 -1.424735796397160E-003 -1.424711187717911E-003
 -1.424757029176683E-003 -1.424689961845163E-003
 -1.424722240408224E-003 -1.424724854980705E-003
 -1.424755301318976E-003 -1.424691684388772E-003
 -1.424693899877315E-003 -1.424753113943703E-003
 -1.424722654333105E-003 -1.424724421512391E-003
 -1.424709239668656E-003 -1.424737735048231E-003
 -1.424739791316776E-003 -1.424707184181317E-003
 -1.424724150997462E-003 -1.424722923071317E-003
 -1.424740294166583E-003 -1.424706679147662E-003
 -1.424710474377509E-003 -1.424736491260845E-003
 -1.424724127879469E-003 -1.424722907928066E-003
 -1.424705362697796E-003 -1.424741631669446E-003
 -1.424714973576671E-003 -1.424732040314026E-003
 -1.424724110727506E-003 -1.424722970410515E-003
 -1.424692000856069E-003 -1.424754969034587E-003
 -1.424725866878690E-003 -1.424721154342914E-003
 -1.424724776255684E-003 -1.424722251176831E-003
 -1.424725818092114E-003 -1.424721152729201E-003
 -1.424749328395499E-003 -1.424697657010074E-003
 -1.424725465743909E-003 -1.424721620717007E-003
 -1.424748235396527E-003 -1.424698744851831E-003
 -1.424732283466170E-003 -1.424714686441476E-003
 -1.424728399209930E-003 -1.424718617704483E-003
 -1.424715085098227E-003 -1.424731917031974E-003
 -1.424735504810053E-003 -1.424711484972216E-003
 -1.424721697433102E-003 -1.424725401728118E-003
 -1.424712057709565E-003 -1.424734906616609E-003
 -1.424745506690076E-003 -1.424701486120194E-003
 -1.424723963210326E-003 -1.424723097502048E-003
 -1.424731952129366E-003 -1.424715033604487E-003
 -1.424697870175764E-003 -1.424749132512504E-003
 -1.424723019800760E-003 -1.424724056245145E-003
 -1.424704239428521E-003 -1.424742745599572E-003
 -1.424745687728871E-003 -1.424701281202263E-003
 -1.424724339014720E-003 -1.424722738392808E-003
 -1.424731576866071E-003 -1.424715405573394E-003
 -1.424700783951879E-003 -1.424746176759819E-003
 -1.424723093166212E-003 -1.424723944607524E-003
 -1.424721150827833E-003 -1.424725851275406E-003
 -1.424693641290408E-003 -1.424753365663133E-003
 -1.424722852772768E-003 -1.424724230630975E-003
 -1.424731753297048E-003 -1.424715220974700E-003
 -1.424727058311464E-003 -1.424719934986647E-003
 -1.424723242432644E-003 -1.424723784785112E-003
 -1.424724469221346E-003 -1.424722525964792E-003
 -1.424757717493745E-003 -1.424689263836556E-003
 -1.424723746252751E-003 -1.424723342530898E-003
 -1.424734371446439E-003 -1.424712613072973E-003
 -1.424721181790179E-003 -1.424725817501633E-003
 -1.424719252176909E-003 -1.424727768094758E-003
 -1.424735321053397E-003 -1.424711653933460E-003
 -1.424720498247479E-003 -1.424726480077826E-003
 -1.424726350035408E-003 -1.424720752520083E-003
 -1.424737753118233E-003 -1.424709218419988E-003
 -1.424741744496850E-003 -1.424705232391392E-003
 -1.424722784200795E-003 -1.424724280016608E-003
 -1.424736982525101E-003 -1.424710015075253E-003
 -1.424713471650155E-003 -1.424733538515728E-003
 -1.424732940021145E-003 -1.424714039814483E-003
 -1.424714564429909E-003 -1.424732395987839E-003
 -1.424729225778013E-003 -1.424717777181683E-003
 -1.424734391584343E-003 -1.424712570314595E-003
 -1.424731793640935E-003 -1.424715182001237E-003
 -1.424736637791276E-003 -1.424710374494141E-003
 -1.424728592615925E-003 -1.424718415588040E-003
 -1.424743878159074E-003 -1.424703109721930E-003
 -1.424711780304980E-003 -1.424735181863642E-003
 -1.424713448771207E-003 -1.424733527580977E-003
 -1.424721354694721E-003 -1.424725648699883E-003
 -1.424738692315351E-003 -1.424708295165635E-003
 -1.424712587052289E-003 -1.424734368148684E-003
 -1.424724612461316E-003 -1.424722385924788E-003
 -1.424747533429827E-003 -1.424699450705565E-003
 -1.424720963618717E-003 -1.424726044091675E-003
 -1.424717036790834E-003 -1.424729975403000E-003
 -1.424710227525815E-003 -1.424736785453720E-003
 -1.424724752981766E-003 -1.424722236755748E-003
 -1.424717764686640E-003 -1.424729213943495E-003
 -1.424754571113765E-003 -1.424692382322898E-003
 -1.424714762488336E-003 -1.424732209902325E-003
 -1.424730688295972E-003 -1.424716343988426E-003
 -1.424723672335568E-003 -1.424723309681065E-003
 -1.424707337576688E-003 -1.424739619871844E-003
 -1.424728490567678E-003 -1.424718493235364E-003
 -1.424735340002945E-003 -1.424711635246618E-003
 -1.424695078569558E-003 -1.424751907631460E-003
 -1.424717575045928E-003 -1.424729420559583E-003
 -1.424719234133280E-003 -1.424727751818966E-003
 -1.424706788681288E-003 -1.424740204889466E-003
 -1.424731315923560E-003 -1.424715689946911E-003
 -1.424749882970109E-003 -1.424697131226065E-003
 -1.424733726404658E-003 -1.424713249055071E-003
 -1.424744112063853E-003 -1.424702856053391E-003
 -1.424725588676192E-003 -1.424721409167652E-003
 -1.424737865452574E-003 -1.424709098242339E-003
 -1.424719237602710E-003 -1.424727726631574E-003
 -1.424720696475058E-003 -1.424726306334845E-003
 -1.424738267460747E-003 -1.424708730347170E-003
 -1.424713307106905E-003 -1.424733687229994E-003
 -1.424724167110207E-003 -1.424722826773856E-003
 -1.424754628722480E-003 -1.424692357846120E-003
 -1.424733610501818E-003 -1.424713365631879E-003
 -1.424729565089524E-003 -1.424717450422580E-003
 -1.424703460939263E-003 -1.424743521275155E-003
 -1.424725658747837E-003 -1.424721297480783E-003
 -1.424730430401479E-003 -1.424716559024794E-003
 -1.424712702107287E-003 -1.424734228729095E-003
 -1.424727470291878E-003 -1.424719509947737E-003
 -1.424741356686107E-003 -1.424705630333786E-003
 -1.424722693098048E-003 -1.424724292732362E-003
 -1.424728784616112E-003 -1.424718197300569E-003
 -1.424736999764073E-003 -1.424710005744150E-003
 -1.424722487450393E-003 -1.424724499395425E-003
 -1.424735916895207E-003 -1.424711046537705E-003
 -1.424728835890015E-003 -1.424718179820110E-003
 -1.424741937465636E-003 -1.424705043931642E-003
 -1.424726448936080E-003 -1.424720507748447E-003
 -1.424729704611739E-003 -1.424717285502809E-003
 -1.424735650404087E-003 -1.424711279258215E-003
 -1.424727078250580E-003 -1.424719903207344E-003
 -1.424741787430048E-003 -1.424705199734417E-003
 -1.424725311979427E-003 -1.424721674150597E-003
 -1.424728788043163E-003 -1.424718194595143E-003
 -1.424737722775463E-003 -1.424709282482678E-003
 -1.424725503208250E-003 -1.424721483039971E-003
 -1.424736496435429E-003 -1.424710466474231E-003
 Gradient of SCF Energy
            1           2           3           4           5           6
    1   0.0020686  -0.0003681  -0.0001958  -0.0026523  -0.0035836   0.0012466
    2   0.0005354  -0.0001037  -0.0000427  -0.0006708  -0.0003492   0.0001584
    3   0.0006737   0.0002104  -0.0003890   0.0019791  -0.0011453   0.0004625
            7           8           9          10          11          12
    1  -0.0009321   0.0002308   0.0028706  -0.0007925   0.0016885   0.0004382
    2   0.0000359  -0.0000209   0.0005663  -0.0001825   0.0002463  -0.0000162
    3  -0.0030527   0.0008058  -0.0028363   0.0007326   0.0010417   0.0007477
           13          14          15          16          17          18
    1  -0.0012597  -0.0036774   0.0014166  -0.0023232   0.0007518   0.0012017
    2  -0.0002022  -0.0004004   0.0001607  -0.0003727   0.0001085  -0.0000053
    3  -0.0030137  -0.0009232   0.0002183   0.0022632  -0.0007902   0.0044338
           19          20          21          22          23          24
    1  -0.0006124   0.0021968   0.0003425  -0.0011799   0.0003509  -0.0001938
    2  -0.0000229   0.0003231   0.0000540  -0.0003602  -0.0018825   0.0009142
    3  -0.0018107   0.0004337  -0.0006453  -0.0005574   0.0001359  -0.0000233
           25          26          27          28          29          30
    1  -0.0002019   0.0001221   0.0003209   0.0004863   0.0002439  -0.0004425
    2   0.0018615  -0.0009592   0.0003824  -0.0003170   0.0002101   0.0014438
    3  -0.0000788  -0.0000406   0.0002468   0.0002191   0.0000368  -0.0010523
           31          32          33          34          35          36
    1   0.0005946  -0.0000468  -0.0005133  -0.0001361   0.0006846   0.0006529
    2  -0.0009830  -0.0003242  -0.0016646   0.0003231   0.0011993   0.0000803
    3   0.0009158  -0.0000071   0.0001746   0.0000530  -0.0001419   0.0001732
           37          38          39          40          41          42
    1  -0.0004982   0.0002619  -0.0002554   0.0004696  -0.0003853  -0.0003569
    2   0.0012543  -0.0003327  -0.0008789  -0.0001538  -0.0014578   0.0007474
    3  -0.0007204   0.0004863   0.0000879   0.0002553   0.0002209  -0.0003009
           43          44          45          46          47          48
    1   0.0004293   0.0003352  -0.0016496   0.0009189   0.0005975   0.0009013
    2   0.0005411   0.0002984   0.0012218  -0.0004823  -0.0001772  -0.0000501
    3  -0.0001297   0.0001874  -0.0002829   0.0001988   0.0006748  -0.0003442
           49          50          51          52          53          54
    1  -0.0014268   0.0006888   0.0009753   0.0005720  -0.0001723  -0.0006433
    2  -0.0015164   0.0005821   0.0003441   0.0002426  -0.0000265  -0.0001751
    3  -0.0004720   0.0002191  -0.0004266   0.0008548  -0.0000588   0.0002664
           55          56          57          58          59          60
    1  -0.0018336   0.0006886  -0.0002845   0.0011812   0.0020405  -0.0011063
    2  -0.0000793  -0.0000589   0.0001582   0.0002817   0.0002177  -0.0001706
    3  -0.0011712   0.0009637  -0.0013919  -0.0005459   0.0008381  -0.0000132
           61          62          63          64          65          66
    1   0.0000895  -0.0004033  -0.0044467   0.0033865   0.0000512  -0.0000349
    2  -0.0002050  -0.0002710  -0.0006556   0.0005625   0.0000257  -0.0000308
    3   0.0007950   0.0009821  -0.0008441   0.0002597  -0.0002763   0.0001855
           67          68          69          70          71          72
    1  -0.0004877   0.0030201  -0.0020284  -0.0021572   0.0020802   0.0015557
    2  -0.0002710  -0.0000252   0.0001203   0.0002125  -0.0001920   0.0011029
    3   0.0008669   0.0033737  -0.0026997  -0.0032908   0.0029933  -0.0042109
           73          74          75          76          77          78
    1  -0.0014112   0.0025872  -0.0020996   0.0038943  -0.0035871   0.0000003
    2  -0.0009319   0.0011526  -0.0009917   0.0007459  -0.0006538  -0.0000045
    3   0.0034724  -0.0035827   0.0031067   0.0000897  -0.0001529  -0.0008313
           79          80          81          82          83          84
    1  -0.0017935   0.0008652  -0.0014226   0.0002864   0.0018183  -0.0005674
    2  -0.0001251   0.0000804  -0.0002823  -0.0001073   0.0002094  -0.0000803
    3  -0.0007476  -0.0001350   0.0007361   0.0014432   0.0011357  -0.0008693
           85          86          87          88          89          90
    1   0.0007167   0.0007212  -0.0032432   0.0020542  -0.0002190   0.0001443
    2   0.0000409   0.0001992  -0.0001966   0.0000930  -0.0000391   0.0000252
    3  -0.0005491  -0.0010576  -0.0030372   0.0023941   0.0002468  -0.0002093
           91          92          93          94          95          96
    1   0.0004186   0.0043903  -0.0032090  -0.0038856   0.0034839  -0.0024280
    2   0.0001729   0.0005938  -0.0004677  -0.0005553   0.0004921  -0.0006684
    3  -0.0010878   0.0006257  -0.0001056   0.0001710  -0.0000782   0.0038585
           97          98          99         100         101         102
    1   0.0019123  -0.0014473   0.0012480   0.0023276  -0.0021562   0.0001017
    2   0.0005430  -0.0005571   0.0004834   0.0000403  -0.0000576   0.0001744
    3  -0.0031894   0.0042731  -0.0035166   0.0032271  -0.0028729   0.0001411
          103         104         105         106         107         108
    1  -0.0000924  -0.0004063   0.0002334  -0.0000735   0.0009967  -0.0002529
    2  -0.0000619  -0.0002053  -0.0018638   0.0010100   0.0001646   0.0019581
    3  -0.0000943  -0.0002185  -0.0000778   0.0000601   0.0005424   0.0001055
          109         110         111         112         113         114
    1   0.0000539  -0.0003150  -0.0019238   0.0004077   0.0000909   0.0004460
    2  -0.0011231   0.0001843  -0.0002302   0.0000405   0.0000710   0.0000546
    3  -0.0000747  -0.0001201  -0.0010412  -0.0001378   0.0004146   0.0031607
          115         116         117         118         119         120
    1   0.0034147  -0.0013719   0.0028184  -0.0008393  -0.0000960   0.0001065
    2   0.0001027  -0.0000128   0.0000614  -0.0000338   0.0000725  -0.0000467
    3   0.0017668  -0.0005380  -0.0015355   0.0005146  -0.0041521   0.0013936
          121         122         123         124         125         126
    1  -0.0020332  -0.0005685   0.0029104   0.0032726  -0.0012439   0.0001232
    2  -0.0000919  -0.0000553   0.0000379   0.0000934  -0.0000227   0.0000429
    3  -0.0007216   0.0004148  -0.0013075   0.0019724  -0.0008327   0.0032327
          127         128         129         130         131         132
    1  -0.0000176  -0.0037134   0.0013514  -0.0017026   0.0000827   0.0007547
    2   0.0000004  -0.0000546   0.0000659  -0.0000059  -0.0000179   0.0015927
    3  -0.0010094   0.0021445  -0.0006987  -0.0012955  -0.0007031  -0.0005850
          133         134         135         136         137         138
    1  -0.0008963   0.0001504   0.0002587  -0.0004771   0.0000998  -0.0005502
    2  -0.0011534  -0.0003016  -0.0015655   0.0010750   0.0003617   0.0000250
    3   0.0003042   0.0000608   0.0007698  -0.0008034   0.0001197  -0.0002676
          139         140         141         142         143         144
    1   0.0003180  -0.0001787   0.0003528  -0.0004717   0.0004182  -0.0002089
    2  -0.0013487   0.0003490   0.0008997   0.0002152   0.0012935  -0.0001347
    3   0.0004772  -0.0003853   0.0000623  -0.0002335   0.0001968  -0.0000215
          145         146         147         148         149         150
    1  -0.0006753   0.0003407   0.0015673  -0.0007309  -0.0004105  -0.0010451
    2  -0.0002919  -0.0009029  -0.0013375   0.0005248   0.0002048   0.0001803
    3  -0.0003169   0.0003073   0.0008510  -0.0003813  -0.0010069   0.0001753
          151         152         153         154
    1   0.0014456  -0.0007059  -0.0004149  -0.0009697
    2   0.0013686  -0.0005283  -0.0002052  -0.0002092
    3   0.0007915  -0.0003639  -0.0009475   0.0001536
 Max gradient component =       4.447E-03
 RMS gradient           =       1.301E-03
 Computing fast IEFPCM-SWIG gradient.
 Updating gradient with PCM contributions...
 -- total gradient after adding PCM contribution --
---------------------------------------------------
  Atom         X              Y              Z     
---------------------------------------------------
   1      -0.000008       0.000203      -0.000015
   2       0.000081      -0.000060      -0.000009
   3       0.000065      -0.000081      -0.000029
   4      -0.000042      -0.000059       0.000020
   5       0.000020       0.000010      -0.000019
   6      -0.000070       0.000029      -0.000036
   7      -0.000029      -0.000007      -0.000003
   8       0.000005      -0.000003      -0.000010
   9       0.000009       0.000011      -0.000032
  10       0.000002      -0.000019       0.000007
  11       0.000003       0.000022       0.000033
  12       0.000001      -0.000007       0.000004
  13      -0.000060      -0.000012       0.000005
  14       0.000002      -0.000021      -0.000015
  15      -0.000038      -0.000040      -0.000009
  16       0.000004       0.000001       0.000004
  17       0.000005      -0.000003      -0.000010
  18      -0.000005      -0.000029      -0.000009
  19      -0.000002       0.000002      -0.000004
  20       0.000002       0.000068       0.000054
  21      -0.000008      -0.000005      -0.000004
  22      -0.000005      -0.000105      -0.000056
  23       0.000023      -0.000019       0.000024
  24       0.000017      -0.000015       0.000004
  25       0.000012      -0.000007      -0.000013
  26       0.000004      -0.000003      -0.000010
  27      -0.000014      -0.000015      -0.000039
  28      -0.000019      -0.000032       0.000015
  29      -0.000003       0.000040       0.000025
  30      -0.000022      -0.000004      -0.000016
  31       0.000009       0.000011       0.000004
  32      -0.000001      -0.000001      -0.000005
  33      -0.000004      -0.000013      -0.000017
  34       0.000007      -0.000003       0.000004
  35       0.000011       0.000003       0.000001
  36       0.000002       0.000039      -0.000013
  37       0.000006      -0.000005      -0.000004
  38       0.000001      -0.000010      -0.000009
  39      -0.000006       0.000000      -0.000008
  40      -0.000006      -0.000003       0.000003
  41       0.000004      -0.000003       0.000012
  42       0.000004      -0.000004       0.000000
  43       0.000012       0.000020      -0.000004
  44       0.000010      -0.000002      -0.000000
  45       0.000033      -0.000001       0.000042
  46      -0.000008      -0.000013      -0.000017
  47       0.000035      -0.000041      -0.000007
  48       0.000001       0.000005      -0.000009
  49       0.000023      -0.000018       0.000011
  50      -0.000001      -0.000011      -0.000017
  51       0.000041       0.000018      -0.000031
  52       0.000030      -0.000008       0.000001
  53       0.000003       0.000024      -0.000031
  54      -0.000025      -0.000001      -0.000033
  55       0.000049      -0.000006       0.000031
  56       0.000005      -0.000008      -0.000007
  57      -0.000007       0.000001      -0.000014
  58      -0.000019      -0.000021       0.000011
  59       0.000007      -0.000031      -0.000012
  60       0.000037       0.000027      -0.000008
  61       0.000015      -0.000042       0.000002
  62       0.000017      -0.000004       0.000031
  63       0.000013       0.000005      -0.000029
  64       0.000003      -0.000008      -0.000011
  65      -0.000031      -0.000028      -0.000014
  66       0.000026       0.000006       0.000007
  67       0.000048       0.000001       0.000000
  68      -0.000039       0.000032       0.000013
  69      -0.000025      -0.000034       0.000020
  70       0.000016      -0.000018       0.000002
  71       0.000005       0.000000       0.000007
  72       0.000003       0.000016      -0.000052
  73       0.000003      -0.000008      -0.000002
  74      -0.000006      -0.000011       0.000015
  75      -0.000007      -0.000021       0.000005
  76       0.000006      -0.000003       0.000037
  77       0.000002       0.000007      -0.000012
  78       0.000006      -0.000027       0.000006
  79      -0.000021       0.000026      -0.000016
  80      -0.000013      -0.000003       0.000012
  81      -0.000011      -0.000016       0.000004
  82      -0.000001      -0.000021      -0.000022
  83       0.000022       0.000007      -0.000017
  84      -0.000010       0.000018       0.000039
  85      -0.000012      -0.000045      -0.000010
  86       0.000009      -0.000001       0.000004
  87       0.000036       0.000019       0.000008
  88      -0.000014      -0.000011       0.000029
  89      -0.000029       0.000012      -0.000028
  90       0.000010      -0.000004      -0.000002
  91       0.000009       0.000002       0.000007
  92      -0.000023      -0.000009      -0.000024
  93      -0.000011       0.000013       0.000011
  94      -0.000007       0.000016       0.000015
  95      -0.000005      -0.000008      -0.000008
  96      -0.000001       0.000005      -0.000015
  97      -0.000015      -0.000001      -0.000006
  98      -0.000001       0.000008      -0.000006
  99      -0.000022       0.000008       0.000006
 100       0.000006      -0.000016       0.000019
 101      -0.000004       0.000008      -0.000018
 102      -0.000003       0.000178       0.000050
 103       0.000010      -0.000188      -0.000019
 104      -0.000015       0.000045       0.000025
 105       0.000038       0.000036       0.000033
 106       0.000003      -0.000001       0.000001
 107      -0.000010       0.000001      -0.000001
 108      -0.000028       0.000011      -0.000015
 109      -0.000011       0.000004       0.000012
 110      -0.000014       0.000035      -0.000029
 111       0.000000      -0.000113       0.000032
 112      -0.000009       0.000072      -0.000008
 113      -0.000008       0.000029      -0.000011
 114      -0.000010       0.000040       0.000004
 115       0.000029      -0.000009       0.000027
 116       0.000025       0.000025       0.000028
 117      -0.000021      -0.000013       0.000036
 118      -0.000003       0.000003       0.000014
 119       0.000046      -0.000004       0.000003
 120       0.000006       0.000001       0.000007
 121      -0.000035       0.000029      -0.000025
 122      -0.000005       0.000006       0.000013
 123       0.000006      -0.000012       0.000004
 124      -0.000033      -0.000004       0.000018
 125       0.000016       0.000012      -0.000022
 126      -0.000006      -0.000010      -0.000020
 127      -0.000005       0.000009       0.000012
 128      -0.000032       0.000056       0.000004
 129      -0.000008       0.000003      -0.000001
 130       0.000004      -0.000002       0.000010
 131       0.000008      -0.000013       0.000008
 132       0.000013       0.000008       0.000022
 133      -0.000009       0.000003      -0.000005
 134       0.000016       0.000020       0.000024
 135       0.000011       0.000007      -0.000013
 136       0.000010      -0.000002       0.000000
 137      -0.000007       0.000023       0.000005
 138      -0.000017       0.000027       0.000029
 139      -0.000030       0.000003       0.000019
 140      -0.000000       0.000011      -0.000008
 141       0.000011       0.000000       0.000009
 142       0.000000       0.000009       0.000000
 143      -0.000024       0.000008       0.000013
 144       0.000015      -0.000006      -0.000021
 145      -0.000010      -0.000004      -0.000008
 146       0.000008       0.000002      -0.000005
 147      -0.000011      -0.000037      -0.000028
 148       0.000005       0.000006       0.000011
 149      -0.000008      -0.000001       0.000019
 150      -0.000007      -0.000004       0.000012
 151      -0.000010       0.000010      -0.000024
 152       0.000003       0.000004       0.000011
 153      -0.000035       0.000023       0.000019
 154       0.000013       0.000008      -0.000005
[...]
  0.851   0.851   0.855   0.856   0.861   0.870   0.873   0.876
  0.877   0.878   0.879   0.886   0.888   0.891   0.892   0.895
  0.897   0.901   0.908   0.912   0.915   0.917   0.921   0.923
  0.925   0.930   0.933   0.939   0.945   0.946   0.949   0.950
  0.953   0.955   0.955   0.957   0.963   0.965   0.966   0.971
  0.977   0.977   0.980   0.982   0.984   0.984   0.987   0.990
  0.991   0.993   0.993   0.997   0.999   1.001   1.002   1.002
  1.004   1.007   1.008   1.010   1.012   1.018   1.020   1.021
  1.023   1.028   1.030   1.032   1.034   1.034   1.036   1.038
  1.040   1.041   1.044   1.045   1.046   1.048   1.049   1.049
  1.051   1.055   1.056   1.057   1.058   1.061   1.064   1.065
  1.067   1.067   1.068   1.069   1.073   1.074   1.076   1.078
  1.078   1.083   1.084   1.085   1.087   1.090   1.091   1.093
  1.096   1.099   1.102   1.103   1.105   1.113   1.114   1.116
  1.116   1.121   1.124   1.125   1.127   1.128   1.131   1.132
  1.134   1.137   1.138   1.142   1.144   1.147   1.147   1.151
  1.152   1.157   1.159   1.164   1.166   1.168   1.169   1.171
  1.174   1.175   1.178   1.179   1.180   1.181   1.186   1.193
  1.201   1.206   1.212   1.216   1.219   1.220   1.221   1.223
  1.227   1.229   1.244   1.248   1.249   1.256   1.257   1.258
  1.260   1.265   1.266   1.271   1.277   1.282   1.285   1.288
  1.290   1.292   1.297   1.297   1.298   1.301   1.307   1.308
  1.310   1.312   1.314   1.316   1.317   1.320   1.325   1.328
  1.329   1.334   1.335   1.337   1.338   1.342   1.345   1.346
  1.354   1.356   1.359   1.364   1.367   1.368   1.369   1.373
  1.374   1.374   1.376   1.377   1.383   1.384   1.398   1.399
  1.405   1.407   1.408   1.408   1.414   1.417   1.418   1.425
  1.438   1.439   1.439   1.441   1.443   1.445   1.447   1.454
  1.459   1.464   1.467   1.469   1.479   1.481   1.494   1.497
  1.498   1.499   1.505   1.505   1.506   1.509   1.510   1.510
  1.514   1.516   1.517   1.521   1.525   1.528   1.530   1.530
  1.537   1.539   1.540   1.541   1.546   1.546   1.546   1.548
  1.549   1.551   1.554   1.559   1.560   1.561   1.564   1.564
  1.571   1.574   1.575   1.578   1.580   1.581   1.584   1.587
  1.589   1.595   1.597   1.605   1.611   1.619   1.621   1.626
  1.628   1.633   1.635   1.647   1.649   1.655   1.661   1.664
  1.665   1.668   1.672   1.685   1.694   1.700   1.709   1.710
  1.711   1.724   1.737   1.738   1.740   1.745   1.748   1.750
  1.754   1.758   1.765   1.767   1.774   1.777   1.782   1.787
  1.787   1.793   1.797   1.801   1.805   1.805   1.806   1.807
  1.808   1.810   1.813   1.813   1.815   1.818   1.833   1.834
  1.835   1.844   1.856   1.856   1.866   1.869   1.874   1.878
  1.879   1.883   1.898   1.900   1.901   1.902   1.904   1.914
  1.916   1.917   1.918   1.922   1.922   1.923   1.928   1.929
  1.931   1.932   1.932   1.941   1.944   1.949   1.950   1.965
  1.967   1.975   1.977   1.978   1.981   1.982   1.983   1.986
  1.991   1.993   1.993   1.996   1.997   2.000   2.001   2.008
  2.010   2.010   2.024   2.029   2.032   2.036   2.037   2.043
  2.049   2.049   2.052   2.056   2.060   2.062   2.069   2.070
  2.071   2.073   2.079   2.080   2.084   2.091   2.097   2.097
  2.097   2.097   2.110   2.110   2.118   2.120   2.127   2.128
  2.130   2.132   2.133   2.135   2.143   2.146   2.146   2.148
  2.153   2.154   2.155   2.157   2.165   2.177   2.180   2.183
  2.185   2.186   2.187   2.196   2.199   2.200   2.201   2.205
  2.212   2.213   2.217   2.217   2.218   2.219   2.230   2.231
  2.237   2.247   2.249   2.252   2.253   2.254   2.259   2.262
  2.263   2.263   2.272   2.275   2.276   2.276   2.279   2.281
  2.282   2.284   2.287   2.288   2.292   2.305   2.308   2.310
  2.316   2.319   2.319   2.320   2.321   2.323   2.330   2.332
  2.332   2.334   2.336   2.340   2.341   2.342   2.343   2.346
  2.348   2.353   2.353   2.354   2.355   2.357   2.357   2.363
  2.366   2.367   2.368   2.372   2.380   2.383   2.386   2.386
  2.387   2.389   2.394   2.396   2.399   2.403   2.404   2.408
  2.412   2.413   2.413   2.415   2.417   2.417   2.420   2.425
  2.427   2.432   2.438   2.442   2.442   2.448   2.462   2.472
  2.475   2.476   2.478   2.482   2.485   2.487   2.490   2.491
  2.491   2.497   2.505   2.507   2.516   2.518   2.521   2.526
  2.532   2.537   2.540   2.553   2.561   2.567   2.576   2.594
  2.596   2.603   2.610   2.611   2.613   2.622   2.626   2.628
  2.641   2.642   2.643   2.667   2.679   2.680   2.681   2.683
  2.684   2.687   2.699   2.701   2.702   2.705   2.709   2.711
  2.715   2.723   2.725   2.727   2.728   2.729   2.731   2.732
  2.736   2.748   2.751   2.753   2.765   2.769   2.773   2.778
  2.779   2.782   2.786   2.788   2.789   2.789   2.790   2.793
  2.801   2.802   2.805   2.806   2.807   2.809   2.810   2.811
  2.812   2.818   2.820   2.822   2.824   2.826   2.837   2.838
  2.846   2.858   2.862   2.863   2.872   2.876   2.877   2.880
  2.883   2.892   2.895   2.900   2.903   2.904   2.929   2.937
  2.945   2.950   2.955   2.962   2.967   2.968   2.969   2.981
  2.995   2.997   3.002   3.006   3.007   3.013   3.014   3.031
  3.044   3.048   3.063   3.073   3.081   3.082   3.109   3.115
  3.118   3.202   3.202   3.231   3.233   3.237   3.252   3.254
  3.401   3.408   3.409   3.439   3.446   3.487   3.490   3.492
  3.507   3.515   3.569   3.569   3.574   3.577   3.664   3.678
  9.579   9.730  13.141  13.174  13.248  13.249  13.337  13.339
 13.478  13.496  13.513  13.526  13.546  13.572  13.649  13.649
 13.665  13.673  13.708  13.711  13.729  13.738  13.740  13.768
 13.771  13.775  13.776  13.792  13.802  13.806  13.860  13.862
 13.870  13.876  13.882  13.900  13.903  13.913  13.938  13.999
 14.014  14.026  14.034  14.037  14.038  14.042  14.047  14.055
 14.150  14.159  14.161  14.162  14.162  14.181  14.183  14.204
 14.206  14.210  14.219  14.222  14.226  14.257  14.259  14.268
 14.289  14.292  14.304  14.307  14.308  14.317  14.343  14.347
 14.511  14.515  14.565  14.573  14.581  14.582  14.591  14.591
 14.604  14.604  14.617  14.622  19.645  19.645
 --------------------------------------------------------------
 
          Ground-State Mulliken Net Atomic Charges

     Atom                 Charge (a.u.)
  ----------------------------------------
      1 N                    -0.717760
      2 C                     0.311667
      3 C                     0.306109
      4 C                     0.130995
      5 C                    -0.310326
      6 H                     0.231251
      7 C                    -0.253654
      8 H                     0.232572
      9 C                    -0.253195
     10 H                     0.236641
     11 C                    -0.325731
     12 H                     0.261248
     13 C                     0.133245
     14 C                    -0.310094
     15 H                     0.231282
     16 C                    -0.253247
     17 H                     0.232374
     18 C                    -0.253630
     19 H                     0.234779
     20 C                    -0.322657
     21 H                     0.263243
     22 C                     0.187442
     23 C                    -0.314133
     24 H                     0.241410
     25 C                    -0.298403
     26 H                     0.242210
     27 C                     0.058451
     28 C                     0.055017
     29 C                    -0.215589
     30 C                    -0.556157
     31 H                     0.245168
     32 H                     0.255510
     33 C                    -0.555900
     34 H                     0.258353
     35 H                     0.245318
     36 C                    -0.200649
     37 C                    -0.655342
     38 H                     0.238389
     39 H                     0.228908
     40 H                     0.223352
     41 C                    -0.654225
     42 H                     0.228113
     43 H                     0.238618
     44 H                     0.223273
     45 C                    -0.613056
     46 H                     0.234034
     47 H                     0.225958
     48 H                     0.225718
     49 C                    -0.617570
     50 H                     0.234364
     51 H                     0.226571
     52 H                     0.226360
     53 B                     0.667408
     54 C                    -0.151793
     55 C                    -0.401661
     56 H                     0.242778
     57 C                     0.098983
     58 C                     0.074277
     59 C                    -0.388643
     60 H                     0.242650
     61 C                    -0.153135
     62 C                     0.184256
     63 C                    -0.394241
     64 H                     0.244830
     65 C                    -0.064928
     66 C                     0.229546
     67 C                     0.183820
     68 C                    -0.384966
     69 H                     0.243759
     70 C                    -0.225686
     71 H                     0.251525
     72 C                    -0.347183
     73 H                     0.248397
     74 C                    -0.342956
     75 H                     0.248130
     76 C                    -0.228409
     77 H                     0.251963
     78 C                    -0.150974
     79 C                    -0.397502
     80 H                     0.248499
     81 C                     0.098043
     82 C                     0.074866
     83 C                    -0.387446
     84 H                     0.242037
     85 C                    -0.153222
     86 C                     0.185562
     87 C                    -0.397391
     88 H                     0.245588
     89 C                    -0.065787
     90 C                     0.228039
     91 C                     0.184814
     92 C                    -0.385782
     93 H                     0.242995
     94 C                    -0.225566
     95 H                     0.250381
     96 C                    -0.346735
     97 H                     0.248500
     98 C                    -0.342271
     99 H                     0.248105
    100 C                    -0.227799
    101 H                     0.251809
    102 B                     0.671703
    103 C                    -0.227476
    104 C                     0.056908
    105 C                    -0.306329
    106 H                     0.241528
    107 C                     0.192534
    108 C                    -0.304355
    109 H                     0.242828
    110 C                     0.059264
    111 N                    -0.718406
    112 C                     0.309775
    113 C                     0.310730
    114 C                     0.130326
    115 C                    -0.309684
    116 H                     0.231410
    117 C                    -0.253819
    118 H                     0.232605
    119 C                    -0.252502
    120 H                     0.235752
    121 C                    -0.323968
    122 H                     0.260040
    123 C                     0.130683
    124 C                    -0.309580
    125 H                     0.231388
    126 C                    -0.254197
    127 H                     0.232581
    128 C                    -0.251566
    129 H                     0.234728
    130 C                    -0.322901
    131 H                     0.260081
    132 C                    -0.554449
    133 H                     0.245145
    134 H                     0.258317
    135 C                    -0.555184
    136 H                     0.245457
    137 H                     0.257391
    138 C                    -0.202144
    139 C                    -0.654725
    140 H                     0.236846
    141 H                     0.228638
    142 H                     0.223651
    143 C                    -0.652173
    144 H                     0.232875
    145 H                     0.223365
    146 H                     0.229746
    147 C                    -0.616075
    148 H                     0.234452
    149 H                     0.225990
    150 H                     0.226445
    151 C                    -0.613302
    152 H                     0.233919
    153 H                     0.225569
    154 H                     0.226059
  ----------------------------------------
  Sum of atomic charges =     0.000000

 -----------------------------------------------------------------
                    Cartesian Multipole Moments
 -----------------------------------------------------------------
    Charge (ESU x 10^10)
                 0.0000
    Dipole Moment (Debye)
         X      -0.2633      Y      -0.5757      Z       0.1575
       Tot       0.6523
    Quadrupole Moments (Debye-Ang)
        XX    -460.0481     XY      11.5544     YY    -505.7530
        XZ     -20.5824     YZ     -11.7314     ZZ    -432.3801
    Octopole Moments (Debye-Ang^2)
       XXX    9000.9574    XXY      78.9593    XYY    3268.1593
       YYY     645.4616    XXZ    1692.3214    XYZ      74.5922
       YYZ    1603.4414    XZZ    2914.9484    YZZ     211.8890
       ZZZ    4027.9775
    Hexadecapole Moments (Debye-Ang^3)
      XXXX -203408.7421   XXXY   -7214.5584   XXYY  -38633.2882
      XYYY  -10096.1954   YYYY   -6829.2349   XXXZ  -42412.1700
      XXYZ   -1318.9012   XYYZ  -14805.4951   YYYZ   -1576.1337
      XXZZ  -45628.7627   XYZZ   -2656.3879   YYZZ  -15081.2732
      XZZZ  -39580.6610   YZZZ   -2437.6987   ZZZZ  -68398.0559
 -----------------------------------------------------------------
Archival summary:
1\1\ctcp033\OPT\ProcedureUnspecified\BasisUnspecified\282268\mewes1\FriDec2104:10:342018FriDec2104:10:342018\0\\#,OPT,ProcedureUnspecified,BasisUnspecified,\\0,1\N\C,1,1.38949\C,1,1.38952,2,121.726\C,2,1.3998,1,120.784,3,1.31003,0\C,4,1.39192,2,118.29,1,179.881,0\H,5,1.08306,4,118.893,2,-179.805,0\C,5,1.38351,4,122.682,2,0.0754971,0\H,7,1.08177,5,120.413,4,179.983,0\C,7,1.38596,5,118.536,4,-0.0707386,0\H,9,1.08252,7,120.531,5,-179.988,0\C,9,1.3818,7,120.246,5,-0.029983,0\H,11,1.08043,9,118.841,7,-179.926,0\C,3,1.4002,1,120.722,2,-1.54613,0\C,13,1.39151,3,118.262,1,-179.676,0\H,14,1.08329,13,118.818,3,179.698,0\C,14,1.38346,13,122.63,3,-0.202975,0\H,16,1.08173,14,120.407,13,179.93,0\C,16,1.38618,14,118.589,13,-0.121414,0\H,18,1.08243,16,120.503,14,-179.846,0\C,18,1.38196,16,120.257,14,0.169984,0\H,20,1.0807,18,118.98,16,-179.985,0\C,1,1.42239,2,118.952,3,-179.742,0\C,22,1.38312,1,119.928,2,-86.4383,0\H,23,1.08495,22,119.281,1,-0.399012,0\C,22,1.38494,1,120.07,2,93.041,0\H,25,1.08473,22,119.348,1,0.464044,0\C,25,1.38962,22,120.419,1,-179.759,0\C,23,1.39025,22,120.479,1,178.901,0\C,28,1.40098,23,119.905,22,1.02345,0\C,27,1.50511,25,118.744,22,-176.65,0\H,30,1.0928,27,109.573,25,-38.5313,0\H,30,1.09361,27,110.606,25,-154.835,0\C,28,1.50698,23,118.403,22,-176.454,0\H,33,1.09315,28,110.675,23,-163.576,0\H,33,1.09335,28,109.552,23,-47.3852,0\C,4,1.5189,2,122.811,1,0.255091,0\C,30,1.52743,27,111.735,25,82.8104,0\H,37,1.09041,30,111.102,27,-179.805,0\H,37,1.09045,30,111.143,27,60.1193,0\H,37,1.09088,30,110.991,27,-59.7315,0\C,33,1.52763,28,112.033,23,74.0216,0\H,41,1.09026,33,111.016,28,-179.464,0\H,41,1.09053,33,111.219,28,60.4684,0\H,41,1.09074,33,111.083,28,-59.5001,0\C,36,1.53907,4,109.023,2,118.933,0\H,45,1.09019,36,111.004,4,-60.1288,0\H,45,1.09082,36,111.224,4,179.597,0\H,45,1.09094,36,111.212,4,60.1203,0\C,36,1.53931,4,109.101,2,-121.791,0\H,49,1.09016,36,110.999,4,60.2906,0\H,49,1.09068,36,111.356,4,-179.354,0\H,49,1.09072,36,111.268,4,-59.9892,0\B,29,1.5753,28,120.305,23,-179.51,0\C,53,1.55106,29,119.724,28,94.8928,0\C,54,1.39492,53,119.661,29,-2.67835,0\H,55,1.08436,54,120.058,53,0.52696,0\C,55,1.38039,54,119.861,53,-179.434,0\C,57,1.41259,55,120.655,54,-0.285597,0\C,58,1.38482,57,119.788,55,-0.163636,0\H,59,1.08398,58,119.94,57,-179.696,0\C,59,1.4001,58,120.143,57,0.455466,0\C,57,1.46006,55,130.629,54,179.81,0\C,62,1.37173,57,135.066,55,0.153669,0\H,63,1.08341,62,122.004,57,-0.095885,0\C,62,1.40591,57,105.927,55,-179.987,0\C,65,1.39152,62,123.711,57,-179.915,0\C,65,1.40903,62,111.545,57,-0.0253452,0\C,67,1.37062,65,118.076,62,-179.927,0\H,68,1.08313,67,121.959,65,179.898,0\C,63,1.41508,62,118.464,57,179.842,0\H,70,1.08238,63,118.591,62,-179.955,0\C,70,1.37616,63,122.251,62,0.0193417,0\H,72,1.08329,70,119.853,63,-180,0\C,66,1.41525,65,115.966,62,179.963,0\H,74,1.08322,66,120.099,65,179.978,0\C,74,1.37607,66,119.919,65,-0.0386877,0\H,76,1.08213,74,118.92,66,-179.975,0\C,53,1.55366,29,120.796,28,-84.4872,0\C,78,1.39446,53,119.522,29,3.07199,0\H,79,1.0845,78,119.974,53,-1.21713,0\C,79,1.38109,78,119.969,53,178.285,0\C,81,1.41277,79,120.771,78,0.728736,0\C,82,1.38605,81,119.622,79,0.158893,0\H,83,1.08452,82,120.136,81,179.529,0\C,83,1.4005,82,120.14,81,-0.867214,0\C,81,1.45767,79,130.484,78,-178.767,0\C,86,1.37085,81,134.832,79,0.0893165,0\H,87,1.08349,86,122.005,81,-0.427227,0\C,86,1.40588,81,106.019,79,179.55,0\C,89,1.39001,86,123.764,81,-179.533,0\C,89,1.40927,86,111.427,81,0.0346791,0\C,91,1.36997,89,118.161,86,-179.639,0\H,92,1.08287,91,121.981,89,179.855,0\C,87,1.41467,86,118.301,81,179.453,0\H,94,1.08233,87,118.59,86,-179.955,0\C,94,1.37669,87,122.28,86,-0.0383697,0\H,96,1.08309,94,119.772,87,-179.969,0\C,90,1.41544,89,115.855,86,179.682,0\H,98,1.08305,90,120.086,89,179.988,0\C,98,1.37635,90,119.977,89,-0.130129,0\H,100,1.08203,98,118.928,90,-179.9,0\B,85,1.5573,83,120.794,82,-179.116,0\C,102,1.57379,85,121.859,83,-4.49971,0\C,103,1.40012,102,120.463,85,86.1943,0\C,104,1.391,103,119.673,102,173.754,0\H,105,1.08487,104,120.035,103,-178.548,0\C,105,1.38466,104,120.602,103,-0.0720094,0\C,107,1.3862,105,119.944,104,1.72782,0\H,108,1.08444,107,119.442,105,179.802,0\C,108,1.39017,107,120.339,105,-1.77388,0\N,107,1.42263,105,119.793,104,-175.632,0\C,111,1.39027,107,119.807,105,-86.4908,0\C,111,1.39033,107,118.252,105,88.9089,0\C,113,1.39857,111,120.815,107,-176.698,0\C,114,1.39248,113,118.196,111,-179.81,0\H,115,1.08309,114,118.916,113,179.729,0\C,115,1.38386,114,122.671,113,-0.10959,0\H,117,1.08169,115,120.418,114,-180,0\C,117,1.38607,115,118.598,114,0.00727277,0\H,119,1.08289,117,120.595,115,179.984,0\C,119,1.3811,117,120.203,115,0.0187861,0\H,121,1.08071,119,118.654,117,179.873,0\C,112,1.39899,111,120.718,107,176.428,0\C,123,1.39182,112,118.061,111,-179.932,0\H,124,1.08318,123,118.95,112,-179.967,0\C,124,1.38426,123,122.549,112,0.00983572,0\H,126,1.08167,124,120.326,123,179.945,0\C,126,1.3863,124,118.767,123,-0.177513,0\H,128,1.08244,126,120.587,124,-179.799,0\C,128,1.38142,126,120.153,124,0.118441,0\H,130,1.08095,128,119.175,126,-179.893,0\C,110,1.50658,108,119.505,107,178.466,0\H,132,1.09243,110,109.734,108,32.727,0\H,132,1.0946,110,110.274,108,148.837,0\C,104,1.5083,103,121.359,102,-2.67238,0\H,135,1.09312,104,109.421,103,-140.984,0\H,135,1.09326,104,110.508,103,-25.0149,0\C,114,1.51798,113,122.551,111,-0.248567,0\C,132,1.52732,110,112.183,108,-89.0618,0\H,139,1.09024,132,111.278,110,-59.8264,0\H,139,1.09045,132,110.871,110,-179.726,0\H,139,1.09059,132,111.055,110,60.2667,0\C,135,1.52766,104,112.611,103,97.4958,0\H,143,1.09027,135,111.401,104,-61.1249,0\H,143,1.0904,135,110.777,104,179.008,0\H,143,1.09069,135,111.184,104,59.1042,0\C,138,1.53776,114,108.608,113,-118.024,0\H,147,1.09043,138,110.674,114,60.5086,0\H,147,1.09054,138,111.276,114,-179.366,0\H,147,1.09083,138,111.298,114,-59.5164,0\C,138,1.53777,114,108.923,113,122.2,0\H,151,1.09026,138,111.362,114,178.508,0\H,151,1.09036,138,110.744,114,-61.2704,0\H,151,1.09056,138,111.43,114,58.8863,0\\\@

 Total job time:  44584.96s(wall), 166638.66s(cpu) 
 Fri Dec 21 04:10:34 2018

        *************************************************************
        *                                                           *
        *  Thank you very much for using Q-Chem.  Have a nice day.  *
        *                                                           *
        *************************************************************


0 sent ACK to 0 
now end server 0 ... 
