mFile = /cm/shared/apps/q-chem/intel/QCHEM_5.0.1_Trunk/bin/mpi/machines
Process 0 of 1 is on ctcp039 - thread support 0
initial socket setup ...start
initial socket setup ...done 
now start server 0 ... 
ctcp039.cm.cluster 10.141.0
Q-Chem Developer Version! Running on 10.141.0.*
                  Welcome to Q-Chem
     A Quantum Leap Into The Future Of Chemistry


 Q-Chem 5.0, Q-Chem, Inc., Pleasanton, CA (2017)

 Yihan Shao,  Zhengting Gan,  E. Epifanovsky,  A. T. B. Gilbert,  M. Wormit,  
 J. Kussmann,  A. W. Lange,  A. Behn,  Jia Deng,  Xintian Feng,  D. Ghosh,  
 M. Goldey,  P. R. Horn,  L. D. Jacobson,  I. Kaliman,  T. Kus,  A. Landau,  
 Jie Liu,  E. I. Proynov,  R. M. Richard,  R. P. Steele,  E. J. Sundstrom,  
 H. L. Woodcock III,  P. M. Zimmerman,  D. Zuev,  B. Albrecht,  E. Alguire,  
 S. A. Baeppler,  Z. Benda,  Y. A. Bernard,  E. J. Berquist,  K. B. Bravaya,  
 D. Casanova,  Chun-Min Chang,  Yunqing Chen,  A. Chien,  K. D. Closser,  
 M. P. Coons,  S. Dasgupta,  M. Diedenhofen,  Hainam Do,  R. G. Edgar,  
 Po-Tung Fang,  S. Fatehi,  Qingguo Feng,  Qinghui Ge,  A. Ghysels,  
 J. Gomes,  J. Gonthier,  A. Gunina,  M. W. D. Hanson-Heine,  
 P. H. P. Harbach,  A. W. Hauser,  J. E. Herr,  E. G. Hohenstein,  
 Z. C. Holden,  Kerwin Hui,  T.-C. Jagau,  Hyunjun Ji,  B. Kaduk,  
 K. Khistyaev,  Jaehoon Kim,  P. Klunzinger,  K. Koh,  D. Kosenkov,  
 T. Kowalczyk,  C. M. Krauter,  A. Kunitsa,  Ka Un Lao,  A. Laurent,  
 K. V. Lawler,  Joonho Lee,  D. Lefrancois,  S. Lehtola,  D. S. Levine,  
 Yi-Pei Li,  You-Sheng Lin,  Fenglai Liu,  E. Livshits,  A. Luenser,  
 P. Manohar,  E. Mansoor,  S. F. Manzer,  Shan-Ping Mao,  Yuezhi Mao,  
 N. Mardirossian,  A. V. Marenich,  L. A. Martinez-Martinez,  S. A. Maurer,  
 N. J. Mayhall,  S. C. McKenzie,  J.-M. Mewes,  A. F. Morrison,  K. Nanda,  
 T. S. Nguyen-Beck,  R. Olivares-Amaya,  J. A. Parkhill,  T. M. Perrine,  
 F. Plasser,  S. Prager,  A. Prociuk,  D. R. Rehn,  F. Rob,  M. Schneider,  
 N. Sergueev,  S. M. Sharada,  S. Sharma,  D. W. Small,  T. Stauch,  
 T. Stein,  Yu-Chuan Su,  A. J. W. Thom,  T. Tsuchimochi,  L. Vogt,  
 O. Vydrov,  M. A. Watson,  J. Wenzel,  M. de Wergifosse,  T. A. Wesolowski,  
 A. White,  J. Witte,  A. Yamada,  Jun Yang,  K. Yao,  S. Yeganeh,  
 S. R. Yost,  Zhi-Qiang You,  A. Zech,  Igor Ying Zhang,  Xing Zhang,  
 Yan Zhao,  Ying Zhu,  B. R. Brooks,  G. K. L. Chan,  C. J. Cramer,  
 M. S. Gordon,  W. J. Hehre,  A. Klamt,  M. W. Schmidt,  C. D. Sherrill,  
 D. G. Truhlar,  A. Aspuru-Guzik,  R. Baer,  A. T. Bell,  N. A. Besley,  
 Jeng-Da Chai,  A. Dreuw,  B. D. Dunietz,  T. R. Furlani,  Chao-Ping Hsu,  
 Yousung Jung,  Jing Kong,  D. S. Lambrecht,  WanZhen Liang,  C. Ochsenfeld,  
 V. A. Rassolov,  L. V. Slipchenko,  J. E. Subotnik,  T. Van Voorhis,  
 J. M. Herbert,  A. I. Krylov,  P. M. W. Gill,  M. Head-Gordon

 Contributors to earlier versions of Q-Chem not listed above: 
 R. D. Adamson,  B. Austin,  J. Baker,  G. J. O. Beran,  K. Brandhorst,  
 S. T. Brown,  E. F. C. Byrd,  A. K. Chakraborty,  C.-L. Cheng,  
 Siu Hung Chien,  D. M. Chipman,  D. L. Crittenden,  H. Dachsel,  
 R. A. DiStasio Jr.,  R. J. Doerksen,  A. D. Dutoi,  L. Fusti-Molnar,  
 W. A. Goddard III,  A. Golubeva-Zadorozhnaya,  S. R. Gwaltney,  G. Hawkins,  
 A. Heyden,  S. Hirata,  G. Kedziora,  F. J. Keil,  C. Kelley,  Jihan Kim,  
 R. A. King,  R. Z. Khaliullin,  P. P. Korambath,  W. Kurlancheek,  
 A. M. Lee,  M. S. Lee,  S. V. Levchenko,  Ching Yeh Lin,  D. Liotard,  
 R. C. Lochan,  I. Lotan,  P. E. Maslen,  N. Nair,  D. P. O'Neill,  
 D. Neuhauser,  E. Neuscamman,  C. M. Oana,  R. Olson,  B. Peters,  
 R. Peverati,  P. A. Pieniazek,  Y. M. Rhee,  J. Ritchie,  M. A. Rohrdanz,  
 E. Rosta,  N. J. Russ,  H. F. Schaefer III,  N. E. Schultz,  N. Shenvi,  
 A. C. Simmonett,  A. Sodt,  D. Stuck,  K. S. Thanthiriwatte,  V. Vanovschi,  
 Tao Wang,  A. Warshel,  C. F. Williams,  Q. Wu,  X. Xu,  W. Zhang

 Please cite Q-Chem as follows:
 Y. Shao et al., Mol. Phys. 113, 184-215 (2015)
 DOI: 10.1080/00268976.2014.952696

 Q-Chem 5.0.1 for Intel X86 EM64T Linux

 Parts of Q-Chem use Armadillo 5.200.1 (Boston Tea Smuggler).
 http://arma.sourceforge.net/

 Q-Chem begins on Wed Oct 24 12:38:13 2018  

Host: 32512

     Scratch files written to /scratch/mewes/138273/qchem4514//
 Parallel job on  1  processors
The previous job contains 0 fragments, simply inherited here
Symmetry turned off for PCM/SM12/SMD calculation

Checking the input file for inconsistencies... 	...done.

--------------------------------------------------------------
User input:
--------------------------------------------------------------
$rem
threads 4
jobtype	opt
method PBEh-3c
basis def2-mSVP
mem_static	1024
mem_total	4000
sym_ignore	true
scf_convergence	9
solvent_method	pcm
$end

$molecule
read gsopt.mol
$end

$solvent
dielectric	1.0001 
$end

$pcm
theory iefpcm
$end
--------------------------------------------------------------
 Adding empirical dispersion correction 
 ----------------------------------------------------------------
 Doing -D3(BJ) with
 s6 =   1.00000
 s8 =   0.00000
 a1 =   0.48600
 a2 =   4.50000
 -D3 energy including 3body term =     -0.1184721535 hartrees
 ----------------------------------------------------------------
 Adding gCP correction 
 ----------------------------------------------------------------
 gCP energy =      0.1606997271 hartrees
 ----------------------------------------------------------------
             Standard Nuclear Orientation (Angstroms)
    I     Atom           X                Y                Z
 ----------------------------------------------------------------
    1      N       0.0000000000     0.0000000000     0.0000000000
    2      C       0.0000000000     0.0000000000     1.3796530000
    3      C       1.3077930540     0.0000000000    -0.4410367706
    4      C      -1.0795684048    -0.0083891840     2.2522003141
    5      H      -2.0989821284    -0.0118281111     1.8896228873
    6      C      -0.8021764402    -0.0152947899     3.6065804087
    7      H      -1.6223589634    -0.0273892443     4.3121485609
    8      C       1.7938096454    -0.0654256452    -1.7430846914
    9      H       1.1273424101    -0.1068684009    -2.5944872700
   10      C       3.1654766419    -0.0880661225    -1.9154678685
   11      H       3.5702699015    -0.1395141213    -2.9180223996
   12      C       4.0366659130    -0.0515699644    -0.8237254759
   13      H       5.1048878888    -0.0708099804    -0.9931859675
   14      C       3.5443148352    -0.0012576171     0.4671287004
   15      H       4.2245811482     0.0108091929     1.3092671537
   16      C       2.1677628922     0.0214826300     0.6696108770
   17      C       0.5118014827    -0.0079959211     4.0828780310
   18      H       0.6916699368    -0.0181169008     5.1492931616
   19      C       1.5799372821     0.0135474855     3.2055848867
   20      H       2.5971282842     0.0223921816     3.5764222348
   21      C       1.3284688644     0.0183665147     1.8389504574
   22      C      -1.1281395553    -0.1408973346    -0.8303082973
   23      C      -1.3776686976     0.7933732558    -1.8239521066
   24      H      -0.7289734847     1.6557330776    -1.9234235509
   25      C      -1.9660247899    -1.2373085878    -0.6835269531
   26      H      -1.7524466868    -1.9753803634     0.0804571493
   27      C      -3.0509101242    -1.4099392386    -1.5322920716
   28      C      -2.4414096903     0.6181205837    -2.7005215792
   29      C      -3.2868478097    -0.4867053043    -2.5579800825
   30      C      -3.9414998332    -2.6124638523    -1.3894081727
   31      H      -3.6990114079    -3.1931146647    -0.5001967701
   32      H      -4.9934040749    -2.3277326641    -1.3189069230
   33      H      -3.8493504567    -3.2790391719    -2.2502343933
   34      C      -2.6700981175     1.5950200654    -3.8207732944
   35      H      -1.9623279851     2.4223232904    -3.7886298601
   36      H      -3.6756179875     2.0188183843    -3.7886633515
   37      H      -2.5616287759     1.1093500131    -4.7938301716
   38      B      -4.4312609153    -0.7544556253    -3.6015067400
   39      C      -5.8461565498    -0.1328351226    -3.4412398128
   40      C      -6.1227904177     0.7428937821    -2.3876448225
   41      H      -5.3419781836     0.9796711678    -1.6731064066
   42      C      -7.3843503709     1.3015928707    -2.2628798104
   43      C      -8.3935100062     0.9725221172    -3.1936849218
   44      C      -8.1320408592     0.1032989855    -4.2362758808
   45      H      -8.9095605132    -0.1485866780    -4.9498603121
   46      C      -6.8609418459    -0.4542291445    -4.3751679899
   47      C      -9.6115535949     1.6850560994    -2.8259113977
   48      C     -10.8801373349     1.7559594156    -3.3358121471
   49      H     -11.1762471869     1.1987091274    -4.2161951984
   50      C      -9.2957919155     2.4338439665    -1.6785337737
   51      C     -10.1949790868     3.2589262281    -1.0161848134
   52      C      -7.9553746231     2.2395242251    -1.2941820377
   53      C      -7.4909905124     2.9073994678    -0.1930150233
   54      H      -6.4700541254     2.8007615500     0.1517861771
   55      C     -11.8195362623     2.5855162595    -2.6810157895
   56      H     -12.8239514782     2.6439600374    -3.0793042395
   57      C     -11.5012882198     3.3172676692    -1.5604706287
   58      H     -12.2549472245     3.9396670232    -1.0943784580
   59      C      -8.3812251561     3.7586986739     0.5039546854
   60      H      -8.0137598543     4.2872342086     1.3734941735
   61      C      -9.6895824166     3.9371085890     0.1187574203
   62      H     -10.3320464246     4.5990876633     0.6858426524
   63      B      -6.5679613718    -1.4289404832    -5.5495123280
   64      C      -5.1429940525    -2.0117846210    -5.7330864690
   65      C      -4.8678735283    -2.8665578489    -6.8034352239
   66      H      -5.6553280817    -3.1299169901    -7.5016131898
   67      C      -3.5940540355    -3.3753943696    -6.9687677056
   68      C      -2.5686135902    -3.0342904265    -6.0591878199
   69      C      -2.8349146212    -2.1970638874    -4.9918619106
   70      H      -2.0491189592    -1.9449159561    -4.2891244035
   71      C      -4.1204276274    -1.6786107600    -4.8144233293
   72      C      -1.3431849799    -3.7162572911    -6.4802652390
   73      C      -0.0552925575    -3.7851615440    -6.0176752411
   74      H       0.2657864767    -3.2488272860    -5.1338061257
   75      C      -1.6798654029    -4.4483728306    -7.6331315512
   76      C      -0.7894961061    -5.2476644402    -8.3428764025
   77      C      -3.0334476378    -4.2792413735    -7.9752773664
   78      C      -3.5180239602    -4.9373142705    -9.0760017224
   79      H      -4.5504740387    -4.8473958961    -9.3905376199
   80      C       0.5339019136    -5.3000118691    -7.8451555411
   81      H       1.2788058366    -5.9034694264    -8.3495305840
   82      C       0.8750948349    -4.5873492466    -6.7199522773
   83      H       1.8915376276    -4.6413019850    -6.3530104139
   84      C      -2.6358539889    -5.7577190702    -9.8181158320
   85      H      -3.0203226274    -6.2771801458   -10.6862561211
   86      C      -1.3140411517    -5.9167555530    -9.4749125581
   87      H      -0.6753295031    -6.5562953939   -10.0720044948
   88      C      -7.7048427868    -1.8374071033    -6.5549474089
   89      C      -7.8538677304    -1.1579479032    -7.7698067296
   90      C      -8.8393156648    -1.5498968470    -8.6666920469
   91      H      -8.9384399647    -1.0464001649    -9.6216954546
   92      C      -9.6918839799    -2.5988929602    -8.3573573526
   93      C      -9.5532695805    -3.2707056648    -7.1523540845
   94      H     -10.2326755132    -4.0814940005    -6.9165661790
   95      C      -8.5572178147    -2.9070619680    -6.2550209049
   96      N     -10.6821075136    -2.9984572545    -9.2767981371
   97      C     -10.7617967278    -4.2459929496    -9.8655404605
   98      C     -11.6551347321    -2.1865150336    -9.8279065635
   99      C     -11.9530991931    -0.8543945033    -9.5679457264
  100      H     -11.3973046860    -0.2830385361    -8.8369282336
  101      C     -12.9871246152    -0.2766346099   -10.2833101281
  102      H     -13.2357222839     0.7609286711   -10.1024503494
  103      C      -9.9561705473    -5.3652949642    -9.6884577049
  104      H      -9.1329286965    -5.3657308047    -8.9868969670
  105      C     -10.2331729205    -6.4847236317   -10.4532810302
  106      H      -9.6185783910    -7.3675060232   -10.3343022280
  107      C     -11.2800042379    -6.5000235886   -11.3786994833
  108      H     -11.4662160696    -7.3925199613   -11.9609974703
  109      C     -12.0699954678    -5.3808370707   -11.5578914030
  110      H     -12.8728268416    -5.3860967658   -12.2849017629
  111      C     -11.8106763246    -4.2433468781   -10.7999048630
  112      C     -13.7151193633    -0.9981938211   -11.2331436722
  113      H     -14.5141442691    -0.5117225468   -11.7764174308
  114      C     -13.4191919200    -2.3247349269   -11.4806804793
  115      H     -13.9817417237    -2.8863499315   -12.2163091906
  116      C     -12.3839410602    -2.9265183092   -10.7739038925
  117      C      -8.3928602732    -3.6649381488    -4.9683758522
  118      H      -9.1525896489    -4.4376572920    -4.8559406620
  119      H      -8.4635541253    -3.0051760748    -4.1015798400
  120      H      -7.4178948229    -4.1553006825    -4.9197544274
  121      C      -6.9231657484    -0.0323001224    -8.1246479367
  122      H      -7.2452361955     0.4895440407    -9.0251409354
  123      H      -6.8591842906     0.7059283864    -7.3228484557
  124      H      -5.9099961063    -0.3990967157    -8.3031151885
 ----------------------------------------------------------------
 Nuclear Repulsion Energy = 10607.5887056444 hartrees
 There are      252 alpha and      252 beta electrons
 Requested basis set is def2-mSVP
 There are 628 shells and 1236 basis functions

 Total QAlloc Memory Limit   4000 MB
 Mega-Array Size      1001 MB
 MEM_STATIC part      1024 MB
 Discretize the solute cavity surface with Lebedev spheres
	Using 302 Lebedev grid points for each H atom
	Using 302 Lebedev grid points for other atoms
	Atomic van der Waals radii will be scaled by 1.20
 Remove points where switching function is < 1.0e-08
 Keep 12972 surface tesserae and discard 24476 interior tesserae
 Molecular Surface Area = 989.791 Angst**2
 A cutoff of  1.0D-12 yielded  56892 shell pairs
 There are    228230 function pairs (    251779 Cartesian)
 
 -------------------------------------------------------
 OpenMP Integral Computing Module                       
 Release: version 1.0, May 2013, Q-Chem Inc. Pittsburgh 
 -------------------------------------------------------
 Integral Job Info:
 Integral job number is                      11
 Integral operator is                         1
 short-range coefficients                     0
 long-range coefficients              100000000
 Omega coefficients                           0
 if combine SR and LR in K                    0
 Integral screening is                        0
 Integral computing path is                   2
 max size of driver memory is            800000
 size of driver memory is                593474
 size of scratch memory is              1809772
 max col of scratch BK array               1296
 max len of scratch array in speh3          155
 max len of scratch index in speh4           18
 max int batch size is                      520
 min int batch size is                       52
 fixed nKL is                                52
 max L of basis functions is                  2
 order of int derivative is                   0
 number of shells is                        628
 number of basis is                        1312
 number of cartesian basis is              1312
 number of contracted shell pairs         56892
 number of primitive shell pairs         119619
 maxK2 (contraction) of shell pair           25
 max number of K2 of shell pair               1
 max number of CS2 of shell pair          13429
 max number of PS2 of shell pair          21000
 mem total for path MDJ                  591752
 -------------------------------------------------------
 Smallest overlap matrix eigenvalue = 1.96E-04

 Scale SEOQF with 1.000000e-02/1.000000e-02/1.000000e-02

 Standard Electronic Orientation quadrupole field applied
 Nucleus-field energy     =    -0.0000000875 hartrees
 Guess from superposition of atomic densities
 Warning:  Energy on first SCF cycle will be non-variational
 A restricted hybrid HF-DFT SCF calculation will be
 performed using Pulay DIIS extrapolation
 Polarizable Continuum solvation model will be applied
 Exchange:     0.4200 Hartree-Fock + 0.5800 PBEh-3c
 Correlation:  1.0000 PBEh-3c
 Using SG-1 standard quadrature grid
 Dispersion:   Grimme D3
 SCF converges when DIIS error is below 1.0E-09
 using 4 threads for integral computing
 -------------------------------------------------------
 OpenMP Integral computing Module                
 Release: version 1.0, May 2013, Q-Chem Inc. Pittsburgh 
 -------------------------------------------------------
 ---------------------------------------
  Cycle       Energy         DIIS Error
 ---------------------------------------
    1   -2952.3924003483      2.43E-02
 Using non-symmetric K matrix
    2   -2924.9213705726      1.66E-03
    3   -2925.0809206669      1.50E-03
    4   -2925.4599868150      5.82E-04
    5   -2925.5258999548      1.65E-04
    6   -2925.5310684651      6.09E-05
    7   -2925.5317582237      1.67E-05
    8   -2925.5318103168      5.90E-06
    9   -2925.5318175376      1.24E-06
   10   -2925.5318178959      5.12E-07
   11   -2925.5318179612      1.90E-07
   12   -2925.5318179738      7.40E-08
   13   -2925.5318179764      2.57E-08
   14   -2925.5318179776      8.35E-09
   15   -2925.5318179749      4.05E-09
   16   -2925.5318179695      1.48E-09
   17   -2925.5318179742      6.47E-10 Convergence criterion met
 ---------------------------------------

************** Final PCM Free Energy Summary **************
 G_electrostatic  =      -0.00000223 hartree =      -0.00139796 kcal/mol
 G_cavitation     =       0.00000000 hartree =       0.00000000 kcal/mol
 G_dispersion     =       0.00000000 hartree =       0.00000000 kcal/mol
 G_repulsion      =       0.00000000 hartree =       0.00000000 kcal/mol
 --------------------------------------------------
 Non-electrostatic Free Energy =       0.00000000 hartree =       0.00000000 kcal/mol
 Total                         =      -0.00000223 hartree =      -0.00139796 kcal/mol
 --------------------------------------------------
 SCF Energy (H0 + V/2)                       =   -2925.53181797 
 Solute Internal Energy (H0)                 =   -2925.53181575 
 Total Free Energy (H0 + V/2 + non-elec)     =   -2925.53181797 hartree
                                             = -1835798.92349066 kcal/mol
***********************************************************

 SCF time:  CPU 7510.00 s  wall 3071.55 s
 SCF   energy in the final basis set = -2925.53181797
 Total energy in the final basis set = -2925.53181797
 
 --------------------------------------------------------------
 
                    Orbital Energies (a.u.)
 --------------------------------------------------------------
 
 Alpha MOs
 -- Occupied --
-14.689 -14.688 -10.493 -10.493 -10.484 -10.484 -10.484 -10.483
-10.470 -10.470 -10.469 -10.469 -10.469 -10.469 -10.469 -10.468
-10.468 -10.468 -10.467 -10.467 -10.466 -10.466 -10.466 -10.465
-10.465 -10.464 -10.464 -10.464 -10.463 -10.463 -10.463 -10.463
-10.463 -10.463 -10.461 -10.460 -10.460 -10.459 -10.451 -10.450
-10.448 -10.448 -10.448 -10.448 -10.447 -10.446 -10.446 -10.446
-10.446 -10.445 -10.445 -10.445 -10.445 -10.445 -10.445 -10.445
-10.445 -10.445 -10.444 -10.444 -10.441 -10.440 -10.440 -10.439
-10.438 -10.438 -10.438 -10.437 -10.436 -10.436 -10.436 -10.435
-10.433 -10.432  -6.957  -6.956  -1.109  -1.108  -1.021  -1.020
 -0.978  -0.977  -0.967  -0.965  -0.949  -0.949  -0.946  -0.946
 -0.938  -0.937  -0.915  -0.906  -0.888  -0.887  -0.883  -0.883
 -0.863  -0.860  -0.854  -0.852  -0.852  -0.851  -0.844  -0.844
 -0.828  -0.820  -0.817  -0.810  -0.809  -0.809  -0.808  -0.807
 -0.778  -0.777  -0.774  -0.774  -0.741  -0.738  -0.732  -0.731
 -0.728  -0.726  -0.699  -0.696  -0.693  -0.686  -0.686  -0.684
 -0.679  -0.671  -0.657  -0.657  -0.656  -0.654  -0.649  -0.648
 -0.645  -0.643  -0.602  -0.601  -0.597  -0.595  -0.595  -0.594
 -0.589  -0.587  -0.587  -0.581  -0.580  -0.573  -0.573  -0.558
 -0.558  -0.554  -0.549  -0.547  -0.533  -0.532  -0.526  -0.522
 -0.519  -0.518  -0.518  -0.514  -0.508  -0.505  -0.503  -0.500
 -0.500  -0.499  -0.499  -0.496  -0.494  -0.491  -0.489  -0.489
 -0.488  -0.488  -0.486  -0.485  -0.485  -0.484  -0.480  -0.480
 -0.478  -0.476  -0.474  -0.474  -0.474  -0.473  -0.469  -0.469
 -0.468  -0.461  -0.451  -0.447  -0.446  -0.446  -0.443  -0.435
 -0.431  -0.430  -0.428  -0.424  -0.423  -0.423  -0.421  -0.416
 -0.411  -0.411  -0.409  -0.409  -0.403  -0.400  -0.400  -0.399
 -0.399  -0.398  -0.398  -0.395  -0.394  -0.393  -0.390  -0.389
 -0.386  -0.377  -0.374  -0.373  -0.367  -0.357  -0.354  -0.349
 -0.327  -0.327  -0.325  -0.319  -0.300  -0.298  -0.297  -0.297
 -0.290  -0.287  -0.286  -0.286  -0.285  -0.267  -0.262  -0.261
 -0.251  -0.251  -0.236  -0.235
 -- Virtual --
 -0.098  -0.063  -0.042  -0.035  -0.010  -0.010  -0.009   0.002
  0.004   0.004   0.011   0.017   0.019   0.028   0.028   0.040
  0.056   0.057   0.064   0.069   0.069   0.078   0.080   0.087
  0.119   0.122   0.139   0.139   0.141   0.149   0.151   0.152
  0.153   0.153   0.155   0.156   0.159   0.161   0.161   0.163
  0.167   0.173   0.177   0.178   0.182   0.183   0.184   0.186
  0.190   0.191   0.193   0.196   0.198   0.199   0.200   0.203
  0.206   0.207   0.207   0.209   0.210   0.212   0.213   0.217
  0.218   0.220   0.221   0.225   0.225   0.230   0.230   0.233
  0.234   0.235   0.237   0.240   0.241   0.241   0.242   0.245
  0.246   0.247   0.249   0.249   0.250   0.252   0.254   0.262
  0.263   0.264   0.265   0.267   0.270   0.272   0.277   0.278
  0.282   0.283   0.284   0.288   0.289   0.290   0.290   0.296
  0.297   0.301   0.301   0.303   0.304   0.308   0.310   0.311
  0.314   0.318   0.324   0.327   0.327   0.328   0.329   0.332
  0.342   0.343   0.356   0.357   0.360   0.360   0.361   0.366
  0.370   0.372   0.373   0.379   0.382   0.390   0.397   0.401
  0.405   0.409   0.411   0.412   0.417   0.422   0.424   0.427
  0.427   0.428   0.438   0.445   0.448   0.450   0.455   0.456
  0.460   0.461   0.462   0.479   0.482   0.484   0.486   0.489
  0.490   0.491   0.495   0.496   0.498   0.502   0.503   0.511
  0.517   0.518   0.521   0.521   0.523   0.524   0.525   0.527
  0.528   0.530   0.531   0.532   0.533   0.534   0.536   0.537
  0.538   0.538   0.542   0.544   0.550   0.552   0.554   0.555
  0.556   0.558   0.558   0.561   0.564   0.566   0.569   0.569
  0.571   0.575   0.576   0.577   0.578   0.578   0.582   0.583
  0.584   0.584   0.586   0.587   0.589   0.590   0.592   0.596
  0.598   0.599   0.600   0.600   0.601   0.601   0.601   0.605
  0.608   0.609   0.612   0.614   0.614   0.615   0.616   0.617
  0.618   0.622   0.623   0.624   0.625   0.627   0.629   0.630
  0.634   0.636   0.637   0.638   0.639   0.641   0.642   0.644
  0.644   0.645   0.647   0.649   0.651   0.653   0.654   0.655
  0.658   0.659   0.659   0.664   0.666   0.673   0.674   0.677
  0.678   0.680   0.681   0.682   0.685   0.685   0.691   0.692
  0.696   0.697   0.698   0.702   0.704   0.705   0.706   0.709
  0.716   0.720   0.723   0.724   0.725   0.726   0.727   0.731
  0.732   0.733   0.736   0.741   0.742   0.750   0.751   0.752
  0.753   0.755   0.757   0.759   0.769   0.773   0.774   0.775
  0.777   0.780   0.783   0.785   0.788   0.789   0.791   0.793
  0.795   0.797   0.803   0.806   0.816   0.818   0.821   0.825
  0.829   0.833   0.838   0.843   0.845   0.849   0.853   0.856
  0.863   0.868   0.871   0.875   0.881   0.897   0.899   0.903
  0.903   0.909   0.910   0.912   0.919   0.923   0.925   0.934
  0.935   0.938   0.940   0.941   0.942   0.944   0.945   0.946
  0.950   0.952   0.958   0.960   0.963   0.966   0.968   0.970
  0.972   0.977   0.982   0.982   0.983   0.984   0.986   0.989
  0.989   0.992   0.996   0.996   0.998   1.002   1.004   1.005
  1.006   1.009   1.011   1.012   1.016   1.018   1.022   1.025
  1.025   1.030   1.032   1.034   1.035   1.038   1.039   1.042
  1.047   1.050   1.051   1.053   1.054   1.056   1.058   1.060
  1.064   1.065   1.066   1.067   1.075   1.076   1.078   1.080
  1.082   1.083   1.084   1.086   1.087   1.088   1.095   1.097
  1.104   1.113   1.115   1.115   1.119   1.122   1.124   1.126
  1.126   1.130   1.132   1.135   1.137   1.139   1.140   1.142
  1.144   1.153   1.156   1.157   1.159   1.159   1.163   1.165
  1.168   1.173   1.182   1.184   1.193   1.199   1.200   1.203
  1.209   1.218   1.222   1.229   1.230   1.232   1.235   1.246
  1.248   1.249   1.253   1.260   1.266   1.267   1.273   1.274
  1.279   1.281   1.288   1.293   1.294   1.295   1.299   1.301
  1.306   1.309   1.311   1.312   1.315   1.317   1.318   1.322
  1.322   1.325   1.326   1.335   1.339   1.339   1.343   1.349
  1.354   1.356   1.362   1.366   1.367   1.371   1.371   1.372
  1.377   1.379   1.387   1.387   1.393   1.396   1.398   1.403
  1.405   1.406   1.407   1.410   1.413   1.418   1.432   1.437
  1.437   1.438   1.440   1.449   1.457   1.459   1.468   1.477
  1.478   1.498   1.503   1.504   1.506   1.507   1.508   1.509
  1.510   1.513   1.514   1.514   1.516   1.518   1.520   1.526
  1.528   1.529   1.532   1.533   1.535   1.537   1.539   1.539
  1.541   1.546   1.548   1.551   1.552   1.553   1.554   1.556
  1.557   1.561   1.562   1.563   1.565   1.567   1.570   1.572
  1.577   1.581   1.582   1.587   1.588   1.597   1.599   1.599
  1.603   1.606   1.611   1.629   1.637   1.645   1.650   1.650
  1.658   1.670   1.683   1.692   1.697   1.702   1.738   1.742
  1.743   1.745   1.759   1.768   1.772   1.780   1.791   1.803
  1.804   1.804   1.807   1.808   1.809   1.811   1.815   1.816
  1.827   1.828   1.830   1.831   1.831   1.841   1.846   1.850
  1.852   1.854   1.872   1.878   1.890   1.899   1.900   1.903
  1.904   1.904   1.909   1.914   1.915   1.915   1.919   1.924
  1.924   1.926   1.932   1.935   1.937   1.939   1.941   1.944
  1.946   1.951   1.951   1.953   1.953   1.975   1.980   1.981
  1.982   1.983   1.984   1.990   1.995   2.004   2.005   2.019
  2.028   2.035   2.038   2.040   2.041   2.042   2.044   2.045
  2.054   2.058   2.061   2.062   2.064   2.066   2.068   2.082
  2.082   2.085   2.091   2.094   2.107   2.108   2.116   2.123
  2.126   2.129   2.136   2.136   2.138   2.147   2.148   2.150
  2.152   2.153   2.154   2.162   2.162   2.167   2.171   2.177
  2.183   2.186   2.193   2.199   2.200   2.202   2.205   2.212
  2.215   2.219   2.225   2.228   2.229   2.232   2.234   2.238
  2.241   2.248   2.251   2.255   2.257   2.258   2.260   2.265
  2.270   2.271   2.274   2.275   2.277   2.281   2.282   2.286
  2.287   2.290   2.291   2.293   2.305   2.308   2.316   2.318
  2.318   2.321   2.322   2.335   2.337   2.337   2.340   2.342
  2.345   2.347   2.347   2.348   2.350   2.353   2.354   2.355
  2.358   2.364   2.368   2.371   2.381   2.382   2.383   2.385
  2.388   2.390   2.392   2.397   2.404   2.406   2.410   2.411
  2.414   2.417   2.420   2.428   2.429   2.433   2.443   2.446
  2.452   2.454   2.460   2.469   2.473   2.475   2.475   2.477
  2.487   2.488   2.489   2.493   2.501   2.503   2.511   2.534
  2.540   2.543   2.549   2.569   2.576   2.583   2.601   2.602
  2.609   2.625   2.632   2.633   2.638   2.640   2.640   2.657
  2.659   2.659   2.680   2.680   2.681   2.684   2.700   2.703
  2.706   2.713   2.714   2.718   2.719   2.720   2.722   2.723
  2.726   2.727   2.732   2.738   2.739   2.744   2.754   2.758
  2.766   2.768   2.772   2.773   2.774   2.779   2.782   2.784
  2.788   2.789   2.794   2.794   2.798   2.798   2.801   2.806
  2.811   2.818   2.833   2.834   2.842   2.846   2.848   2.852
  2.864   2.866   2.869   2.873   2.874   2.890   2.894   2.895
  2.897   2.900   2.915   2.916   2.923   2.926   2.931   2.935
  2.945   2.946   2.951   2.970   2.972   2.975   2.981   3.003
  3.003   3.004   3.005   3.015   3.015   3.038   3.048   3.067
  3.080   3.084   3.110   3.133   3.134   3.229   3.250   3.253
  3.272   3.273   3.330   3.335   3.400   3.436   3.440   3.445
  3.446   3.454   3.468   3.489   3.490   3.491   3.566   3.571
  3.615   3.616   3.665   3.678   9.578   9.720  13.137  13.171
 13.222  13.224  13.425  13.432  13.433  13.491  13.507  13.514
 13.522  13.541  13.672  13.676  13.699  13.702  13.713  13.719
 13.725  13.785  13.790  13.800  13.810  13.812  13.849  13.855
 13.882  13.885  13.904  13.919  13.937  13.953  13.954  13.994
 13.999  14.006  14.030  14.039  14.109  14.111  14.121  14.157
 14.158  14.186  14.188  14.191  14.211  14.217  14.218  14.224
 14.231  14.257  14.268  14.268  14.304  14.307  14.325  14.326
 14.332  14.335  14.509  14.513  14.565  14.571  14.575  14.576
 14.581  14.583  14.599  14.602  14.612  14.613  19.577  19.579
 --------------------------------------------------------------
 
          Ground-State Mulliken Net Atomic Charges

     Atom                 Charge (a.u.)
  ----------------------------------------
      1 N                    -0.738188
      2 C                     0.343577
      3 C                     0.334736
      4 C                    -0.282316
      5 H                     0.237259
      6 C                    -0.236411
      7 H                     0.216899
      8 C                    -0.280934
      9 H                     0.234649
     10 C                    -0.235770
     11 H                     0.215867
     12 C                    -0.227243
     13 H                     0.214753
     14 C                    -0.346715
     15 H                     0.205490
     16 C                     0.103766
     17 C                    -0.228767
     18 H                     0.214871
     19 C                    -0.344351
     20 H                     0.205832
     21 C                     0.090964
     22 C                     0.320964
     23 C                    -0.358284
     24 H                     0.237239
     25 C                    -0.350533
     26 H                     0.238821
     27 C                     0.050787
     28 C                     0.052561
     29 C                    -0.211829
     30 C                    -0.763198
     31 H                     0.242043
     32 H                     0.246690
     33 H                     0.250348
     34 C                    -0.760809
     35 H                     0.241200
     36 H                     0.248544
     37 H                     0.245967
     38 B                     0.704939
     39 C                    -0.153109
     40 C                    -0.394069
     41 H                     0.229372
     42 C                     0.106524
     43 C                     0.093253
     44 C                    -0.385166
     45 H                     0.231396
     46 C                    -0.154717
     47 C                     0.195796
     48 C                    -0.377078
     49 H                     0.220812
     50 C                    -0.061540
     51 C                     0.254554
     52 C                     0.196093
     53 C                    -0.383187
     54 H                     0.220541
     55 C                    -0.206006
     56 H                     0.229390
     57 C                    -0.333289
     58 H                     0.222340
     59 C                    -0.203971
     60 H                     0.229061
     61 C                    -0.335897
     62 H                     0.222522
     63 B                     0.705245
     64 C                    -0.154328
     65 C                    -0.387863
     66 H                     0.232335
     67 C                     0.092712
     68 C                     0.101383
     69 C                    -0.386511
     70 H                     0.233286
     71 C                    -0.153877
     72 C                     0.198854
     73 C                    -0.382512
     74 H                     0.221543
     75 C                    -0.061772
     76 C                     0.250715
     77 C                     0.198783
     78 C                    -0.381461
     79 H                     0.221088
     80 C                    -0.333781
     81 H                     0.222384
     82 C                    -0.204647
     83 H                     0.229556
     84 C                    -0.204931
     85 H                     0.229488
     86 C                    -0.332474
     87 H                     0.222332
     88 C                    -0.212845
     89 C                     0.051786
     90 C                    -0.351217
     91 H                     0.237880
     92 C                     0.326060
     93 C                    -0.359795
     94 H                     0.237163
     95 C                     0.049682
     96 N                    -0.742325
     97 C                     0.338308
     98 C                     0.345152
     99 C                    -0.281495
    100 H                     0.234787
    101 C                    -0.235255
    102 H                     0.216468
    103 C                    -0.281095
    104 H                     0.235062
    105 C                    -0.234735
    106 H                     0.216402
    107 C                    -0.228519
    108 H                     0.214941
    109 C                    -0.341713
    110 H                     0.205334
    111 C                     0.096522
    112 C                    -0.229020
    113 H                     0.215039
    114 C                    -0.340575
    115 H                     0.205552
    116 C                     0.087462
    117 C                    -0.762345
    118 H                     0.241761
    119 H                     0.250087
    120 H                     0.245588
    121 C                    -0.758680
    122 H                     0.240838
    123 H                     0.246581
    124 H                     0.248572
  ----------------------------------------
  Sum of atomic charges =    -0.000000

 -----------------------------------------------------------------
                    Cartesian Multipole Moments
 -----------------------------------------------------------------
    Charge (ESU x 10^10)
                -0.0000
    Dipole Moment (Debye)
         X      -0.1271      Y       0.3151      Z      -0.0664
       Tot       0.3462
    Quadrupole Moments (Debye-Ang)
        XX    -414.4367     XY     -29.8509     YY    -416.0413
        XZ     -22.7586     YZ      15.6967     ZZ    -419.8944
    Octopole Moments (Debye-Ang^2)
       XXX    6814.8101    XXY     921.0181    XYY    2229.2143
       YYY    1600.6445    XXZ    2132.7556    XYZ      64.3103
       YYZ    1831.3747    XZZ    2445.6230    YZZ     381.1966
       ZZZ    5990.3436
    Hexadecapole Moments (Debye-Ang^3)
      XXXX -132045.3912   XXXY  -13893.6412   XXYY  -25376.0413
      XYYY   -8571.3049   YYYY  -21731.0640   XXXZ  -46628.5754
      XXYZ   -6616.0284   XYYZ  -15230.2302   YYYZ  -16005.7390
      XXZZ  -39304.2426   XYZZ   -3156.5898   YYZZ  -18278.7053
      XZZZ  -46654.1593   YZZZ  -15193.7544   ZZZZ -100884.2421
 -----------------------------------------------------------------
 Calculating analytic gradient of the SCF energy
 -3.245021611285766E-004 -3.244881173318157E-004
 -3.245027883795057E-004 -3.244875628504072E-004
 -3.244908043098346E-004 -3.244994598327572E-004
 -3.244671373465445E-004 -3.245231155871819E-004
 -3.244995867048689E-004 -3.244907508760254E-004
 -3.245025633819828E-004 -3.244877177384788E-004
 -3.244876599749838E-004 -3.245026099872322E-004
 -3.244942213045314E-004 -3.244961148624806E-004
 -3.244636225638724E-004 -3.245266306548596E-004
 -3.244978070188614E-004 -3.244924643808656E-004
 -3.245024872771253E-004 -3.244878607014921E-004
 -3.244665459133374E-004 -3.245237137023124E-004
 -3.244707724986336E-004 -3.245194730594267E-004
 -3.244980344319842E-004 -3.244922752157563E-004
 -3.244986056882448E-004 -3.244916811984656E-004
 -3.244743817549259E-004 -3.245158675596770E-004
 -3.244961973269360E-004 -3.244941354302483E-004
 -3.245204540282382E-004 -3.244698263454262E-004
 -3.244928205510271E-004 -3.244974335130041E-004
 -3.244919850191256E-004 -3.244982890212026E-004
 -3.244797556260761E-004 -3.245105093616386E-004
 -3.244754294128928E-004 -3.245148361759305E-004
 -3.244943987080768E-004 -3.244959409053171E-004
 -3.245031855202076E-004 -3.244870664805168E-004
 -3.244865785992644E-004 -3.245037044775506E-004
 -3.245036813271537E-004 -3.244866279223305E-004
 -3.244714585570095E-004 -3.245187843172391E-004
 -3.244989759820707E-004 -3.244912914145511E-004
 -3.244908184520542E-004 -3.244995092329446E-004
 -3.244643522197889E-004 -3.245259006889355E-004
 -3.244818893072141E-004 -3.245083570965851E-004
 -3.244980608975448E-004 -3.244922109284840E-004
 -3.244965416904313E-004 -3.244937202587075E-004
 -3.244865373535758E-004 -3.245037227655071E-004
 -3.244916342999060E-004 -3.244986977821378E-004
 -3.245230404367168E-004 -3.244672348025601E-004
 -3.244984784299394E-004 -3.244917969447813E-004
 -3.244906460764542E-004 -3.244996537637729E-004
 -3.244903337305058E-004 -3.244999383895334E-004
 -3.244960513601058E-004 -3.244942148541072E-004
 -3.244903232414309E-004 -3.245000071509601E-004
 -3.244721682079532E-004 -3.245180757373691E-004
 -3.244972797292170E-004 -3.244929933458058E-004
 -3.244914853306691E-004 -3.244988196331201E-004
 -3.245117959677268E-004 -3.244784424996949E-004
 -3.244981477079908E-004 -3.244921169917899E-004
 -3.244919623429936E-004 -3.244983685355596E-004
 -3.245234405212315E-004 -3.244668216624866E-004
 -3.245141229453541E-004 -3.244761479109237E-004
 -3.244944787391645E-004 -3.244958518326774E-004
 -3.244740417010804E-004 -3.245162067380970E-004
 -3.244949944794551E-004 -3.244952944565617E-004
 -3.244918400607854E-004 -3.244984629551661E-004
 -3.245020226091155E-004 -3.244882308165530E-004
 -3.244813464819450E-004 -3.245088989216511E-004
 -3.244937032695492E-004 -3.244966246077085E-004
 -3.245158948750717E-004 -3.244743715275945E-004
 -3.245081163382880E-004 -3.244821141210745E-004
 -3.244924530182874E-004 -3.244978443880466E-004
 -3.244890644727354E-004 -3.245012176655242E-004
 -3.245214109320832E-004 -3.244688490115094E-004
 -3.244951255542371E-004 -3.244952107156385E-004
 -3.244793713121126E-004 -3.245108888308387E-004
 -3.244612682663907E-004 -3.245289942535686E-004
 -3.244953720515554E-004 -3.244949234864450E-004
 -3.244700395076031E-004 -3.245202180882069E-004
 -3.245110258751875E-004 -3.244792539329588E-004
 -3.245105728168940E-004 -3.244796742273763E-004
 -3.245162712621781E-004 -3.244739927109665E-004
 -3.244845933341331E-004 -3.245056853275236E-004
 -3.245039803886048E-004 -3.244862561023784E-004
 -3.244892480174738E-004 -3.245010069111803E-004
 -3.245168277407770E-004 -3.244734542513949E-004
 -3.244839282241383E-004 -3.245063192107972E-004
 -3.245078098529047E-004 -3.244824584003070E-004
 -3.244918144075027E-004 -3.244984573055383E-004
 -3.244758788688515E-004 -3.245143515564903E-004
 -3.244807229905287E-004 -3.245095498873669E-004
 -3.244555827942688E-004 -3.245346870741559E-004
 -3.244649593917597E-004 -3.245253045193292E-004
 -3.244789413414870E-004 -3.245113185616407E-004
 -3.244690851834701E-004 -3.245211758539027E-004
 -3.245134418968265E-004 -3.244768169133378E-004
 -3.244582404257444E-004 -3.245320320431200E-004
 -3.245125530925686E-004 -3.244777123703576E-004
 -3.244956819443871E-004 -3.244945886193898E-004
 -3.245133278377019E-004 -3.244769412696169E-004
 -3.245007985034049E-004 -3.244894768884358E-004
 -3.245044862692863E-004 -3.244857613851770E-004
 -3.244819801121699E-004 -3.245082830883472E-004
 -3.244888518413381E-004 -3.245014266038846E-004
 -3.244959740897991E-004 -3.244942661380250E-004
 -3.244790829378559E-004 -3.245111890075132E-004
 -3.244817850074027E-004 -3.245084835062834E-004
 -3.245018185739451E-004 -3.244884497258007E-004
 -3.244956764921040E-004 -3.244945864423767E-004
 -3.244996051468188E-004 -3.244906613455945E-004
 -3.244877030198401E-004 -3.245025513019684E-004
 -3.244837525848510E-004 -3.245065217572616E-004
 -3.244911558471095E-004 -3.244991077046483E-004
 -3.244773402226294E-004 -3.245129019816311E-004
 -3.244971428167072E-004 -3.244931384699945E-004
 -3.244855358615596E-004 -3.245047381052198E-004
 -3.244868697965733E-004 -3.245033710896756E-004
 -3.244896121022402E-004 -3.245006606433872E-004
 -3.244842150177258E-004 -3.245060649659857E-004
 -3.244962061149894E-004 -3.244940524280708E-004
 -3.244940207415396E-004 -3.244962538308181E-004
 -3.244968515163230E-004 -3.244934050124983E-004
 -3.244858392397386E-004 -3.245044288552558E-004
 -3.244814828319172E-004 -3.245087700637715E-004
 -3.245009606898980E-004 -3.244893228217606E-004
 -3.244920182563676E-004 -3.244983065799127E-004
 -3.244940226603877E-004 -3.244962781571440E-004
 -3.245044735198849E-004 -3.244858055708452E-004
 -3.245030727132769E-004 -3.244872608903036E-004
 -3.245110931417646E-004 -3.244792108978200E-004
 -3.245001661504904E-004 -3.244901029063788E-004
 -3.244859657219138E-004 -3.245043696715207E-004
 -3.244894555987563E-004 -3.245008574729517E-004
 -3.245114104594132E-004 -3.244788611775451E-004
 -3.244969764816710E-004 -3.244933315642758E-004
 -3.245082346280774E-004 -3.244820558507942E-004
 -3.245132399253981E-004 -3.244770377656855E-004
 -3.244895595799652E-004 -3.245007742850086E-004
 -3.244979138069997E-004 -3.244923876229381E-004
 -3.244934588761107E-004 -3.244968041281155E-004
 -3.244824465121174E-004 -3.245078910838413E-004
 -3.244771106779115E-004 -3.245131979269774E-004
 -3.245011475993493E-004 -3.244891301088381E-004
 -3.244924391046813E-004 -3.244978979454220E-004
 -3.244916160685603E-004 -3.244986883758234E-004
 -3.244834466304593E-004 -3.245068309437638E-004
 -3.244882701840350E-004 -3.245020358453346E-004
 -3.244794390262671E-004 -3.245108506100009E-004
 -3.244789930173308E-004 -3.245112745386544E-004
 -3.244926867139517E-004 -3.244976526469786E-004
 -3.244820466917229E-004 -3.245082619594617E-004
 -3.244914799847547E-004 -3.244987865777220E-004
 -3.244880576128597E-004 -3.245022732392364E-004
 -3.244833932675991E-004 -3.245069000120933E-004
 -3.245003721130539E-004 -3.244898880241159E-004
 -3.244739947156000E-004 -3.245163381977891E-004
 -3.244710545017115E-004 -3.245192619542178E-004
 -3.244930546615669E-004 -3.244972051625302E-004
 -3.244858772333374E-004 -3.245044185654222E-004
 -3.244880337490560E-004 -3.245022532437316E-004
 -3.245062707559092E-004 -3.244840063068071E-004
 -3.244848088245070E-004 -3.245055279718506E-004
 -3.244876159695742E-004 -3.245026971833802E-004
 -3.244706437005772E-004 -3.245196188912953E-004
 -3.245153564478652E-004 -3.244749593028176E-004
 -3.245106108741418E-004 -3.244796767357222E-004
 -3.245061461064893E-004 -3.244841132285352E-004
 -3.244932188473515E-004 -3.244971136803873E-004
 -3.245002542749073E-004 -3.244900453722806E-004
 -3.245248195068381E-004 -3.244654617903895E-004
 -3.244816506935510E-004 -3.245086738466235E-004
 -3.244924990170804E-004 -3.244977961257826E-004
 -3.245062409696943E-004 -3.244840285281728E-004
 -3.244971280916202E-004 -3.244931604802386E-004
 -3.244966823709659E-004 -3.244935899976381E-004
 -3.244695403206183E-004 -3.245207258568398E-004
 -3.245056366923836E-004 -3.244846821008911E-004
 -3.244980216698706E-004 -3.244922563750518E-004
 -3.245022420128431E-004 -3.244880168551903E-004
 -3.244870272280427E-004 -3.245032480213626E-004
 -3.244899483695703E-004 -3.245003057822997E-004
 -3.245129041840344E-004 -3.244773452603425E-004
 -3.244853188363934E-004 -3.245049942375386E-004
 -3.244906215983983E-004 -3.244996767843352E-004
 -3.244847622697489E-004 -3.245054919167501E-004
 -3.245052689352520E-004 -3.244850155508465E-004
 -3.245036431907988E-004 -3.244866476817903E-004
 -3.244831894978128E-004 -3.245070625328496E-004
 -3.245135375189379E-004 -3.244767879879832E-004
 -3.245137163937465E-004 -3.244765723870883E-004
 -3.245038428005020E-004 -3.244864025723888E-004
 -3.244886028067561E-004 -3.245016785837824E-004
 -3.244894135707575E-004 -3.245008595025638E-004
 -3.245071440514138E-004 -3.244831200564910E-004
 -3.244823239081908E-004 -3.245079824890344E-004
 -3.244844018309210E-004 -3.245058801843305E-004
 -3.244828431299301E-004 -3.245074283095169E-004
 -3.245045553275197E-004 -3.244857229208260E-004
 -3.245018621320376E-004 -3.244884157672044E-004
 -3.244929428567289E-004 -3.244973367216820E-004
 -3.244951849262098E-004 -3.244951425693124E-004
 -3.244936763545991E-004 -3.244966256528994E-004
 -3.244849801117574E-004 -3.245052980974313E-004
 -3.244846324863201E-004 -3.245057119685518E-004
 -3.244759104820023E-004 -3.245143938083853E-004
 -3.244944822613995E-004 -3.244957844618009E-004
 -3.244995170557865E-004 -3.244908297609063E-004
 -3.245035958349496E-004 -3.244867153330302E-004
 -3.244766181296179E-004 -3.245136519383163E-004
 -3.244907590857544E-004 -3.244995537564877E-004
 -3.244840021081808E-004 -3.245062954074308E-004
 -3.244713051939552E-004 -3.245189733202468E-004
 -3.244974640463555E-004 -3.244928757243676E-004
 -3.244885158025871E-004 -3.245017831189840E-004
 -3.245018701740745E-004 -3.244883960076062E-004
 -3.245108204597325E-004 -3.244795208931333E-004
 -3.245188357968703E-004 -3.244714687497367E-004
 -3.244919259078360E-004 -3.244983547223560E-004
 -3.244963424123533E-004 -3.244939984700212E-004
 -3.244929440847571E-004 -3.244973586872437E-004
 -3.245065937226536E-004 -3.244836853349079E-004
 -3.245032359312465E-004 -3.244870772093318E-004
 -3.245096914077488E-004 -3.244805953453954E-004
 -3.245162417726422E-004 -3.244740339642797E-004
 -3.244989084279266E-004 -3.244914355766738E-004
 -3.245075008492104E-004 -3.244828048759116E-004
 -3.244912686965264E-004 -3.244990023460257E-004
 -3.245069097372351E-004 -3.244834289087026E-004
 -3.245089067046597E-004 -3.244813862166498E-004
 -3.244959691376809E-004 -3.244942910294001E-004
 -3.245131638634180E-004 -3.244771708027045E-004
 -3.245252126069763E-004 -3.244651082700006E-004
 -3.244906027833161E-004 -3.244996562123327E-004
 -3.245006994602867E-004 -3.244895958896898E-004
 -3.245069072293157E-004 -3.244833869742685E-004
 -3.244866534753857E-004 -3.245036299974523E-004
 -3.245031450730730E-004 -3.244871992127239E-004
 -3.245030453609120E-004 -3.244872719163009E-004
 -3.245145362972604E-004 -3.244757253689736E-004
 -3.244783583081853E-004 -3.245119643416283E-004
 -3.244816382104848E-004 -3.245086488451836E-004
 -3.244779225989206E-004 -3.245123350508151E-004
 -3.245017940674117E-004 -3.244885464941895E-004
 -3.244984311976786E-004 -3.244918692194342E-004
 -3.244642693096911E-004 -3.245260186762975E-004
 -3.245040781291078E-004 -3.244862494897497E-004
 -3.244932502734295E-004 -3.244970477917572E-004
 -3.244836296377898E-004 -3.245066448631801E-004
 -3.245026874517278E-004 -3.244876045323100E-004
 -3.244930144433164E-004 -3.244972635918538E-004
 -3.244795172064127E-004 -3.245107259978526E-004
 -3.245031983742332E-004 -3.244871278825664E-004
 -3.245006510781927E-004 -3.244896589903321E-004
 -3.245062059524404E-004 -3.244840470252342E-004
 -3.244849068887477E-004 -3.245053806303996E-004
 -3.244868265535835E-004 -3.245034654118814E-004
 -3.245158931919025E-004 -3.244743705647741E-004
 -3.244865167815657E-004 -3.245038079753190E-004
 -3.244959188145929E-004 -3.244943624706753E-004
 -3.244904197676709E-004 -3.244998300416959E-004
 -3.244993721262828E-004 -3.244909044941624E-004
 -3.245032632062270E-004 -3.244869939588982E-004
 -3.244985348072338E-004 -3.244917148903722E-004
 -3.244809171110487E-004 -3.245094098769173E-004
 -3.244768074074169E-004 -3.245134802738399E-004
 -3.244869491174938E-004 -3.245032940660285E-004
 -3.245016060123941E-004 -3.244886749304473E-004
 -3.244985594064417E-004 -3.244917004800613E-004
 -3.244860393208697E-004 -3.245042369062634E-004
 -3.245054529153580E-004 -3.244848587058779E-004
 -3.245065549155299E-004 -3.244837252391839E-004
 -3.245066966575022E-004 -3.244835791865310E-004
 -3.244849296815036E-004 -3.245053494197432E-004
 -3.244874298700186E-004 -3.245028468672161E-004
 -3.244768650792808E-004 -3.245134004233406E-004
 -3.244862489543409E-004 -3.245040188295660E-004
 -3.244805976387211E-004 -3.245096734565478E-004
 -3.245359123691604E-004 -3.244543569615217E-004
 -3.245259830970159E-004 -3.244642750712309E-004
 -3.245028496826529E-004 -3.244874135416804E-004
 -3.244867961656727E-004 -3.245034712945986E-004
 -3.244868723886278E-004 -3.245033708016602E-004
 -3.244705225142054E-004 -3.245197612125197E-004
 -3.245159333487987E-004 -3.244743252918676E-004
 -3.244974732695914E-004 -3.244927665076743E-004
 -3.244907803922442E-004 -3.244994956310884E-004
 -3.245240453690257E-004 -3.244662339217487E-004
 -3.245076017879548E-004 -3.244826561096516E-004
 -3.245233569312643E-004 -3.244669238871987E-004
 -3.244668504521014E-004 -3.245234453872081E-004
 -3.244883101542812E-004 -3.245019400969153E-004
 -3.244893271715013E-004 -3.245009229111335E-004
 -3.244951713808323E-004 -3.244951117028312E-004
 -3.244995949459688E-004 -3.244906571381280E-004
 -3.245122725950117E-004 -3.244779645696878E-004
 -3.245175664555144E-004 -3.244727066885574E-004
 -3.244898136018321E-004 -3.245004395873077E-004
 -3.245399982955908E-004 -3.244502683043654E-004
 -3.244895773704528E-004 -3.245007448484588E-004
 -3.244902495587965E-004 -3.244999980804090E-004
 -3.244970990593520E-004 -3.244932269575619E-004
 -3.245197118505522E-004 -3.244705909333029E-004
 -3.244806895373084E-004 -3.245095694006983E-004
 -3.245107628338757E-004 -3.244795393448862E-004
 -3.244969759064426E-004 -3.244933362601469E-004
 -3.245202631587505E-004 -3.244699821097556E-004
 -3.245144827656886E-004 -3.244758278364978E-004
 -3.245095784212171E-004 -3.244807234359929E-004
 -3.244756090786904E-004 -3.245146411122984E-004
 -3.245097638721293E-004 -3.244805597251252E-004
 -3.245013548322716E-004 -3.244889352954499E-004
 -3.245144573970984E-004 -3.244757949283412E-004
 -3.245073682404904E-004 -3.244829313555776E-004
 -3.244857020483469E-004 -3.245045943900449E-004
 -3.245262395074138E-004 -3.244640222753460E-004
 -3.245015292545428E-004 -3.244887694645998E-004
 -3.245081766351896E-004 -3.244820851589724E-004
 -3.244889983964157E-004 -3.245012697354783E-004
 -3.244995954111355E-004 -3.244906603497556E-004
 -3.244965830693387E-004 -3.244937253287543E-004
 -3.245177441478721E-004 -3.244725139100555E-004
 -3.245026535147904E-004 -3.244876437051005E-004
 -3.245109970748154E-004 -3.244792852769707E-004
 -3.244847117175468E-004 -3.245055670890294E-004
 -3.245126053203332E-004 -3.244776713275120E-004
 -3.245182389353582E-004 -3.244720485442184E-004
 -3.244719459668533E-004 -3.245183290419987E-004
 -3.244993149359622E-004 -3.244909704179140E-004
 -3.244965446008526E-004 -3.244937144586293E-004
 -3.245067035341035E-004 -3.244835554697936E-004
 -3.245035760629593E-004 -3.244866858315188E-004
 -3.244801507234394E-004 -3.245101647620850E-004
 -3.245201903367327E-004 -3.244700674520107E-004
 -3.244883587486131E-004 -3.245019322485763E-004
 -3.244985299647682E-004 -3.244917654384400E-004
 -3.244903543051852E-004 -3.244999068710814E-004
 -3.244915892402704E-004 -3.244987023682904E-004
 -3.245110935702214E-004 -3.244791964750855E-004
 -3.244777449496712E-004 -3.245125217472812E-004
 -3.244976000082117E-004 -3.244926830546855E-004
 -3.244851996242996E-004 -3.245050646537946E-004
 -3.245046717841823E-004 -3.244856099064737E-004
 -3.244867532780301E-004 -3.245035129746687E-004
 -3.244746993092626E-004 -3.245156050178862E-004
 -3.245129047103527E-004 -3.244773520296696E-004
 -3.244826227007082E-004 -3.245076770365636E-004
 -3.245022501684178E-004 -3.244880340618312E-004
 -3.244666719034299E-004 -3.245235934250175E-004
 -3.244907193651619E-004 -3.244995883483437E-004
 -3.244920744739710E-004 -3.244982103337931E-004
 -3.245003373269595E-004 -3.244899288491643E-004
 -3.244914009163421E-004 -3.244988941271450E-004
 -3.244871936107550E-004 -3.245031002480750E-004
 -3.245178051753251E-004 -3.244724466793246E-004
 -3.244971341921611E-004 -3.244931600116346E-004
 -3.244956502009531E-004 -3.244946346025426E-004
 -3.244816879434089E-004 -3.245085657143961E-004
 -3.244878852457588E-004 -3.245023862045148E-004
 -3.244946701441427E-004 -3.244956317812943E-004
 -3.244654616973067E-004 -3.245247915037187E-004
 -3.244855121547037E-004 -3.245047938563603E-004
 -3.245036420427411E-004 -3.244866329908435E-004
 -3.245061025482163E-004 -3.244841374796274E-004
 -3.244876279457833E-004 -3.245026426031562E-004
 -3.245073658891828E-004 -3.244829146261718E-004
 -3.245049735671565E-004 -3.244852753306488E-004
 -3.245001162250413E-004 -3.244901410153915E-004
 -3.244958087329947E-004 -3.244944574985872E-004
 -3.245047021084299E-004 -3.244855652895414E-004
 -3.245040453020367E-004 -3.244862288864737E-004
 -3.245108773460595E-004 -3.244793916066405E-004
 -3.244895140857892E-004 -3.245007323214983E-004
 -3.244927845974981E-004 -3.244974814607672E-004
 -3.244948373157817E-004 -3.244954460250360E-004
 -3.244806256185263E-004 -3.245096212823980E-004
 -3.245068421942646E-004 -3.244834150232908E-004
 -3.245032675555834E-004 -3.244870111551793E-004
 -3.244932556219762E-004 -3.244969922888064E-004
 -3.245058748268288E-004 -3.244843905150865E-004
 -3.244944286542808E-004 -3.244958432437851E-004
 -3.245052099494359E-004 -3.244850420607517E-004
 -3.245074385993828E-004 -3.244828365255274E-004
 -3.245040384529155E-004 -3.244862357698827E-004
 -3.244900243946602E-004 -3.245002412061295E-004
 -3.244944504384298E-004 -3.244958047608081E-004
 Gradient of SCF Energy
            1           2           3           4           5           6
    1  -0.0003319  -0.0022361  -0.0025962   0.0003680  -0.0000532  -0.0001877
    2  -0.0001610   0.0006378   0.0006846  -0.0001711  -0.0001171  -0.0000938
    3  -0.0000403  -0.0013816  -0.0005169  -0.0006787   0.0000333  -0.0005125
            7           8           9          10          11          12
    1   0.0000957   0.0003636   0.0001374   0.0002658   0.0001467   0.0001840
    2  -0.0000756  -0.0001223  -0.0002479  -0.0001082  -0.0001053  -0.0000818
    3  -0.0000962  -0.0005400  -0.0001679  -0.0000835  -0.0000892  -0.0001569
           13          14          15          16          17          18
    1   0.0000846   0.0000162   0.0001714  -0.0008188   0.0001659   0.0001024
    2  -0.0000452  -0.0002408  -0.0000845   0.0006456  -0.0001993  -0.0000656
    3  -0.0001049  -0.0001322  -0.0001555   0.0007377  -0.0001241  -0.0000755
           19          20          21          22          23          24
    1   0.0002558   0.0002290   0.0010184   0.0005579   0.0005546   0.0000937
    2  -0.0002034  -0.0000593  -0.0000112   0.0001063  -0.0004036   0.0001383
    3   0.0000914  -0.0001112   0.0014161   0.0006573   0.0009559  -0.0002296
           25          26          27          28          29          30
    1   0.0001635   0.0001329   0.0003708   0.0003170   0.0004083   0.0001615
    2  -0.0001321  -0.0001251  -0.0002361  -0.0005348   0.0000619   0.0003343
    3   0.0004298  -0.0002047   0.0002180   0.0007693  -0.0002516   0.0000907
           31          32          33          34          35          36
    1   0.0000367  -0.0001012  -0.0001538   0.0002353   0.0000771  -0.0000667
    2   0.0000315  -0.0001214  -0.0002918   0.0005606  -0.0002401  -0.0001583
    3  -0.0000470  -0.0001787  -0.0000774  -0.0002378   0.0001288  -0.0001535
           37          38          39          40          41          42
    1  -0.0000997   0.0001723  -0.0006299   0.0001016  -0.0000169  -0.0017141
    2  -0.0001087   0.0003090   0.0000784  -0.0003185  -0.0001039   0.0001358
    3  -0.0001229   0.0002724   0.0001251  -0.0004184  -0.0001095   0.0002602
           43          44          45          46          47          48
    1  -0.0014170  -0.0000863   0.0000970   0.0001157  -0.0007686   0.0003370
    2   0.0005472   0.0003128  -0.0002218   0.0005059  -0.0003020  -0.0003612
    3   0.0003492   0.0001357  -0.0002332   0.0003920  -0.0003998  -0.0004128
           49          50          51          52          53          54
    1   0.0001884  -0.0016881   0.0003768   0.0003377   0.0005334   0.0002256
    2  -0.0001412   0.0003065  -0.0000444   0.0004136   0.0001711  -0.0001394
    3  -0.0001285   0.0006489  -0.0001431   0.0002535   0.0002392  -0.0000927
           55          56          57          58          59          60
    1   0.0004554   0.0001350   0.0004907   0.0001758   0.0004825   0.0001477
    2  -0.0001372  -0.0000521  -0.0001700  -0.0000651   0.0002610  -0.0000489
    3  -0.0001223  -0.0000302  -0.0001219  -0.0000713   0.0001013  -0.0000286
           61          62          63          64          65          66
    1   0.0005538   0.0001980   0.0004606  -0.0001926  -0.0001089   0.0002210
    2  -0.0000831  -0.0000328   0.0001001   0.0002231   0.0000390  -0.0002058
    3  -0.0000121  -0.0000267  -0.0000546   0.0002906  -0.0002220  -0.0004530
           67          68          69          70          71          72
    1  -0.0017955  -0.0009746   0.0003304   0.0000673   0.0001573  -0.0006743
    2   0.0004780   0.0004775   0.0002239  -0.0000254   0.0000439  -0.0000837
    3   0.0005407   0.0003043   0.0001898  -0.0001776   0.0004352  -0.0001411
           73          74          75          76          77          78
    1   0.0003120   0.0001772  -0.0017131   0.0003367   0.0003569   0.0006034
    2   0.0000261  -0.0001383   0.0006407   0.0001032  -0.0003553  -0.0002008
    3  -0.0000477  -0.0001531   0.0001018   0.0001883  -0.0005314  -0.0000877
           79          80          81          82          83          84
    1   0.0002323   0.0002875   0.0001124   0.0004930   0.0001316   0.0005205
    2  -0.0000814   0.0000927  -0.0000771   0.0001034  -0.0000764  -0.0002003
    3  -0.0001280   0.0002004  -0.0000693   0.0002474  -0.0000642   0.0000605
           85          86          87          88          89          90
    1   0.0000853   0.0004427   0.0001117  -0.0002943   0.0004198   0.0000750
    2  -0.0000699  -0.0000922  -0.0000989  -0.0001246  -0.0001450  -0.0004494
    3  -0.0000622   0.0000487  -0.0000618   0.0000563   0.0001224  -0.0001744
           91          92          93          94          95          96
    1  -0.0000680   0.0001495   0.0000159   0.0000027   0.0003355   0.0000006
    2  -0.0001473   0.0001452  -0.0002326  -0.0000109   0.0001206   0.0000656
    3  -0.0002710   0.0000842   0.0001094  -0.0003632   0.0005809  -0.0001256
           97          98          99         100         101         102
    1  -0.0009550  -0.0007665   0.0001559   0.0000610  -0.0000075  -0.0000325
    2  -0.0012340  -0.0014943   0.0001438   0.0001255  -0.0000606   0.0000744
    3   0.0014092   0.0007999  -0.0003400  -0.0002334  -0.0003862  -0.0001014
          103         104         105         106         107         108
    1   0.0001404  -0.0000097  -0.0000782   0.0000054   0.0001319   0.0000015
    2   0.0002525   0.0000855  -0.0000397   0.0000318   0.0002380   0.0000038
    3  -0.0002725  -0.0001429  -0.0002138  -0.0001362  -0.0003487  -0.0000844
          109         110         111         112         113         114
    1   0.0000327   0.0000107   0.0004284   0.0000779  -0.0000163   0.0000485
    2   0.0000210   0.0000184   0.0007268   0.0001830   0.0000960   0.0003548
    3  -0.0006393  -0.0001633   0.0009168  -0.0002049  -0.0000458  -0.0005137
          115         116         117         118         119         120
    1   0.0000472   0.0003887   0.0001867   0.0000387   0.0000874   0.0000186
    2   0.0000857   0.0007380   0.0002071   0.0000217   0.0000303  -0.0001203
    3  -0.0001418   0.0014189  -0.0001601  -0.0000456  -0.0001525   0.0000370
          121         122         123         124
    1   0.0002387   0.0000871   0.0000972   0.0000913
    2   0.0000732   0.0001963  -0.0001043  -0.0001964
    3   0.0000491  -0.0000018  -0.0001027  -0.0000578
 Max gradient component =       2.596E-03
 RMS gradient           =       4.301E-04
 Computing fast IEFPCM-SWIG gradient.
 Updating gradient with PCM contributions...
 -- total gradient after adding PCM contribution --
---------------------------------------------------
  Atom         X              Y              Z     
---------------------------------------------------
   1      -0.000332      -0.000161      -0.000040
   2      -0.002236       0.000638      -0.001382
   3      -0.002596       0.000685      -0.000517
   4       0.000368      -0.000171      -0.000679
   5      -0.000053      -0.000117       0.000033
   6      -0.000188      -0.000094      -0.000512
   7       0.000096      -0.000076      -0.000096
   8       0.000363      -0.000122      -0.000540
   9       0.000137      -0.000248      -0.000168
  10       0.000266      -0.000108      -0.000084
  11       0.000147      -0.000105      -0.000089
  12       0.000184      -0.000082      -0.000157
  13       0.000084      -0.000045      -0.000105
  14       0.000016      -0.000241      -0.000132
  15       0.000171      -0.000085      -0.000156
  16      -0.000819       0.000646       0.000738
  17       0.000166      -0.000199      -0.000124
  18       0.000102      -0.000066      -0.000076
  19       0.000256      -0.000203       0.000091
  20       0.000229      -0.000059      -0.000111
  21       0.001018      -0.000011       0.001416
  22       0.000558       0.000106       0.000657
  23       0.000555      -0.000403       0.000956
  24       0.000094       0.000138      -0.000229
  25       0.000163      -0.000132       0.000430
  26       0.000133      -0.000125      -0.000205
  27       0.000371      -0.000236       0.000218
  28       0.000317      -0.000535       0.000769
  29       0.000408       0.000062      -0.000252
  30       0.000161       0.000334       0.000091
  31       0.000037       0.000032      -0.000047
  32      -0.000101      -0.000121      -0.000179
  33      -0.000154      -0.000292      -0.000077
  34       0.000235       0.000561      -0.000238
  35       0.000077      -0.000240       0.000129
  36      -0.000067      -0.000158      -0.000153
  37      -0.000100      -0.000109      -0.000123
  38       0.000172       0.000309       0.000272
  39      -0.000630       0.000078       0.000125
  40       0.000102      -0.000318      -0.000418
  41      -0.000017      -0.000104      -0.000110
  42      -0.001714       0.000136       0.000260
  43      -0.001417       0.000547       0.000349
  44      -0.000087       0.000313       0.000136
  45       0.000097      -0.000222      -0.000233
  46       0.000116       0.000506       0.000392
  47      -0.000769      -0.000302      -0.000400
  48       0.000337      -0.000361      -0.000413
  49       0.000189      -0.000141      -0.000128
  50      -0.001688       0.000306       0.000649
  51       0.000377      -0.000044      -0.000143
  52       0.000338       0.000414       0.000254
  53       0.000534       0.000171       0.000239
  54       0.000225      -0.000139      -0.000093
  55       0.000455      -0.000137      -0.000122
  56       0.000135      -0.000052      -0.000030
  57       0.000490      -0.000170      -0.000122
  58       0.000176      -0.000065      -0.000071
  59       0.000483       0.000261       0.000102
  60       0.000148      -0.000049      -0.000029
  61       0.000554      -0.000083      -0.000012
  62       0.000198      -0.000033      -0.000027
  63       0.000461       0.000100      -0.000055
  64      -0.000193       0.000223       0.000291
  65      -0.000109       0.000039      -0.000222
  66       0.000221      -0.000206      -0.000453
  67      -0.001795       0.000478       0.000541
  68      -0.000975       0.000478       0.000304
  69       0.000331       0.000224       0.000190
  70       0.000067      -0.000025      -0.000178
  71       0.000157       0.000044       0.000435
  72      -0.000674      -0.000084      -0.000141
  73       0.000312       0.000026      -0.000047
  74       0.000177      -0.000138      -0.000153
  75      -0.001713       0.000641       0.000102
  76       0.000337       0.000103       0.000188
  77       0.000357      -0.000355      -0.000531
  78       0.000603      -0.000201      -0.000088
  79       0.000233      -0.000081      -0.000128
  80       0.000288       0.000093       0.000200
  81       0.000112      -0.000077      -0.000069
  82       0.000493       0.000103       0.000247
  83       0.000131      -0.000076      -0.000064
  84       0.000520      -0.000201       0.000060
  85       0.000085      -0.000070      -0.000062
  86       0.000443      -0.000092       0.000048
  87       0.000111      -0.000099      -0.000062
  88      -0.000294      -0.000125       0.000056
  89       0.000420      -0.000145       0.000122
  90       0.000075      -0.000449      -0.000175
  91      -0.000068      -0.000147      -0.000271
  92       0.000149       0.000145       0.000084
  93       0.000016      -0.000233       0.000110
  94       0.000003      -0.000011      -0.000363
  95       0.000336       0.000121       0.000581
  96       0.000001       0.000066      -0.000125
  97      -0.000955      -0.001234       0.001409
  98      -0.000767      -0.001494       0.000800
  99       0.000156       0.000144      -0.000340
 100       0.000061       0.000125      -0.000234
 101      -0.000008      -0.000060      -0.000386
 102      -0.000033       0.000074      -0.000101
 103       0.000141       0.000252      -0.000272
 104      -0.000010       0.000086      -0.000143
 105      -0.000078      -0.000040      -0.000214
 106       0.000005       0.000032      -0.000136
 107       0.000132       0.000238      -0.000349
 108       0.000002       0.000004      -0.000084
 109       0.000032       0.000021      -0.000640
 110       0.000011       0.000018      -0.000163
 111       0.000428       0.000727       0.000917
 112       0.000078       0.000183      -0.000205
 113      -0.000016       0.000096      -0.000046
 114       0.000048       0.000355      -0.000514
 115       0.000047       0.000086      -0.000142
 116       0.000389       0.000738       0.001419
 117       0.000187       0.000207      -0.000160
 118       0.000039       0.000022      -0.000046
 119       0.000087       0.000030      -0.000153
 120       0.000018      -0.000120       0.000037
 121       0.000239       0.000073       0.000049
 122       0.000087       0.000196      -0.000002
 123       0.000097      -0.000104      -0.000103
 124       0.000091      -0.000196      -0.000058
---------------------------------------------------
 Number of fixed atoms: 0
 Gradient time:  CPU 1476.35 s  wall 595.01 s
 Geometry Optimization Parameters
   NAtoms,    NIC,     NZ,  NCons,   NDum,   NFix, NCnnct, MaxDiis
      124    1004     124       0       0       0       0       0


** GEOMETRY OPTIMIZATION IN DELOCALIZED INTERNAL COORDINATES **
   Searching for a Minimum

   Optimization Cycle:   1

                       Coordinates (Angstroms)
     ATOM                X               Y               Z
      1  N         0.0000000000    0.0000000000    0.0000000000
      2  C         0.0000000000    0.0000000000    1.3796530000
      3  C         1.3077930540    0.0000000000   -0.4410367706
      4  C        -1.0795684048   -0.0083891840    2.2522003141
      5  H        -2.0989821284   -0.0118281111    1.8896228873
      6  C        -0.8021764402   -0.0152947899    3.6065804087
      7  H        -1.6223589634   -0.0273892443    4.3121485609
      8  C         1.7938096454   -0.0654256452   -1.7430846914
      9  H         1.1273424101   -0.1068684009   -2.5944872700
     10  C         3.1654766419   -0.0880661225   -1.9154678685
     11  H         3.5702699015   -0.1395141213   -2.9180223996
     12  C         4.0366659130   -0.0515699644   -0.8237254759
     13  H         5.1048878888   -0.0708099804   -0.9931859675
     14  C         3.5443148352   -0.0012576171    0.4671287004
     15  H         4.2245811482    0.0108091929    1.3092671537
     16  C         2.1677628922    0.0214826300    0.6696108770
     17  C         0.5118014827   -0.0079959211    4.0828780310
     18  H         0.6916699368   -0.0181169008    5.1492931616
     19  C         1.5799372821    0.0135474855    3.2055848867
     20  H         2.5971282842    0.0223921816    3.5764222348
     21  C         1.3284688644    0.0183665147    1.8389504574
     22  C        -1.1281395553   -0.1408973346   -0.8303082973
     23  C        -1.3776686976    0.7933732558   -1.8239521066
     24  H        -0.7289734847    1.6557330776   -1.9234235509
     25  C        -1.9660247899   -1.2373085878   -0.6835269531
     26  H        -1.7524466868   -1.9753803634    0.0804571493
     27  C        -3.0509101242   -1.4099392386   -1.5322920716
     28  C        -2.4414096903    0.6181205837   -2.7005215792
     29  C        -3.2868478097   -0.4867053043   -2.5579800825
     30  C        -3.9414998332   -2.6124638523   -1.3894081727
     31  H        -3.6990114079   -3.1931146647   -0.5001967701
     32  H        -4.9934040749   -2.3277326641   -1.3189069230
     33  H        -3.8493504567   -3.2790391719   -2.2502343933
     34  C        -2.6700981175    1.5950200654   -3.8207732944
     35  H        -1.9623279851    2.4223232904   -3.7886298601
     36  H        -3.6756179875    2.0188183843   -3.7886633515
     37  H        -2.5616287759    1.1093500131   -4.7938301716
     38  B        -4.4312609153   -0.7544556253   -3.6015067400
     39  C        -5.8461565498   -0.1328351226   -3.4412398128
     40  C        -6.1227904177    0.7428937821   -2.3876448225
     41  H        -5.3419781836    0.9796711678   -1.6731064066
     42  C        -7.3843503709    1.3015928707   -2.2628798104
     43  C        -8.3935100062    0.9725221172   -3.1936849218
     44  C        -8.1320408592    0.1032989855   -4.2362758808
     45  H        -8.9095605132   -0.1485866780   -4.9498603121
     46  C        -6.8609418459   -0.4542291445   -4.3751679899
     47  C        -9.6115535949    1.6850560994   -2.8259113977
     48  C       -10.8801373349    1.7559594156   -3.3358121471
     49  H       -11.1762471869    1.1987091274   -4.2161951984
     50  C        -9.2957919155    2.4338439665   -1.6785337737
     51  C       -10.1949790868    3.2589262281   -1.0161848134
     52  C        -7.9553746231    2.2395242251   -1.2941820377
     53  C        -7.4909905124    2.9073994678   -0.1930150233
     54  H        -6.4700541254    2.8007615500    0.1517861771
     55  C       -11.8195362623    2.5855162595   -2.6810157895
     56  H       -12.8239514782    2.6439600374   -3.0793042395
     57  C       -11.5012882198    3.3172676692   -1.5604706287
     58  H       -12.2549472245    3.9396670232   -1.0943784580
     59  C        -8.3812251561    3.7586986739    0.5039546854
     60  H        -8.0137598543    4.2872342086    1.3734941735
     61  C        -9.6895824166    3.9371085890    0.1187574203
     62  H       -10.3320464246    4.5990876633    0.6858426524
     63  B        -6.5679613718   -1.4289404832   -5.5495123280
     64  C        -5.1429940525   -2.0117846210   -5.7330864690
     65  C        -4.8678735283   -2.8665578489   -6.8034352239
     66  H        -5.6553280817   -3.1299169901   -7.5016131898
     67  C        -3.5940540355   -3.3753943696   -6.9687677056
     68  C        -2.5686135902   -3.0342904265   -6.0591878199
     69  C        -2.8349146212   -2.1970638874   -4.9918619106
     70  H        -2.0491189592   -1.9449159561   -4.2891244035
     71  C        -4.1204276274   -1.6786107600   -4.8144233293
     72  C        -1.3431849799   -3.7162572911   -6.4802652390
     73  C        -0.0552925575   -3.7851615440   -6.0176752411
     74  H         0.2657864767   -3.2488272860   -5.1338061257
     75  C        -1.6798654029   -4.4483728306   -7.6331315512
     76  C        -0.7894961061   -5.2476644402   -8.3428764025
     77  C        -3.0334476378   -4.2792413735   -7.9752773664
     78  C        -3.5180239602   -4.9373142705   -9.0760017224
     79  H        -4.5504740387   -4.8473958961   -9.3905376199
     80  C         0.5339019136   -5.3000118691   -7.8451555411
     81  H         1.2788058366   -5.9034694264   -8.3495305840
     82  C         0.8750948349   -4.5873492466   -6.7199522773
     83  H         1.8915376276   -4.6413019850   -6.3530104139
     84  C        -2.6358539889   -5.7577190702   -9.8181158320
     85  H        -3.0203226274   -6.2771801458  -10.6862561211
     86  C        -1.3140411517   -5.9167555530   -9.4749125581
     87  H        -0.6753295031   -6.5562953939  -10.0720044948
     88  C        -7.7048427868   -1.8374071033   -6.5549474089
     89  C        -7.8538677304   -1.1579479032   -7.7698067296
     90  C        -8.8393156648   -1.5498968470   -8.6666920469
     91  H        -8.9384399647   -1.0464001649   -9.6216954546
     92  C        -9.6918839799   -2.5988929602   -8.3573573526
     93  C        -9.5532695805   -3.2707056648   -7.1523540845
     94  H       -10.2326755132   -4.0814940005   -6.9165661790
     95  C        -8.5572178147   -2.9070619680   -6.2550209049
     96  N       -10.6821075136   -2.9984572545   -9.2767981371
     97  C       -10.7617967278   -4.2459929496   -9.8655404605
     98  C       -11.6551347321   -2.1865150336   -9.8279065635
     99  C       -11.9530991931   -0.8543945033   -9.5679457264
    100  H       -11.3973046860   -0.2830385361   -8.8369282336
    101  C       -12.9871246152   -0.2766346099  -10.2833101281
    102  H       -13.2357222839    0.7609286711  -10.1024503494
    103  C        -9.9561705473   -5.3652949642   -9.6884577049
    104  H        -9.1329286965   -5.3657308047   -8.9868969670
    105  C       -10.2331729205   -6.4847236317  -10.4532810302
    106  H        -9.6185783910   -7.3675060232  -10.3343022280
    107  C       -11.2800042379   -6.5000235886  -11.3786994833
    108  H       -11.4662160696   -7.3925199613  -11.9609974703
    109  C       -12.0699954678   -5.3808370707  -11.5578914030
    110  H       -12.8728268416   -5.3860967658  -12.2849017629
    111  C       -11.8106763246   -4.2433468781  -10.7999048630
    112  C       -13.7151193633   -0.9981938211  -11.2331436722
    113  H       -14.5141442691   -0.5117225468  -11.7764174308
    114  C       -13.4191919200   -2.3247349269  -11.4806804793
    115  H       -13.9817417237   -2.8863499315  -12.2163091906
    116  C       -12.3839410602   -2.9265183092  -10.7739038925
    117  C        -8.3928602732   -3.6649381488   -4.9683758522
    118  H        -9.1525896489   -4.4376572920   -4.8559406620
    119  H        -8.4635541253   -3.0051760748   -4.1015798400
    120  H        -7.4178948229   -4.1553006825   -4.9197544274
    121  C        -6.9231657484   -0.0323001224   -8.1246479367
    122  H        -7.2452361955    0.4895440407   -9.0251409354
    123  H        -6.8591842906    0.7059283864   -7.3228484557
    124  H        -5.9099961063   -0.3990967157   -8.3031151885
   Point Group: c1    Number of degrees of freedom:   366


   Energy is  -2925.531817974


 Attempting to Generate Delocalized Internal Coordinates

366 Hessian modes will be used to form the next step
  Hessian Eigenvalues:
     0.008668    0.008755    0.008773    0.008877    0.009267    0.009271
     0.010855    0.011177    0.011704    0.014442    0.014611    0.015626
     0.017078    0.017140    0.017151    0.017173    0.017537    0.017664
     0.017664    0.017988    0.018075    0.018348    0.018414    0.018488
     0.018629    0.018691    0.019142    0.019407    0.019442    0.019579
     0.019730    0.019928    0.020119    0.020431    0.020507    0.020747
     0.020858    0.021089    0.021123    0.021194    0.021216    0.021233
     0.021243    0.021392    0.021397    0.021420    0.021474    0.021601
     0.021660    0.021685    0.021688    0.021742    0.021771    0.021785
     0.021826    0.022292    0.022311    0.022533    0.022535    0.022665
     0.022754    0.022761    0.022775    0.023181    0.023183    0.023221
     0.023239    0.023396    0.023400    0.023403    0.023408    0.023536
     0.023557    0.023572    0.023653    0.023670    0.023672    0.023674
     0.023703    0.023753    0.023759    0.023771    0.023807    0.023811
     0.023819    0.023822    0.023832    0.023859    0.023874    0.023911
     0.023943    0.023980    0.023998    0.024010    0.024022    0.024088
     0.024126    0.024127    0.024137    0.024166    0.024188    0.024192
     0.024244    0.024282    0.024291    0.024323    0.024339    0.024355
     0.024373    0.024389    0.024433    0.024832    0.024904    0.071211
     0.071415    0.071516    0.071686    0.072286    0.072366    0.072428
     0.072473    0.159927    0.159981    0.159982    0.159989    0.159990
     0.159991    0.159992    0.159996    0.159996    0.159998    0.159998
     0.159998    0.159998    0.159999    0.159999    0.159999    0.159999
     0.159999    0.159999    0.160000    0.160000    0.160000    0.160000
     0.160000    0.160000    0.160000    0.160000    0.160000    0.160000
     0.160000    0.160000    0.160000    0.160000    0.160000    0.160000
     0.160000    0.160000    0.160000    0.160000    0.160000    0.160000
     0.160000    0.160000    0.160000    0.160000    0.160000    0.160000
     0.160000    0.219997    0.219998    0.219999    0.219999    0.220613
     0.220613    0.222149    0.222150    0.225918    0.225921    0.225969
     0.225976    0.231521    0.231849    0.233811    0.233823    0.234620
     0.234655    0.234835    0.234902    0.237412    0.237427    0.239959
     0.240210    0.244545    0.244608    0.245234    0.245251    0.246829
     0.248215    0.249009    0.249030    0.249165    0.249390    0.249398
     0.249662    0.249714    0.249726    0.249799    0.249831    0.249838
     0.249839    0.249844    0.249851    0.249903    0.249922    0.249925
     0.249938    0.249957    0.249968    0.249991    0.249993    0.249996
     0.249997    0.249998    0.249998    0.249998    0.258836    0.258855
     0.268790    0.271566    0.272529    0.275244    0.319757    0.320432
     0.320580    0.321393    0.338825    0.339506    0.340676    0.343310
     0.344770    0.345107    0.345347    0.345595    0.345783    0.346091
     0.346223    0.346269    0.348743    0.348750    0.348895    0.349028
     0.353990    0.354149    0.354475    0.354984    0.355242    0.355422
     0.355532    0.355712    0.356016    0.356041    0.356126    0.356221
     0.356269    0.356297    0.356488    0.356518    0.356523    0.356680
     0.356775    0.356849    0.357042    0.357206    0.357281    0.357358
     0.357441    0.357505    0.357544    0.357563    0.357566    0.357673
     0.357775    0.357805    0.357836    0.357986    0.358082    0.358107
     0.367495    0.370956    0.371908    0.372297    0.375097    0.377912
     0.379296    0.392524    0.400842    0.404591    0.409178    0.409704
     0.412060    0.412668    0.415775    0.415917    0.418520    0.425531
     0.425664    0.425985    0.427643    0.428082    0.428710    0.429227
     0.433228    0.433228    0.433757    0.433785    0.434582    0.434776
     0.435709    0.435984    0.441449    0.443484    0.446429    0.446507
     0.452301    0.452418    0.453013    0.455734    0.456754    0.458057
     0.460800    0.461730    0.466232    0.467816    0.468918    0.468926
     0.469907    0.470061    0.470141    0.471572    0.474873    0.474905
     0.475138    0.477204    0.477831    0.478333    0.479096    0.479574
     0.479687    0.480136    0.480676    0.481439    0.482305    0.483020
[...]
 -0.479  -0.476  -0.475  -0.474  -0.474  -0.473  -0.469  -0.469
 -0.469  -0.461  -0.452  -0.447  -0.446  -0.446  -0.443  -0.435
 -0.431  -0.431  -0.429  -0.424  -0.423  -0.423  -0.420  -0.416
 -0.411  -0.411  -0.409  -0.408  -0.404  -0.400  -0.400  -0.400
 -0.399  -0.399  -0.398  -0.396  -0.393  -0.393  -0.390  -0.389
 -0.387  -0.377  -0.374  -0.373  -0.367  -0.357  -0.354  -0.350
 -0.326  -0.326  -0.326  -0.319  -0.300  -0.299  -0.297  -0.296
 -0.290  -0.287  -0.286  -0.286  -0.286  -0.267  -0.263  -0.261
 -0.251  -0.251  -0.237  -0.236
 -- Virtual --
 -0.098  -0.064  -0.043  -0.035  -0.010  -0.009  -0.009   0.001
  0.003   0.004   0.010   0.017   0.019   0.028   0.029   0.040
  0.055   0.057   0.063   0.070   0.070   0.077   0.080   0.086
  0.118   0.122   0.137   0.139   0.141   0.148   0.150   0.152
  0.153   0.154   0.156   0.156   0.158   0.159   0.161   0.162
  0.166   0.174   0.175   0.178   0.181   0.183   0.185   0.186
  0.189   0.191   0.193   0.196   0.197   0.198   0.200   0.202
  0.207   0.207   0.208   0.209   0.210   0.212   0.213   0.216
  0.219   0.220   0.221   0.222   0.225   0.228   0.230   0.231
  0.233   0.235   0.235   0.240   0.240   0.241   0.242   0.245
  0.246   0.246   0.248   0.249   0.249   0.251   0.254   0.262
  0.263   0.263   0.264   0.267   0.270   0.271   0.276   0.278
  0.281   0.282   0.283   0.288   0.288   0.289   0.291   0.296
  0.297   0.300   0.301   0.303   0.304   0.307   0.311   0.312
  0.315   0.318   0.322   0.327   0.327   0.328   0.328   0.331
  0.342   0.343   0.355   0.357   0.359   0.360   0.361   0.365
  0.370   0.373   0.375   0.380   0.384   0.390   0.397   0.401
  0.405   0.410   0.410   0.412   0.416   0.422   0.425   0.426
  0.427   0.428   0.436   0.445   0.447   0.451   0.455   0.455
  0.459   0.461   0.462   0.479   0.481   0.484   0.486   0.488
  0.489   0.490   0.495   0.496   0.499   0.501   0.504   0.511
  0.517   0.519   0.520   0.521   0.523   0.524   0.524   0.526
  0.530   0.530   0.530   0.531   0.532   0.534   0.535   0.537
  0.537   0.538   0.541   0.544   0.549   0.552   0.555   0.556
  0.557   0.558   0.559   0.561   0.563   0.565   0.566   0.569
  0.571   0.573   0.574   0.578   0.578   0.578   0.582   0.582
  0.583   0.584   0.586   0.586   0.589   0.590   0.591   0.595
  0.598   0.598   0.599   0.599   0.601   0.602   0.602   0.606
  0.608   0.609   0.611   0.612   0.614   0.614   0.616   0.617
  0.619   0.620   0.622   0.624   0.625   0.627   0.629   0.631
  0.633   0.635   0.636   0.638   0.639   0.640   0.642   0.644
  0.644   0.645   0.646   0.649   0.650   0.652   0.655   0.655
  0.657   0.658   0.660   0.663   0.668   0.673   0.675   0.675
  0.678   0.680   0.680   0.681   0.685   0.685   0.687   0.690
  0.695   0.697   0.700   0.701   0.703   0.705   0.706   0.711
  0.714   0.720   0.722   0.723   0.725   0.725   0.727   0.731
  0.732   0.733   0.737   0.739   0.741   0.749   0.751   0.753
  0.754   0.755   0.757   0.758   0.769   0.770   0.773   0.776
  0.776   0.780   0.781   0.783   0.786   0.788   0.791   0.793
  0.795   0.798   0.800   0.808   0.811   0.816   0.820   0.824
  0.828   0.832   0.836   0.840   0.844   0.847   0.851   0.854
  0.867   0.868   0.871   0.875   0.878   0.895   0.897   0.903
  0.904   0.908   0.910   0.913   0.917   0.923   0.924   0.932
  0.935   0.937   0.938   0.940   0.941   0.944   0.944   0.946
  0.949   0.952   0.956   0.959   0.961   0.966   0.968   0.972
  0.974   0.977   0.979   0.981   0.982   0.983   0.986   0.989
  0.991   0.992   0.995   0.997   0.999   1.001   1.004   1.005
  1.006   1.008   1.010   1.012   1.014   1.018   1.020   1.024
  1.025   1.027   1.029   1.033   1.037   1.037   1.040   1.041
  1.049   1.050   1.052   1.053   1.055   1.057   1.058   1.059
  1.062   1.065   1.067   1.068   1.075   1.076   1.077   1.080
  1.082   1.084   1.085   1.086   1.087   1.092   1.093   1.099
  1.099   1.111   1.114   1.116   1.119   1.123   1.124   1.125
  1.127   1.128   1.133   1.133   1.135   1.136   1.139   1.142
  1.144   1.153   1.153   1.155   1.157   1.159   1.160   1.162
  1.165   1.171   1.179   1.185   1.189   1.197   1.198   1.202
  1.207   1.216   1.221   1.225   1.229   1.231   1.234   1.242
  1.246   1.248   1.257   1.262   1.264   1.269   1.270   1.274
  1.277   1.282   1.284   1.292   1.294   1.297   1.299   1.302
  1.305   1.306   1.310   1.311   1.315   1.316   1.319   1.323
  1.324   1.327   1.328   1.333   1.336   1.338   1.341   1.349
  1.352   1.354   1.356   1.365   1.370   1.371   1.373   1.376
  1.378   1.381   1.383   1.384   1.393   1.395   1.397   1.401
  1.403   1.404   1.406   1.409   1.410   1.413   1.434   1.436
  1.437   1.437   1.440   1.443   1.460   1.460   1.470   1.478
  1.482   1.501   1.504   1.506   1.506   1.506   1.508   1.509
  1.510   1.513   1.513   1.513   1.516   1.518   1.520   1.524
  1.527   1.527   1.532   1.533   1.536   1.538   1.540   1.542
  1.543   1.545   1.547   1.548   1.551   1.553   1.554   1.556
  1.557   1.561   1.562   1.563   1.564   1.566   1.567   1.571
  1.575   1.578   1.580   1.584   1.587   1.596   1.599   1.600
  1.603   1.606   1.612   1.629   1.636   1.643   1.647   1.648
  1.658   1.663   1.681   1.687   1.694   1.719   1.737   1.739
  1.744   1.745   1.759   1.767   1.771   1.778   1.791   1.802
  1.802   1.804   1.806   1.809   1.810   1.812   1.818   1.819
  1.827   1.828   1.830   1.831   1.834   1.840   1.844   1.848
  1.852   1.854   1.872   1.879   1.890   1.898   1.900   1.904
  1.905   1.907   1.911   1.913   1.915   1.917   1.921   1.923
  1.924   1.926   1.932   1.933   1.936   1.937   1.941   1.943
  1.946   1.951   1.952   1.953   1.956   1.973   1.979   1.980
  1.981   1.982   1.985   1.990   1.996   2.002   2.005   2.019
  2.027   2.035   2.037   2.040   2.042   2.043   2.044   2.045
  2.053   2.058   2.060   2.062   2.064   2.066   2.068   2.081
  2.081   2.083   2.093   2.094   2.107   2.108   2.115   2.123
  2.126   2.127   2.135   2.137   2.139   2.146   2.149   2.151
  2.153   2.154   2.155   2.162   2.163   2.167   2.171   2.177
  2.182   2.185   2.193   2.199   2.200   2.203   2.206   2.210
  2.213   2.218   2.223   2.227   2.228   2.233   2.234   2.238
  2.241   2.247   2.252   2.256   2.257   2.259   2.262   2.264
  2.270   2.272   2.274   2.275   2.278   2.280   2.283   2.284
  2.286   2.289   2.292   2.295   2.304   2.307   2.317   2.318
  2.318   2.322   2.322   2.331   2.335   2.335   2.341   2.342
  2.343   2.345   2.346   2.349   2.351   2.352   2.353   2.355
  2.359   2.367   2.368   2.370   2.381   2.382   2.383   2.385
  2.387   2.391   2.394   2.403   2.404   2.407   2.408   2.411
  2.415   2.417   2.419   2.426   2.432   2.434   2.441   2.443
  2.453   2.454   2.464   2.467   2.470   2.473   2.475   2.477
  2.486   2.488   2.488   2.492   2.502   2.506   2.513   2.533
  2.537   2.543   2.549   2.568   2.575   2.581   2.602   2.604
  2.609   2.625   2.631   2.632   2.638   2.639   2.639   2.657
  2.659   2.660   2.678   2.679   2.682   2.684   2.699   2.704
  2.705   2.713   2.714   2.718   2.718   2.720   2.721   2.722
  2.726   2.726   2.731   2.738   2.738   2.743   2.751   2.758
  2.765   2.767   2.772   2.773   2.775   2.778   2.782   2.783
  2.788   2.788   2.794   2.795   2.798   2.799   2.801   2.805
  2.810   2.817   2.832   2.833   2.840   2.846   2.849   2.850
  2.864   2.866   2.868   2.872   2.874   2.890   2.892   2.895
  2.896   2.900   2.915   2.916   2.923   2.926   2.930   2.934
  2.946   2.947   2.950   2.970   2.975   2.980   2.981   3.001
  3.004   3.004   3.006   3.015   3.016   3.038   3.049   3.066
  3.079   3.083   3.110   3.132   3.135   3.229   3.250   3.252
  3.265   3.270   3.332   3.335   3.398   3.436   3.440   3.441
  3.444   3.453   3.467   3.487   3.490   3.492   3.564   3.569
  3.613   3.616   3.664   3.677   9.578   9.719  13.136  13.170
 13.221  13.223  13.426  13.433  13.433  13.490  13.506  13.518
 13.521  13.540  13.672  13.676  13.700  13.702  13.711  13.719
 13.725  13.785  13.789  13.800  13.811  13.813  13.850  13.855
 13.882  13.890  13.902  13.916  13.938  13.953  13.954  13.993
 13.999  14.007  14.028  14.039  14.109  14.112  14.116  14.156
 14.158  14.185  14.186  14.190  14.211  14.217  14.218  14.224
 14.231  14.256  14.267  14.267  14.303  14.306  14.325  14.327
 14.330  14.337  14.509  14.512  14.565  14.569  14.576  14.577
 14.581  14.583  14.599  14.602  14.613  14.613  19.580  19.584
 --------------------------------------------------------------
 
          Ground-State Mulliken Net Atomic Charges

     Atom                 Charge (a.u.)
  ----------------------------------------
      1 N                    -0.741741
      2 C                     0.339526
      3 C                     0.341819
      4 C                    -0.281083
      5 H                     0.234786
      6 C                    -0.236554
      7 H                     0.215960
      8 C                    -0.281334
      9 H                     0.234716
     10 C                    -0.236632
     11 H                     0.216248
     12 C                    -0.228036
     13 H                     0.214630
     14 C                    -0.345779
     15 H                     0.205610
     16 C                     0.097216
     17 C                    -0.227799
     18 H                     0.214522
     19 C                    -0.346274
     20 H                     0.205495
     21 C                     0.100765
     22 C                     0.317542
     23 C                    -0.347835
     24 H                     0.236301
     25 C                    -0.355555
     26 H                     0.236507
     27 C                     0.046885
     28 C                     0.055565
     29 C                    -0.209684
     30 C                    -0.764201
     31 H                     0.242647
     32 H                     0.248030
     33 H                     0.249381
     34 C                    -0.760114
     35 H                     0.241306
     36 H                     0.248309
     37 H                     0.245206
     38 B                     0.707173
     39 C                    -0.152556
     40 C                    -0.391831
     41 H                     0.232154
     42 C                     0.113208
     43 C                     0.085349
     44 C                    -0.383389
     45 H                     0.229664
     46 C                    -0.154394
     47 C                     0.195652
     48 C                    -0.376004
     49 H                     0.219539
     50 C                    -0.060283
     51 C                     0.253240
     52 C                     0.196727
     53 C                    -0.385757
     54 H                     0.221243
     55 C                    -0.205946
     56 H                     0.229196
     57 C                    -0.331597
     58 H                     0.222422
     59 C                    -0.203217
     60 H                     0.229252
     61 C                    -0.336296
     62 H                     0.222756
     63 B                     0.703994
     64 C                    -0.150985
     65 C                    -0.379983
     66 H                     0.232589
     67 C                     0.086905
     68 C                     0.109743
     69 C                    -0.395026
     70 H                     0.229897
     71 C                    -0.156567
     72 C                     0.197131
     73 C                    -0.384851
     74 H                     0.220428
     75 C                    -0.061620
     76 C                     0.251541
     77 C                     0.196681
     78 C                    -0.375918
     79 H                     0.220189
     80 C                    -0.335365
     81 H                     0.222761
     82 C                    -0.203271
     83 H                     0.229045
     84 C                    -0.206445
     85 H                     0.229775
     86 C                    -0.331112
     87 H                     0.222486
     88 C                    -0.216382
     89 C                     0.056223
     90 C                    -0.347997
     91 H                     0.232713
     92 C                     0.310518
     93 C                    -0.344610
     94 H                     0.237347
     95 C                     0.048332
     96 N                    -0.739378
     97 C                     0.340372
     98 C                     0.344374
     99 C                    -0.281062
    100 H                     0.231325
    101 C                    -0.235575
    102 H                     0.215789
    103 C                    -0.278484
    104 H                     0.231777
    105 C                    -0.235514
    106 H                     0.215567
    107 C                    -0.228517
    108 H                     0.214798
    109 C                    -0.342479
    110 H                     0.205365
    111 C                     0.094373
    112 C                    -0.228514
    113 H                     0.214717
    114 C                    -0.342141
    115 H                     0.205400
    116 C                     0.095005
    117 C                    -0.763063
    118 H                     0.242990
    119 H                     0.248816
    120 H                     0.248167
    121 C                    -0.758427
    122 H                     0.240889
    123 H                     0.245203
    124 H                     0.247405
  ----------------------------------------
  Sum of atomic charges =    -0.000000

 -----------------------------------------------------------------
                    Cartesian Multipole Moments
 -----------------------------------------------------------------
    Charge (ESU x 10^10)
                -0.0000
    Dipole Moment (Debye)
         X      -0.1569      Y       0.0601      Z      -0.0140
       Tot       0.1686
    Quadrupole Moments (Debye-Ang)
        XX    -412.2802     XY     -26.8001     YY    -415.0359
        XZ     -25.2793     YZ      20.9460     ZZ    -424.6549
    Octopole Moments (Debye-Ang^2)
       XXX    6697.2960    XXY     890.9449    XYY    2255.8635
       YYY    1553.4515    XXZ    2164.9992    XYZ      44.5829
       YYZ    1801.4610    XZZ    2501.3300    YZZ     362.3678
       ZZZ    6119.3613
    Hexadecapole Moments (Debye-Ang^3)
      XXXX -126721.6017   XXXY  -13540.6699   XXYY  -25153.0038
      XYYY   -9023.9934   YYYY  -22209.9501   XXXZ  -46275.4730
      XXYZ   -6542.7236   XYYZ  -15144.1085   YYYZ  -16733.1416
      XXZZ  -40178.3636   XYZZ   -3072.8636   YYZZ  -18348.9428
      XZZZ  -48240.1556   YZZZ  -15827.3640   ZZZZ -105247.6766
 -----------------------------------------------------------------
Archival summary:
1\1\ctcp039\OPT\ProcedureUnspecified\BasisUnspecified\272248\mewes\ThuOct2500:10:402018ThuOct2500:10:402018\0\\#,OPT,ProcedureUnspecified,BasisUnspecified,\\0,1\N\C,1,1.38023\C,1,1.38092,2,108.676\C,3,1.3886,1,129.549,2,177.823,0\H,4,1.08181,3,121.473,1,1.15576,0\C,4,1.38384,3,117.533,1,-178.461,0\H,6,1.08213,4,119.084,3,179.98,0\C,2,1.39041,1,129.519,3,-179.876,0\H,8,1.08182,2,121.533,1,0.275121,0\C,8,1.38342,2,117.667,1,-179.944,0\H,10,1.08227,8,119.083,2,-179.785,0\C,10,1.39741,8,121.611,2,0.160246,0\H,12,1.08175,10,119.602,8,-179.9,0\C,12,1.38186,10,120.42,8,0.0951958,0\H,14,1.08297,12,120.441,10,179.941,0\C,14,1.39099,12,119.043,10,-0.21637,0\C,6,1.39748,4,121.652,3,0.231099,0\H,17,1.08174,6,119.548,4,179.847,0\C,17,1.38192,6,120.502,4,0.115786,0\H,19,1.08303,17,120.558,6,179.414,0\C,19,1.39021,17,118.933,6,-0.156704,0\C,1,1.41057,2,124.608,3,173.282,0\C,22,1.38584,1,120.713,2,120.285,0\H,23,1.08382,22,119.443,1,0.548541,0\C,22,1.38672,1,119.355,2,-58.3944,0\H,25,1.08396,22,119.356,1,-2.40567,0\C,25,1.38755,22,120.506,1,177.046,0\C,23,1.3904,22,120.298,1,-177.891,0\C,28,1.39946,23,119.99,22,0.755285,0\C,28,1.50248,23,120.048,22,179.061,0\H,30,1.08941,28,111.785,23,1.01849,0\H,30,1.09191,28,111.459,23,121.399,0\H,30,1.09235,28,111.341,23,-119.17,0\C,27,1.50283,25,119.819,22,-178.529,0\H,34,1.08936,27,111.6,25,-2.8292,0\H,34,1.09181,27,111.535,25,-123.176,0\H,34,1.09244,27,111.326,25,117.271,0\B,29,1.57287,28,121.262,23,175.728,0\C,38,1.54867,29,121.2,28,92.8306,0\C,39,1.39385,38,119.684,29,-3.55235,0\H,40,1.08497,39,119.742,38,-1.21194,0\C,40,1.38102,39,119.833,38,177.847,0\C,42,1.41188,40,120.691,39,-0.244388,0\C,43,1.38568,42,119.766,40,0.347951,0\H,44,1.0846,43,120.345,42,-179.484,0\C,44,1.39938,43,120.086,42,-0.138098,0\C,42,1.45853,40,130.639,39,-178.477,0\C,47,1.37015,42,134.899,40,-0.622334,0\H,48,1.08303,47,121.932,42,-0.906973,0\C,47,1.40465,42,106.118,40,178.208,0\C,50,1.39008,47,123.83,42,-178.854,0\C,50,1.40774,47,111.326,42,0.0996917,0\C,52,1.36924,50,118.051,47,-179.124,0\H,53,1.08265,52,121.893,50,179.803,0\C,48,1.41381,47,118.458,42,178.808,0\H,55,1.08218,48,118.624,47,-179.976,0\C,55,1.37521,48,122.246,47,-0.174496,0\H,57,1.08308,55,119.768,48,-179.788,0\C,51,1.41445,50,115.869,47,179.113,0\H,59,1.08302,51,120.114,50,-179.985,0\C,59,1.37514,51,119.974,50,-0.220377,0\H,61,1.08195,59,118.937,51,-179.841,0\C,38,1.5513,29,119.02,28,-90.2668,0\C,63,1.39382,38,119.488,29,2.93267,0\H,64,1.0845,63,119.829,38,1.94799,0\C,64,1.38023,63,119.953,38,-176.707,0\C,66,1.41162,64,120.681,63,-0.296681,0\C,67,1.38567,66,119.691,64,-0.188742,0\H,68,1.08471,67,120.381,66,179.421,0\C,68,1.39958,67,120.126,66,0.482603,0\C,66,1.45915,64,130.55,63,176.963,0\C,71,1.37045,66,134.96,64,0.749538,0\H,72,1.08323,71,121.969,66,1.6069,0\C,71,1.40518,66,105.999,64,-177.5,0\C,74,1.39044,71,123.755,66,178.294,0\C,74,1.40874,71,111.448,66,-0.198315,0\C,76,1.36955,74,118.063,71,178.894,0\H,77,1.08273,76,121.938,74,-179.607,0\C,72,1.41391,71,118.442,66,-178.073,0\H,79,1.08223,72,118.626,71,179.924,0\C,79,1.37522,72,122.238,71,0.169454,0\H,81,1.08312,79,119.741,72,179.66,0\C,75,1.4146,74,115.902,71,-178.903,0\H,83,1.08305,75,120.114,74,-179.966,0\C,83,1.37502,75,119.974,74,0.354129,0\H,85,1.08193,83,118.923,75,179.737,0\B,70,1.55629,68,120.777,67,177.469,0\C,87,1.57259,70,120.641,68,-1.37873,0\C,88,1.39874,87,121.168,70,94.5593,0\C,89,1.39011,88,119.899,87,177.215,0\H,90,1.08361,89,120.089,88,-178.088,0\C,90,1.38782,89,120.39,88,1.16246,0\C,92,1.38759,90,119.815,89,-0.116926,0\H,93,1.08345,92,119.419,90,178.875,0\C,93,1.38908,92,120.487,90,-0.958136,0\N,92,1.41162,90,120.256,89,-179.528,0\C,96,1.38113,92,126.057,90,-59.3441,0\C,96,1.38115,92,125.423,90,118.306,0\C,97,1.38949,96,128.866,92,-2.69675,0\H,99,1.0821,97,121.428,96,0.111935,0\C,99,1.38253,97,117.477,96,-179.825,0\H,101,1.08218,99,119.165,97,-179.836,0\C,98,1.38993,96,128.842,92,0.148636,0\H,103,1.08207,98,121.457,96,0.843501,0\C,103,1.38239,98,117.494,96,-178.865,0\H,105,1.08224,103,119.172,98,-179.98,0\C,105,1.39735,103,121.394,98,0.191856,0\H,107,1.08161,105,119.505,103,-179.949,0\C,107,1.38235,105,120.62,103,0.347049,0\H,109,1.08253,107,120.375,105,179.402,0\C,109,1.39062,107,119.15,105,-0.325422,0\C,101,1.39755,99,121.399,97,0.252105,0\H,112,1.08163,101,119.5,99,-179.867,0\C,112,1.3824,101,120.65,99,0.29151,0\H,114,1.08264,112,120.379,101,179.661,0\C,114,1.39048,112,119.111,101,-0.353118,0\C,89,1.50285,88,119.612,87,-1.97316,0\H,117,1.08936,89,111.98,88,179.362,0\H,117,1.09221,89,111.415,88,58.9698,0\H,117,1.09233,89,111.264,88,-60.3335,0\C,95,1.50346,93,120.337,92,-179.492,0\H,121,1.08946,95,111.947,93,2.35849,0\H,121,1.09196,95,111.337,93,-117.954,0\H,121,1.0924,95,111.414,93,122.666,0\\\@

 Total job time:  41546.77s(wall), 101454.91s(cpu) 
 Thu Oct 25 00:10:40 2018

        *************************************************************
        *                                                           *
        *  Thank you very much for using Q-Chem.  Have a nice day.  *
        *                                                           *
        *************************************************************


0 sent ACK to 0 
now end server 0 ... 
