mFile = /cm/shared/apps/q-chem/intel/QCHEM_5.0.1_Trunk/bin/mpi/machines
Process 0 of 1 is on ctcp036 - thread support 0
initial socket setup ...start
initial socket setup ...done 
now start server 0 ... 
ctcp036.cm.cluster 10.141.0
Q-Chem Developer Version! Running on 10.141.0.*
                  Welcome to Q-Chem
     A Quantum Leap Into The Future Of Chemistry


 Q-Chem 5.0, Q-Chem, Inc., Pleasanton, CA (2017)

 Yihan Shao,  Zhengting Gan,  E. Epifanovsky,  A. T. B. Gilbert,  M. Wormit,  
 J. Kussmann,  A. W. Lange,  A. Behn,  Jia Deng,  Xintian Feng,  D. Ghosh,  
 M. Goldey,  P. R. Horn,  L. D. Jacobson,  I. Kaliman,  T. Kus,  A. Landau,  
 Jie Liu,  E. I. Proynov,  R. M. Richard,  R. P. Steele,  E. J. Sundstrom,  
 H. L. Woodcock III,  P. M. Zimmerman,  D. Zuev,  B. Albrecht,  E. Alguire,  
 S. A. Baeppler,  Z. Benda,  Y. A. Bernard,  E. J. Berquist,  K. B. Bravaya,  
 D. Casanova,  Chun-Min Chang,  Yunqing Chen,  A. Chien,  K. D. Closser,  
 M. P. Coons,  S. Dasgupta,  M. Diedenhofen,  Hainam Do,  R. G. Edgar,  
 Po-Tung Fang,  S. Fatehi,  Qingguo Feng,  Qinghui Ge,  A. Ghysels,  
 J. Gomes,  J. Gonthier,  A. Gunina,  M. W. D. Hanson-Heine,  
 P. H. P. Harbach,  A. W. Hauser,  J. E. Herr,  E. G. Hohenstein,  
 Z. C. Holden,  Kerwin Hui,  T.-C. Jagau,  Hyunjun Ji,  B. Kaduk,  
 K. Khistyaev,  Jaehoon Kim,  P. Klunzinger,  K. Koh,  D. Kosenkov,  
 T. Kowalczyk,  C. M. Krauter,  A. Kunitsa,  Ka Un Lao,  A. Laurent,  
 K. V. Lawler,  Joonho Lee,  D. Lefrancois,  S. Lehtola,  D. S. Levine,  
 Yi-Pei Li,  You-Sheng Lin,  Fenglai Liu,  E. Livshits,  A. Luenser,  
 P. Manohar,  E. Mansoor,  S. F. Manzer,  Shan-Ping Mao,  Yuezhi Mao,  
 N. Mardirossian,  A. V. Marenich,  L. A. Martinez-Martinez,  S. A. Maurer,  
 N. J. Mayhall,  S. C. McKenzie,  J.-M. Mewes,  A. F. Morrison,  K. Nanda,  
 T. S. Nguyen-Beck,  R. Olivares-Amaya,  J. A. Parkhill,  T. M. Perrine,  
 F. Plasser,  S. Prager,  A. Prociuk,  D. R. Rehn,  F. Rob,  M. Schneider,  
 N. Sergueev,  S. M. Sharada,  S. Sharma,  D. W. Small,  T. Stauch,  
 T. Stein,  Yu-Chuan Su,  A. J. W. Thom,  T. Tsuchimochi,  L. Vogt,  
 O. Vydrov,  M. A. Watson,  J. Wenzel,  M. de Wergifosse,  T. A. Wesolowski,  
 A. White,  J. Witte,  A. Yamada,  Jun Yang,  K. Yao,  S. Yeganeh,  
 S. R. Yost,  Zhi-Qiang You,  A. Zech,  Igor Ying Zhang,  Xing Zhang,  
 Yan Zhao,  Ying Zhu,  B. R. Brooks,  G. K. L. Chan,  C. J. Cramer,  
 M. S. Gordon,  W. J. Hehre,  A. Klamt,  M. W. Schmidt,  C. D. Sherrill,  
 D. G. Truhlar,  A. Aspuru-Guzik,  R. Baer,  A. T. Bell,  N. A. Besley,  
 Jeng-Da Chai,  A. Dreuw,  B. D. Dunietz,  T. R. Furlani,  Chao-Ping Hsu,  
 Yousung Jung,  Jing Kong,  D. S. Lambrecht,  WanZhen Liang,  C. Ochsenfeld,  
 V. A. Rassolov,  L. V. Slipchenko,  J. E. Subotnik,  T. Van Voorhis,  
 J. M. Herbert,  A. I. Krylov,  P. M. W. Gill,  M. Head-Gordon

 Contributors to earlier versions of Q-Chem not listed above: 
 R. D. Adamson,  B. Austin,  J. Baker,  G. J. O. Beran,  K. Brandhorst,  
 S. T. Brown,  E. F. C. Byrd,  A. K. Chakraborty,  C.-L. Cheng,  
 Siu Hung Chien,  D. M. Chipman,  D. L. Crittenden,  H. Dachsel,  
 R. A. DiStasio Jr.,  R. J. Doerksen,  A. D. Dutoi,  L. Fusti-Molnar,  
 W. A. Goddard III,  A. Golubeva-Zadorozhnaya,  S. R. Gwaltney,  G. Hawkins,  
 A. Heyden,  S. Hirata,  G. Kedziora,  F. J. Keil,  C. Kelley,  Jihan Kim,  
 R. A. King,  R. Z. Khaliullin,  P. P. Korambath,  W. Kurlancheek,  
 A. M. Lee,  M. S. Lee,  S. V. Levchenko,  Ching Yeh Lin,  D. Liotard,  
 R. C. Lochan,  I. Lotan,  P. E. Maslen,  N. Nair,  D. P. O'Neill,  
 D. Neuhauser,  E. Neuscamman,  C. M. Oana,  R. Olson,  B. Peters,  
 R. Peverati,  P. A. Pieniazek,  Y. M. Rhee,  J. Ritchie,  M. A. Rohrdanz,  
 E. Rosta,  N. J. Russ,  H. F. Schaefer III,  N. E. Schultz,  N. Shenvi,  
 A. C. Simmonett,  A. Sodt,  D. Stuck,  K. S. Thanthiriwatte,  V. Vanovschi,  
 Tao Wang,  A. Warshel,  C. F. Williams,  Q. Wu,  X. Xu,  W. Zhang

 Please cite Q-Chem as follows:
 Y. Shao et al., Mol. Phys. 113, 184-215 (2015)
 DOI: 10.1080/00268976.2014.952696

 Q-Chem 5.0.1 for Intel X86 EM64T Linux

 Parts of Q-Chem use Armadillo 5.200.1 (Boston Tea Smuggler).
 http://arma.sourceforge.net/

 Q-Chem begins on Wed Oct 24 12:38:14 2018  

Host: 32512

     Scratch files written to /scratch/mewes/138271/qchem2697//
 Parallel job on  1  processors
The previous job contains 0 fragments, simply inherited here
Symmetry turned off for PCM/SM12/SMD calculation

Checking the input file for inconsistencies... 	...done.

--------------------------------------------------------------
User input:
--------------------------------------------------------------
$rem
threads 4
jobtype	opt
method PBEh-3c
basis def2-mSVP
mem_static	1024
mem_total	4000
sym_ignore	true
scf_convergence	9
solvent_method	pcm
$end

$molecule
read gsopt.mol
$end

$solvent
dielectric	4.33 
$end

$pcm
theory iefpcm
$end
--------------------------------------------------------------
 Adding empirical dispersion correction 
 ----------------------------------------------------------------
 Doing -D3(BJ) with
 s6 =   1.00000
 s8 =   0.00000
 a1 =   0.48600
 a2 =   4.50000
 -D3 energy including 3body term =     -0.1184721535 hartrees
 ----------------------------------------------------------------
 Adding gCP correction 
 ----------------------------------------------------------------
 gCP energy =      0.1606997271 hartrees
 ----------------------------------------------------------------
             Standard Nuclear Orientation (Angstroms)
    I     Atom           X                Y                Z
 ----------------------------------------------------------------
    1      N       0.0000000000     0.0000000000     0.0000000000
    2      C       0.0000000000     0.0000000000     1.3796530000
    3      C       1.3077930540     0.0000000000    -0.4410367706
    4      C      -1.0795684048    -0.0083891840     2.2522003141
    5      H      -2.0989821284    -0.0118281111     1.8896228873
    6      C      -0.8021764402    -0.0152947899     3.6065804087
    7      H      -1.6223589634    -0.0273892443     4.3121485609
    8      C       1.7938096454    -0.0654256452    -1.7430846914
    9      H       1.1273424101    -0.1068684009    -2.5944872700
   10      C       3.1654766419    -0.0880661225    -1.9154678685
   11      H       3.5702699015    -0.1395141213    -2.9180223996
   12      C       4.0366659130    -0.0515699644    -0.8237254759
   13      H       5.1048878888    -0.0708099804    -0.9931859675
   14      C       3.5443148352    -0.0012576171     0.4671287004
   15      H       4.2245811482     0.0108091929     1.3092671537
   16      C       2.1677628922     0.0214826300     0.6696108770
   17      C       0.5118014827    -0.0079959211     4.0828780310
   18      H       0.6916699368    -0.0181169008     5.1492931616
   19      C       1.5799372821     0.0135474855     3.2055848867
   20      H       2.5971282842     0.0223921816     3.5764222348
   21      C       1.3284688644     0.0183665147     1.8389504574
   22      C      -1.1281395553    -0.1408973346    -0.8303082973
   23      C      -1.3776686976     0.7933732558    -1.8239521066
   24      H      -0.7289734847     1.6557330776    -1.9234235509
   25      C      -1.9660247899    -1.2373085878    -0.6835269531
   26      H      -1.7524466868    -1.9753803634     0.0804571493
   27      C      -3.0509101242    -1.4099392386    -1.5322920716
   28      C      -2.4414096903     0.6181205837    -2.7005215792
   29      C      -3.2868478097    -0.4867053043    -2.5579800825
   30      C      -3.9414998332    -2.6124638523    -1.3894081727
   31      H      -3.6990114079    -3.1931146647    -0.5001967701
   32      H      -4.9934040749    -2.3277326641    -1.3189069230
   33      H      -3.8493504567    -3.2790391719    -2.2502343933
   34      C      -2.6700981175     1.5950200654    -3.8207732944
   35      H      -1.9623279851     2.4223232904    -3.7886298601
   36      H      -3.6756179875     2.0188183843    -3.7886633515
   37      H      -2.5616287759     1.1093500131    -4.7938301716
   38      B      -4.4312609153    -0.7544556253    -3.6015067400
   39      C      -5.8461565498    -0.1328351226    -3.4412398128
   40      C      -6.1227904177     0.7428937821    -2.3876448225
   41      H      -5.3419781836     0.9796711678    -1.6731064066
   42      C      -7.3843503709     1.3015928707    -2.2628798104
   43      C      -8.3935100062     0.9725221172    -3.1936849218
   44      C      -8.1320408592     0.1032989855    -4.2362758808
   45      H      -8.9095605132    -0.1485866780    -4.9498603121
   46      C      -6.8609418459    -0.4542291445    -4.3751679899
   47      C      -9.6115535949     1.6850560994    -2.8259113977
   48      C     -10.8801373349     1.7559594156    -3.3358121471
   49      H     -11.1762471869     1.1987091274    -4.2161951984
   50      C      -9.2957919155     2.4338439665    -1.6785337737
   51      C     -10.1949790868     3.2589262281    -1.0161848134
   52      C      -7.9553746231     2.2395242251    -1.2941820377
   53      C      -7.4909905124     2.9073994678    -0.1930150233
   54      H      -6.4700541254     2.8007615500     0.1517861771
   55      C     -11.8195362623     2.5855162595    -2.6810157895
   56      H     -12.8239514782     2.6439600374    -3.0793042395
   57      C     -11.5012882198     3.3172676692    -1.5604706287
   58      H     -12.2549472245     3.9396670232    -1.0943784580
   59      C      -8.3812251561     3.7586986739     0.5039546854
   60      H      -8.0137598543     4.2872342086     1.3734941735
   61      C      -9.6895824166     3.9371085890     0.1187574203
   62      H     -10.3320464246     4.5990876633     0.6858426524
   63      B      -6.5679613718    -1.4289404832    -5.5495123280
   64      C      -5.1429940525    -2.0117846210    -5.7330864690
   65      C      -4.8678735283    -2.8665578489    -6.8034352239
   66      H      -5.6553280817    -3.1299169901    -7.5016131898
   67      C      -3.5940540355    -3.3753943696    -6.9687677056
   68      C      -2.5686135902    -3.0342904265    -6.0591878199
   69      C      -2.8349146212    -2.1970638874    -4.9918619106
   70      H      -2.0491189592    -1.9449159561    -4.2891244035
   71      C      -4.1204276274    -1.6786107600    -4.8144233293
   72      C      -1.3431849799    -3.7162572911    -6.4802652390
   73      C      -0.0552925575    -3.7851615440    -6.0176752411
   74      H       0.2657864767    -3.2488272860    -5.1338061257
   75      C      -1.6798654029    -4.4483728306    -7.6331315512
   76      C      -0.7894961061    -5.2476644402    -8.3428764025
   77      C      -3.0334476378    -4.2792413735    -7.9752773664
   78      C      -3.5180239602    -4.9373142705    -9.0760017224
   79      H      -4.5504740387    -4.8473958961    -9.3905376199
   80      C       0.5339019136    -5.3000118691    -7.8451555411
   81      H       1.2788058366    -5.9034694264    -8.3495305840
   82      C       0.8750948349    -4.5873492466    -6.7199522773
   83      H       1.8915376276    -4.6413019850    -6.3530104139
   84      C      -2.6358539889    -5.7577190702    -9.8181158320
   85      H      -3.0203226274    -6.2771801458   -10.6862561211
   86      C      -1.3140411517    -5.9167555530    -9.4749125581
   87      H      -0.6753295031    -6.5562953939   -10.0720044948
   88      C      -7.7048427868    -1.8374071033    -6.5549474089
   89      C      -7.8538677304    -1.1579479032    -7.7698067296
   90      C      -8.8393156648    -1.5498968470    -8.6666920469
   91      H      -8.9384399647    -1.0464001649    -9.6216954546
   92      C      -9.6918839799    -2.5988929602    -8.3573573526
   93      C      -9.5532695805    -3.2707056648    -7.1523540845
   94      H     -10.2326755132    -4.0814940005    -6.9165661790
   95      C      -8.5572178147    -2.9070619680    -6.2550209049
   96      N     -10.6821075136    -2.9984572545    -9.2767981371
   97      C     -10.7617967278    -4.2459929496    -9.8655404605
   98      C     -11.6551347321    -2.1865150336    -9.8279065635
   99      C     -11.9530991931    -0.8543945033    -9.5679457264
  100      H     -11.3973046860    -0.2830385361    -8.8369282336
  101      C     -12.9871246152    -0.2766346099   -10.2833101281
  102      H     -13.2357222839     0.7609286711   -10.1024503494
  103      C      -9.9561705473    -5.3652949642    -9.6884577049
  104      H      -9.1329286965    -5.3657308047    -8.9868969670
  105      C     -10.2331729205    -6.4847236317   -10.4532810302
  106      H      -9.6185783910    -7.3675060232   -10.3343022280
  107      C     -11.2800042379    -6.5000235886   -11.3786994833
  108      H     -11.4662160696    -7.3925199613   -11.9609974703
  109      C     -12.0699954678    -5.3808370707   -11.5578914030
  110      H     -12.8728268416    -5.3860967658   -12.2849017629
  111      C     -11.8106763246    -4.2433468781   -10.7999048630
  112      C     -13.7151193633    -0.9981938211   -11.2331436722
  113      H     -14.5141442691    -0.5117225468   -11.7764174308
  114      C     -13.4191919200    -2.3247349269   -11.4806804793
  115      H     -13.9817417237    -2.8863499315   -12.2163091906
  116      C     -12.3839410602    -2.9265183092   -10.7739038925
  117      C      -8.3928602732    -3.6649381488    -4.9683758522
  118      H      -9.1525896489    -4.4376572920    -4.8559406620
  119      H      -8.4635541253    -3.0051760748    -4.1015798400
  120      H      -7.4178948229    -4.1553006825    -4.9197544274
  121      C      -6.9231657484    -0.0323001224    -8.1246479367
  122      H      -7.2452361955     0.4895440407    -9.0251409354
  123      H      -6.8591842906     0.7059283864    -7.3228484557
  124      H      -5.9099961063    -0.3990967157    -8.3031151885
 ----------------------------------------------------------------
 Nuclear Repulsion Energy = 10607.5887056444 hartrees
 There are      252 alpha and      252 beta electrons
 Requested basis set is def2-mSVP
 There are 628 shells and 1236 basis functions

 Total QAlloc Memory Limit   4000 MB
 Mega-Array Size      1001 MB
 MEM_STATIC part      1024 MB
 Discretize the solute cavity surface with Lebedev spheres
	Using 302 Lebedev grid points for each H atom
	Using 302 Lebedev grid points for other atoms
	Atomic van der Waals radii will be scaled by 1.20
 Remove points where switching function is < 1.0e-08
 Keep 12972 surface tesserae and discard 24476 interior tesserae
 Molecular Surface Area = 989.791 Angst**2
 A cutoff of  1.0D-12 yielded  56892 shell pairs
 There are    228230 function pairs (    251779 Cartesian)
 
 -------------------------------------------------------
 OpenMP Integral Computing Module                       
 Release: version 1.0, May 2013, Q-Chem Inc. Pittsburgh 
 -------------------------------------------------------
 Integral Job Info:
 Integral job number is                      11
 Integral operator is                         1
 short-range coefficients                     0
 long-range coefficients              100000000
 Omega coefficients                           0
 if combine SR and LR in K                    0
 Integral screening is                        0
 Integral computing path is                   2
 max size of driver memory is            800000
 size of driver memory is                593474
 size of scratch memory is              1809772
 max col of scratch BK array               1296
 max len of scratch array in speh3          155
 max len of scratch index in speh4           18
 max int batch size is                      520
 min int batch size is                       52
 fixed nKL is                                52
 max L of basis functions is                  2
 order of int derivative is                   0
 number of shells is                        628
 number of basis is                        1312
 number of cartesian basis is              1312
 number of contracted shell pairs         56892
 number of primitive shell pairs         119619
 maxK2 (contraction) of shell pair           25
 max number of K2 of shell pair               1
 max number of CS2 of shell pair          13429
 max number of PS2 of shell pair          21000
 mem total for path MDJ                  591752
 -------------------------------------------------------
 Smallest overlap matrix eigenvalue = 1.96E-04

 Scale SEOQF with 1.000000e-02/1.000000e-02/1.000000e-02

 Standard Electronic Orientation quadrupole field applied
 Nucleus-field energy     =    -0.0000000875 hartrees
 Guess from superposition of atomic densities
 Warning:  Energy on first SCF cycle will be non-variational
 A restricted hybrid HF-DFT SCF calculation will be
 performed using Pulay DIIS extrapolation
 Polarizable Continuum solvation model will be applied
 Exchange:     0.4200 Hartree-Fock + 0.5800 PBEh-3c
 Correlation:  1.0000 PBEh-3c
 Using SG-1 standard quadrature grid
 Dispersion:   Grimme D3
 SCF converges when DIIS error is below 1.0E-09
 using 4 threads for integral computing
 -------------------------------------------------------
 OpenMP Integral computing Module                
 Release: version 1.0, May 2013, Q-Chem Inc. Pittsburgh 
 -------------------------------------------------------
 ---------------------------------------
  Cycle       Energy         DIIS Error
 ---------------------------------------
    1   -2952.3924003483      2.43E-02
 Using non-symmetric K matrix
    2   -2924.9768128059      1.62E-03
    3   -2925.1867215283      1.37E-03
    4   -2925.5121635085      4.73E-04
    5   -2925.5547741823      1.38E-04
    6   -2925.5584420024      3.92E-05
    7   -2925.5587296958      1.25E-05
    8   -2925.5587607762      3.33E-06
    9   -2925.5587630225      1.06E-06
   10   -2925.5587632911      3.41E-07
   11   -2925.5587633251      1.19E-07
   12   -2925.5587633325      4.42E-08
   13   -2925.5587633344      1.39E-08
   14   -2925.5587633343      5.94E-09
   15   -2925.5587633319      1.74E-09
   16   -2925.5587633282      8.52E-10 Convergence criterion met
 ---------------------------------------

************** Final PCM Free Energy Summary **************
 G_electrostatic  =      -0.02943463 hartree =     -18.47051086 kcal/mol
 G_cavitation     =       0.00000000 hartree =       0.00000000 kcal/mol
 G_dispersion     =       0.00000000 hartree =       0.00000000 kcal/mol
 G_repulsion      =       0.00000000 hartree =       0.00000000 kcal/mol
 --------------------------------------------------
 Non-electrostatic Free Energy =       0.00000000 hartree =       0.00000000 kcal/mol
 Total                         =      -0.02943463 hartree =     -18.47051086 kcal/mol
 --------------------------------------------------
 SCF Energy (H0 + V/2)                       =   -2925.55876333 
 Solute Internal Energy (H0)                 =   -2925.52932870 
 Total Free Energy (H0 + V/2 + non-elec)     =   -2925.55876333 hartree
                                             = -1835815.83195547 kcal/mol
***********************************************************

 SCF time:  CPU 8974.59 s  wall 3643.68 s
 SCF   energy in the final basis set = -2925.55876333
 Total energy in the final basis set = -2925.55876333
 
 --------------------------------------------------------------
 
                    Orbital Energies (a.u.)
 --------------------------------------------------------------
 
 Alpha MOs
 -- Occupied --
-14.693 -14.692 -10.493 -10.493 -10.489 -10.489 -10.489 -10.488
-10.469 -10.468 -10.468 -10.467 -10.466 -10.466 -10.466 -10.466
-10.466 -10.466 -10.464 -10.463 -10.463 -10.463 -10.462 -10.462
-10.462 -10.462 -10.462 -10.462 -10.462 -10.462 -10.460 -10.459
-10.459 -10.459 -10.459 -10.458 -10.458 -10.458 -10.452 -10.451
-10.451 -10.451 -10.450 -10.450 -10.450 -10.450 -10.449 -10.449
-10.449 -10.449 -10.449 -10.448 -10.448 -10.448 -10.448 -10.448
-10.447 -10.447 -10.447 -10.447 -10.441 -10.441 -10.441 -10.441
-10.440 -10.440 -10.439 -10.439 -10.432 -10.431 -10.431 -10.431
-10.431 -10.431  -6.956  -6.955  -1.113  -1.112  -1.020  -1.019
 -0.979  -0.979  -0.966  -0.963  -0.954  -0.954  -0.949  -0.949
 -0.935  -0.935  -0.913  -0.905  -0.891  -0.890  -0.881  -0.880
 -0.863  -0.858  -0.856  -0.853  -0.849  -0.848  -0.848  -0.848
 -0.826  -0.818  -0.815  -0.812  -0.811  -0.811  -0.810  -0.809
 -0.775  -0.775  -0.772  -0.772  -0.739  -0.738  -0.733  -0.729
 -0.727  -0.723  -0.700  -0.698  -0.691  -0.690  -0.690  -0.681
 -0.678  -0.669  -0.658  -0.658  -0.654  -0.651  -0.649  -0.649
 -0.646  -0.645  -0.600  -0.598  -0.595  -0.595  -0.592  -0.590
 -0.590  -0.590  -0.586  -0.578  -0.576  -0.575  -0.575  -0.557
 -0.557  -0.553  -0.547  -0.546  -0.530  -0.530  -0.527  -0.523
 -0.521  -0.521  -0.517  -0.512  -0.505  -0.505  -0.504  -0.502
 -0.501  -0.500  -0.498  -0.494  -0.493  -0.493  -0.492  -0.490
 -0.489  -0.489  -0.488  -0.485  -0.482  -0.481  -0.481  -0.480
 -0.475  -0.474  -0.473  -0.470  -0.470  -0.468  -0.467  -0.467
 -0.465  -0.457  -0.448  -0.443  -0.442  -0.442  -0.441  -0.433
 -0.428  -0.428  -0.428  -0.425  -0.425  -0.425  -0.422  -0.418
 -0.417  -0.414  -0.410  -0.409  -0.400  -0.399  -0.399  -0.398
 -0.397  -0.396  -0.396  -0.395  -0.395  -0.393  -0.392  -0.391
 -0.385  -0.379  -0.377  -0.373  -0.366  -0.356  -0.353  -0.348
 -0.333  -0.333  -0.324  -0.318  -0.302  -0.302  -0.298  -0.297
 -0.290  -0.287  -0.286  -0.286  -0.285  -0.266  -0.262  -0.259
 -0.257  -0.257  -0.241  -0.240
 -- Virtual --
 -0.097  -0.062  -0.042  -0.033  -0.015  -0.015  -0.007   0.003
  0.003   0.004   0.012   0.018   0.019   0.023   0.023   0.041
  0.052   0.052   0.063   0.064   0.066   0.079   0.082   0.089
  0.121   0.126   0.145   0.148   0.150   0.152   0.154   0.155
  0.156   0.157   0.159   0.162   0.164   0.164   0.166   0.167
  0.169   0.178   0.182   0.183   0.185   0.187   0.190   0.191
  0.196   0.199   0.199   0.199   0.201   0.202   0.204   0.204
  0.208   0.208   0.210   0.213   0.215   0.217   0.220   0.221
  0.222   0.224   0.228   0.228   0.230   0.232   0.233   0.234
  0.236   0.236   0.237   0.239   0.240   0.244   0.245   0.245
  0.246   0.249   0.251   0.251   0.254   0.255   0.257   0.264
  0.266   0.267   0.269   0.271   0.273   0.275   0.284   0.284
  0.285   0.286   0.288   0.289   0.289   0.290   0.291   0.299
  0.301   0.302   0.303   0.309   0.309   0.310   0.310   0.313
  0.315   0.323   0.326   0.326   0.328   0.331   0.333   0.334
  0.345   0.347   0.356   0.358   0.359   0.359   0.362   0.367
  0.371   0.372   0.374   0.382   0.385   0.392   0.399   0.401
  0.405   0.409   0.411   0.414   0.419   0.422   0.425   0.426
  0.428   0.431   0.439   0.447   0.449   0.452   0.455   0.456
  0.457   0.459   0.464   0.481   0.482   0.483   0.486   0.487
  0.489   0.489   0.494   0.495   0.496   0.497   0.503   0.512
  0.513   0.516   0.520   0.521   0.523   0.524   0.525   0.526
  0.527   0.528   0.529   0.531   0.532   0.533   0.533   0.535
  0.536   0.537   0.544   0.545   0.551   0.552   0.552   0.555
  0.555   0.558   0.560   0.561   0.563   0.566   0.567   0.569
  0.570   0.571   0.572   0.574   0.577   0.579   0.580   0.582
  0.584   0.585   0.587   0.587   0.590   0.591   0.592   0.594
  0.594   0.596   0.597   0.597   0.599   0.600   0.602   0.603
  0.604   0.605   0.610   0.613   0.614   0.614   0.615   0.617
  0.617   0.620   0.621   0.623   0.625   0.627   0.628   0.629
  0.630   0.634   0.634   0.634   0.636   0.638   0.639   0.640
  0.640   0.643   0.644   0.648   0.651   0.653   0.653   0.654
  0.657   0.658   0.658   0.664   0.666   0.671   0.674   0.676
  0.678   0.680   0.681   0.682   0.682   0.683   0.692   0.693
  0.697   0.697   0.699   0.700   0.701   0.702   0.707   0.710
  0.715   0.717   0.718   0.722   0.724   0.727   0.729   0.730
  0.731   0.732   0.736   0.742   0.743   0.749   0.750   0.753
  0.756   0.758   0.759   0.761   0.770   0.773   0.774   0.775
  0.776   0.779   0.781   0.784   0.785   0.788   0.790   0.791
  0.793   0.796   0.803   0.805   0.816   0.818   0.822   0.825
  0.829   0.833   0.837   0.843   0.845   0.849   0.853   0.857
  0.866   0.869   0.873   0.875   0.885   0.896   0.898   0.903
  0.906   0.914   0.915   0.918   0.920   0.923   0.924   0.934
  0.936   0.937   0.938   0.940   0.943   0.947   0.948   0.950
  0.953   0.955   0.959   0.963   0.965   0.969   0.969   0.972
  0.974   0.982   0.983   0.984   0.987   0.988   0.989   0.990
  0.991   0.992   0.995   1.000   1.002   1.004   1.005   1.005
  1.006   1.009   1.010   1.012   1.018   1.020   1.024   1.024
  1.026   1.033   1.035   1.035   1.038   1.041   1.041   1.044
  1.046   1.048   1.051   1.054   1.054   1.056   1.057   1.061
  1.065   1.066   1.069   1.071   1.076   1.078   1.079   1.081
  1.081   1.082   1.085   1.086   1.088   1.090   1.097   1.100
  1.108   1.113   1.115   1.118   1.119   1.122   1.124   1.125
  1.128   1.131   1.134   1.136   1.138   1.140   1.141   1.144
  1.145   1.152   1.154   1.157   1.160   1.162   1.164   1.168
  1.169   1.171   1.182   1.185   1.194   1.201   1.202   1.204
  1.208   1.214   1.220   1.227   1.228   1.232   1.235   1.247
  1.249   1.251   1.252   1.261   1.265   1.269   1.273   1.275
  1.278   1.281   1.289   1.293   1.296   1.297   1.299   1.301
  1.305   1.308   1.308   1.311   1.312   1.314   1.314   1.319
  1.319   1.321   1.323   1.333   1.337   1.338   1.344   1.349
  1.353   1.357   1.363   1.366   1.368   1.372   1.372   1.372
  1.373   1.375   1.384   1.388   1.392   1.394   1.396   1.398
  1.403   1.407   1.407   1.411   1.412   1.414   1.434   1.438
  1.439   1.439   1.439   1.451   1.459   1.460   1.469   1.477
  1.479   1.498   1.499   1.500   1.505   1.506   1.509   1.510
  1.511   1.513   1.514   1.516   1.517   1.517   1.522   1.527
  1.528   1.530   1.530   1.531   1.532   1.535   1.537   1.539
  1.542   1.545   1.546   1.548   1.550   1.551   1.552   1.554
  1.555   1.557   1.560   1.560   1.564   1.565   1.568   1.571
  1.576   1.580   1.583   1.585   1.588   1.594   1.595   1.599
  1.600   1.602   1.612   1.630   1.637   1.645   1.650   1.651
  1.658   1.671   1.684   1.693   1.698   1.703   1.738   1.739
  1.741   1.746   1.759   1.766   1.769   1.781   1.791   1.805
  1.805   1.806   1.808   1.809   1.810   1.812   1.813   1.814
  1.823   1.826   1.826   1.829   1.829   1.841   1.846   1.849
  1.851   1.853   1.870   1.877   1.892   1.898   1.899   1.901
  1.903   1.903   1.908   1.916   1.916   1.917   1.920   1.923
  1.924   1.926   1.932   1.933   1.935   1.938   1.940   1.944
  1.946   1.953   1.953   1.954   1.954   1.976   1.981   1.983
  1.984   1.985   1.986   1.990   1.995   2.004   2.005   2.020
  2.030   2.034   2.035   2.038   2.040   2.042   2.043   2.044
  2.051   2.054   2.060   2.062   2.064   2.070   2.072   2.079
  2.083   2.084   2.092   2.096   2.110   2.112   2.117   2.119
  2.122   2.130   2.132   2.134   2.138   2.146   2.147   2.149
  2.150   2.151   2.156   2.158   2.160   2.166   2.167   2.176
  2.185   2.188   2.193   2.198   2.202   2.202   2.203   2.211
  2.217   2.219   2.227   2.228   2.229   2.231   2.232   2.240
  2.242   2.248   2.250   2.255   2.257   2.260   2.261   2.264
  2.268   2.271   2.274   2.276   2.277   2.281   2.281   2.284
  2.287   2.288   2.290   2.292   2.303   2.308   2.317   2.318
  2.319   2.320   2.321   2.335   2.337   2.337   2.338   2.340
  2.344   2.346   2.347   2.348   2.350   2.350   2.356   2.356
  2.358   2.363   2.367   2.370   2.378   2.378   2.384   2.387
  2.389   2.390   2.392   2.398   2.404   2.407   2.412   2.413
  2.416   2.419   2.421   2.429   2.430   2.435   2.445   2.448
  2.455   2.456   2.460   2.469   2.470   2.471   2.473   2.477
  2.489   2.490   2.490   2.493   2.501   2.502   2.513   2.533
  2.538   2.542   2.550   2.569   2.577   2.583   2.597   2.598
  2.611   2.627   2.628   2.630   2.641   2.642   2.643   2.654
  2.655   2.660   2.677   2.679   2.682   2.686   2.697   2.700
  2.708   2.710   2.712   2.715   2.715   2.720   2.721   2.724
  2.729   2.730   2.733   2.735   2.735   2.746   2.753   2.757
  2.766   2.767   2.769   2.771   2.774   2.780   2.785   2.787
  2.790   2.790   2.791   2.791   2.793   2.793   2.804   2.808
  2.813   2.820   2.834   2.835   2.842   2.844   2.845   2.854
  2.866   2.867   2.869   2.870   2.871   2.891   2.894   2.896
  2.899   2.901   2.912   2.913   2.923   2.926   2.932   2.937
  2.941   2.942   2.953   2.969   2.971   2.977   2.981   3.003
  3.004   3.005   3.007   3.011   3.011   3.039   3.049   3.068
  3.082   3.086   3.111   3.132   3.133   3.230   3.252   3.256
  3.271   3.272   3.327   3.331   3.401   3.436   3.440   3.441
  3.442   3.451   3.467   3.491   3.492   3.493   3.565   3.571
  3.611   3.612   3.667   3.680   9.578   9.721  13.139  13.173
 13.217  13.219  13.426  13.428  13.429  13.493  13.510  13.515
 13.525  13.543  13.668  13.672  13.695  13.697  13.715  13.721
 13.727  13.787  13.793  13.802  13.806  13.809  13.851  13.857
 13.884  13.889  13.908  13.922  13.940  13.949  13.950  13.996
 14.000  14.008  14.033  14.042  14.105  14.107  14.122  14.159
 14.161  14.187  14.190  14.193  14.210  14.213  14.214  14.220
 14.229  14.259  14.268  14.269  14.306  14.309  14.321  14.321
 14.333  14.336  14.513  14.516  14.566  14.570  14.571  14.572
 14.584  14.586  14.600  14.602  14.608  14.609  19.572  19.575
 --------------------------------------------------------------
 
          Ground-State Mulliken Net Atomic Charges

     Atom                 Charge (a.u.)
  ----------------------------------------
      1 N                    -0.731725
      2 C                     0.338653
      3 C                     0.329690
      4 C                    -0.297112
      5 H                     0.256339
      6 C                    -0.259095
      7 H                     0.241301
      8 C                    -0.296348
      9 H                     0.254676
     10 C                    -0.258347
     11 H                     0.240893
     12 C                    -0.252087
     13 H                     0.237838
     14 C                    -0.363780
     15 H                     0.232247
     16 C                     0.087022
     17 C                    -0.253617
     18 H                     0.237758
     19 C                    -0.361440
     20 H                     0.232666
     21 C                     0.074421
     22 C                     0.314389
     23 C                    -0.369119
     24 H                     0.253654
     25 C                    -0.360832
     26 H                     0.254111
     27 C                     0.041789
     28 C                     0.045927
     29 C                    -0.211087
     30 C                    -0.772785
     31 H                     0.254013
     32 H                     0.251235
     33 H                     0.253080
     34 C                    -0.770920
     35 H                     0.253191
     36 H                     0.251920
     37 H                     0.250391
     38 B                     0.705940
     39 C                    -0.155238
     40 C                    -0.397950
     41 H                     0.242890
     42 C                     0.094177
     43 C                     0.081182
     44 C                    -0.389400
     45 H                     0.244333
     46 C                    -0.156135
     47 C                     0.182592
     48 C                    -0.387430
     49 H                     0.245857
     50 C                    -0.065341
     51 C                     0.233806
     52 C                     0.182675
     53 C                    -0.393268
     54 H                     0.245800
     55 C                    -0.227538
     56 H                     0.252513
     57 C                    -0.345505
     58 H                     0.248131
     59 C                    -0.225733
     60 H                     0.252348
     61 C                    -0.348002
     62 H                     0.248360
     63 B                     0.706208
     64 C                    -0.156748
     65 C                    -0.391007
     66 H                     0.244913
     67 C                     0.080642
     68 C                     0.089296
     69 C                    -0.389859
     70 H                     0.245270
     71 C                    -0.155681
     72 C                     0.185639
     73 C                    -0.392439
     74 H                     0.245484
     75 C                    -0.065700
     76 C                     0.229827
     77 C                     0.185511
     78 C                    -0.391470
     79 H                     0.245639
     80 C                    -0.345866
     81 H                     0.248395
     82 C                    -0.226163
     83 H                     0.252405
     84 C                    -0.226459
     85 H                     0.252633
     86 C                    -0.344717
     87 H                     0.248346
     88 C                    -0.211931
     89 C                     0.044531
     90 C                    -0.361653
     91 H                     0.253388
     92 C                     0.319082
     93 C                    -0.370398
     94 H                     0.253499
     95 C                     0.041384
     96 N                    -0.735829
     97 C                     0.333315
     98 C                     0.339993
     99 C                    -0.296638
    100 H                     0.254653
    101 C                    -0.258025
    102 H                     0.241032
    103 C                    -0.296486
    104 H                     0.254663
    105 C                    -0.257468
    106 H                     0.241045
    107 C                    -0.253312
    108 H                     0.238024
    109 C                    -0.359073
    110 H                     0.232317
    111 C                     0.080058
    112 C                    -0.253676
    113 H                     0.238034
    114 C                    -0.357957
    115 H                     0.232537
    116 C                     0.071117
    117 C                    -0.772088
    118 H                     0.253793
    119 H                     0.252869
    120 H                     0.250359
    121 C                    -0.768822
    122 H                     0.252641
    123 H                     0.250933
    124 H                     0.252022
  ----------------------------------------
  Sum of atomic charges =    -0.000000

 -----------------------------------------------------------------
                    Cartesian Multipole Moments
 -----------------------------------------------------------------
    Charge (ESU x 10^10)
                -0.0000
    Dipole Moment (Debye)
         X      -0.1302      Y       0.3502      Z      -0.1146
       Tot       0.3908
    Quadrupole Moments (Debye-Ang)
        XX    -407.7916     XY     -34.2494     YY    -409.8535
        XZ     -25.9080     YZ      18.3546     ZZ    -413.9344
    Octopole Moments (Debye-Ang^2)
       XXX    6723.3872    XXY     969.3064    XYY    2194.5664
       YYY    1569.4798    XXZ    2127.8383    XYZ      72.9630
       YYZ    1785.6199    XZZ    2439.6687    YZZ     346.4549
       ZZZ    5925.3506
    Hexadecapole Moments (Debye-Ang^3)
      XXXX -130234.7745   XXXY  -14596.5530   XXYY  -24978.8559
      XYYY   -8463.4224   YYYY  -21370.2137   XXXZ  -46278.9686
      XXYZ   -6695.5286   XYYZ  -15046.0942   YYYZ  -15576.2582
      XXZZ  -38930.4968   XYZZ   -3184.5237   YYZZ  -17722.2040
      XZZZ  -46315.6439   YZZZ  -14667.6900   ZZZZ  -99782.2322
 -----------------------------------------------------------------
 Calculating analytic gradient of the SCF energy
 -3.245021611285766E-004 -3.244881173318157E-004
 -3.245027883795057E-004 -3.244875628504072E-004
 -3.244908043098346E-004 -3.244994598327572E-004
 -3.244671373465445E-004 -3.245231155871819E-004
 -3.244995867048689E-004 -3.244907508760254E-004
 -3.245025633819828E-004 -3.244877177384788E-004
 -3.244876599749838E-004 -3.245026099872322E-004
 -3.244942213045314E-004 -3.244961148624806E-004
 -3.244636225638724E-004 -3.245266306548596E-004
 -3.244978070188614E-004 -3.244924643808656E-004
 -3.245024872771253E-004 -3.244878607014921E-004
 -3.244665459133374E-004 -3.245237137023124E-004
 -3.244707724986336E-004 -3.245194730594267E-004
 -3.244980344319842E-004 -3.244922752157563E-004
 -3.244986056882448E-004 -3.244916811984656E-004
 -3.244743817549259E-004 -3.245158675596770E-004
 -3.244961973269360E-004 -3.244941354302483E-004
 -3.245204540282382E-004 -3.244698263454262E-004
 -3.244928205510271E-004 -3.244974335130041E-004
 -3.244919850191256E-004 -3.244982890212026E-004
 -3.244797556260761E-004 -3.245105093616386E-004
 -3.244754294128928E-004 -3.245148361759305E-004
 -3.244943987080768E-004 -3.244959409053171E-004
 -3.245031855202076E-004 -3.244870664805168E-004
 -3.244865785992644E-004 -3.245037044775506E-004
 -3.245036813271537E-004 -3.244866279223305E-004
 -3.244714585570095E-004 -3.245187843172391E-004
 -3.244989759820707E-004 -3.244912914145511E-004
 -3.244908184520542E-004 -3.244995092329446E-004
 -3.244643522197889E-004 -3.245259006889355E-004
 -3.244818893072141E-004 -3.245083570965851E-004
 -3.244980608975448E-004 -3.244922109284840E-004
 -3.244965416904313E-004 -3.244937202587075E-004
 -3.244865373535758E-004 -3.245037227655071E-004
 -3.244916342999060E-004 -3.244986977821378E-004
 -3.245230404367168E-004 -3.244672348025601E-004
 -3.244984784299394E-004 -3.244917969447813E-004
 -3.244906460764542E-004 -3.244996537637729E-004
 -3.244903337305058E-004 -3.244999383895334E-004
 -3.244960513601058E-004 -3.244942148541072E-004
 -3.244903232414309E-004 -3.245000071509601E-004
 -3.244721682079532E-004 -3.245180757373691E-004
 -3.244972797292170E-004 -3.244929933458058E-004
 -3.244914853306691E-004 -3.244988196331201E-004
 -3.245117959677268E-004 -3.244784424996949E-004
 -3.244981477079908E-004 -3.244921169917899E-004
 -3.244919623429936E-004 -3.244983685355596E-004
 -3.245234405212315E-004 -3.244668216624866E-004
 -3.245141229453541E-004 -3.244761479109237E-004
 -3.244944787391645E-004 -3.244958518326774E-004
 -3.244740417010804E-004 -3.245162067380970E-004
 -3.244949944794551E-004 -3.244952944565617E-004
 -3.244918400607854E-004 -3.244984629551661E-004
 -3.245020226091155E-004 -3.244882308165530E-004
 -3.244813464819450E-004 -3.245088989216511E-004
 -3.244937032695492E-004 -3.244966246077085E-004
 -3.245158948750717E-004 -3.244743715275945E-004
 -3.245081163382880E-004 -3.244821141210745E-004
 -3.244924530182874E-004 -3.244978443880466E-004
 -3.244890644727354E-004 -3.245012176655242E-004
 -3.245214109320832E-004 -3.244688490115094E-004
 -3.244951255542371E-004 -3.244952107156385E-004
 -3.244793713121126E-004 -3.245108888308387E-004
 -3.244612682663907E-004 -3.245289942535686E-004
 -3.244953720515554E-004 -3.244949234864450E-004
 -3.244700395076031E-004 -3.245202180882069E-004
 -3.245110258751875E-004 -3.244792539329588E-004
 -3.245105728168940E-004 -3.244796742273763E-004
 -3.245162712621781E-004 -3.244739927109665E-004
 -3.244845933341331E-004 -3.245056853275236E-004
 -3.245039803886048E-004 -3.244862561023784E-004
 -3.244892480174738E-004 -3.245010069111803E-004
 -3.245168277407770E-004 -3.244734542513949E-004
 -3.244839282241383E-004 -3.245063192107972E-004
 -3.245078098529047E-004 -3.244824584003070E-004
 -3.244918144075027E-004 -3.244984573055383E-004
 -3.244758788688515E-004 -3.245143515564903E-004
 -3.244807229905287E-004 -3.245095498873669E-004
 -3.244555827942688E-004 -3.245346870741559E-004
 -3.244649593917597E-004 -3.245253045193292E-004
 -3.244789413414870E-004 -3.245113185616407E-004
 -3.244690851834701E-004 -3.245211758539027E-004
 -3.245134418968265E-004 -3.244768169133378E-004
 -3.244582404257444E-004 -3.245320320431200E-004
 -3.245125530925686E-004 -3.244777123703576E-004
 -3.244956819443871E-004 -3.244945886193898E-004
 -3.245133278377019E-004 -3.244769412696169E-004
 -3.245007985034049E-004 -3.244894768884358E-004
 -3.245044862692863E-004 -3.244857613851770E-004
 -3.244819801121699E-004 -3.245082830883472E-004
 -3.244888518413381E-004 -3.245014266038846E-004
 -3.244959740897991E-004 -3.244942661380250E-004
 -3.244790829378559E-004 -3.245111890075132E-004
 -3.244817850074027E-004 -3.245084835062834E-004
 -3.245018185739451E-004 -3.244884497258007E-004
 -3.244956764921040E-004 -3.244945864423767E-004
 -3.244996051468188E-004 -3.244906613455945E-004
 -3.244877030198401E-004 -3.245025513019684E-004
 -3.244837525848510E-004 -3.245065217572616E-004
 -3.244911558471095E-004 -3.244991077046483E-004
 -3.244773402226294E-004 -3.245129019816311E-004
 -3.244971428167072E-004 -3.244931384699945E-004
 -3.244855358615596E-004 -3.245047381052198E-004
 -3.244868697965733E-004 -3.245033710896756E-004
 -3.244896121022402E-004 -3.245006606433872E-004
 -3.244842150177258E-004 -3.245060649659857E-004
 -3.244962061149894E-004 -3.244940524280708E-004
 -3.244940207415396E-004 -3.244962538308181E-004
 -3.244968515163230E-004 -3.244934050124983E-004
 -3.244858392397386E-004 -3.245044288552558E-004
 -3.244814828319172E-004 -3.245087700637715E-004
 -3.245009606898980E-004 -3.244893228217606E-004
 -3.244920182563676E-004 -3.244983065799127E-004
 -3.244940226603877E-004 -3.244962781571440E-004
 -3.245044735198849E-004 -3.244858055708452E-004
 -3.245030727132769E-004 -3.244872608903036E-004
 -3.245110931417646E-004 -3.244792108978200E-004
 -3.245001661504904E-004 -3.244901029063788E-004
 -3.244859657219138E-004 -3.245043696715207E-004
 -3.244894555987563E-004 -3.245008574729517E-004
 -3.245114104594132E-004 -3.244788611775451E-004
 -3.244969764816710E-004 -3.244933315642758E-004
 -3.245082346280774E-004 -3.244820558507942E-004
 -3.245132399253981E-004 -3.244770377656855E-004
 -3.244895595799652E-004 -3.245007742850086E-004
 -3.244979138069997E-004 -3.244923876229381E-004
 -3.244934588761107E-004 -3.244968041281155E-004
 -3.244824465121174E-004 -3.245078910838413E-004
 -3.244771106779115E-004 -3.245131979269774E-004
 -3.245011475993493E-004 -3.244891301088381E-004
 -3.244924391046813E-004 -3.244978979454220E-004
 -3.244916160685603E-004 -3.244986883758234E-004
 -3.244834466304593E-004 -3.245068309437638E-004
 -3.244882701840350E-004 -3.245020358453346E-004
 -3.244794390262671E-004 -3.245108506100009E-004
 -3.244789930173308E-004 -3.245112745386544E-004
 -3.244926867139517E-004 -3.244976526469786E-004
 -3.244820466917229E-004 -3.245082619594617E-004
 -3.244914799847547E-004 -3.244987865777220E-004
 -3.244880576128597E-004 -3.245022732392364E-004
 -3.244833932675991E-004 -3.245069000120933E-004
 -3.245003721130539E-004 -3.244898880241159E-004
 -3.244739947156000E-004 -3.245163381977891E-004
 -3.244710545017115E-004 -3.245192619542178E-004
 -3.244930546615669E-004 -3.244972051625302E-004
 -3.244858772333374E-004 -3.245044185654222E-004
 -3.244880337490560E-004 -3.245022532437316E-004
 -3.245062707559092E-004 -3.244840063068071E-004
 -3.244848088245070E-004 -3.245055279718506E-004
 -3.244876159695742E-004 -3.245026971833802E-004
 -3.244706437005772E-004 -3.245196188912953E-004
 -3.245153564478652E-004 -3.244749593028176E-004
 -3.245106108741418E-004 -3.244796767357222E-004
 -3.245061461064893E-004 -3.244841132285352E-004
 -3.244932188473515E-004 -3.244971136803873E-004
 -3.245002542749073E-004 -3.244900453722806E-004
 -3.245248195068381E-004 -3.244654617903895E-004
 -3.244816506935510E-004 -3.245086738466235E-004
 -3.244924990170804E-004 -3.244977961257826E-004
 -3.245062409696943E-004 -3.244840285281728E-004
 -3.244971280916202E-004 -3.244931604802386E-004
 -3.244966823709659E-004 -3.244935899976381E-004
 -3.244695403206183E-004 -3.245207258568398E-004
 -3.245056366923836E-004 -3.244846821008911E-004
 -3.244980216698706E-004 -3.244922563750518E-004
 -3.245022420128431E-004 -3.244880168551903E-004
 -3.244870272280427E-004 -3.245032480213626E-004
 -3.244899483695703E-004 -3.245003057822997E-004
 -3.245129041840344E-004 -3.244773452603425E-004
 -3.244853188363934E-004 -3.245049942375386E-004
 -3.244906215983983E-004 -3.244996767843352E-004
 -3.244847622697489E-004 -3.245054919167501E-004
 -3.245052689352520E-004 -3.244850155508465E-004
 -3.245036431907988E-004 -3.244866476817903E-004
 -3.244831894978128E-004 -3.245070625328496E-004
 -3.245135375189379E-004 -3.244767879879832E-004
 -3.245137163937465E-004 -3.244765723870883E-004
 -3.245038428005020E-004 -3.244864025723888E-004
 -3.244886028067561E-004 -3.245016785837824E-004
 -3.244894135707575E-004 -3.245008595025638E-004
 -3.245071440514138E-004 -3.244831200564910E-004
 -3.244823239081908E-004 -3.245079824890344E-004
 -3.244844018309210E-004 -3.245058801843305E-004
 -3.244828431299301E-004 -3.245074283095169E-004
 -3.245045553275197E-004 -3.244857229208260E-004
 -3.245018621320376E-004 -3.244884157672044E-004
 -3.244929428567289E-004 -3.244973367216820E-004
 -3.244951849262098E-004 -3.244951425693124E-004
 -3.244936763545991E-004 -3.244966256528994E-004
 -3.244849801117574E-004 -3.245052980974313E-004
 -3.244846324863201E-004 -3.245057119685518E-004
 -3.244759104820023E-004 -3.245143938083853E-004
 -3.244944822613995E-004 -3.244957844618009E-004
 -3.244995170557865E-004 -3.244908297609063E-004
 -3.245035958349496E-004 -3.244867153330302E-004
 -3.244766181296179E-004 -3.245136519383163E-004
 -3.244907590857544E-004 -3.244995537564877E-004
 -3.244840021081808E-004 -3.245062954074308E-004
 -3.244713051939552E-004 -3.245189733202468E-004
 -3.244974640463555E-004 -3.244928757243676E-004
 -3.244885158025871E-004 -3.245017831189840E-004
 -3.245018701740745E-004 -3.244883960076062E-004
 -3.245108204597325E-004 -3.244795208931333E-004
 -3.245188357968703E-004 -3.244714687497367E-004
 -3.244919259078360E-004 -3.244983547223560E-004
 -3.244963424123533E-004 -3.244939984700212E-004
 -3.244929440847571E-004 -3.244973586872437E-004
 -3.245065937226536E-004 -3.244836853349079E-004
 -3.245032359312465E-004 -3.244870772093318E-004
 -3.245096914077488E-004 -3.244805953453954E-004
 -3.245162417726422E-004 -3.244740339642797E-004
 -3.244989084279266E-004 -3.244914355766738E-004
 -3.245075008492104E-004 -3.244828048759116E-004
 -3.244912686965264E-004 -3.244990023460257E-004
 -3.245069097372351E-004 -3.244834289087026E-004
 -3.245089067046597E-004 -3.244813862166498E-004
 -3.244959691376809E-004 -3.244942910294001E-004
 -3.245131638634180E-004 -3.244771708027045E-004
 -3.245252126069763E-004 -3.244651082700006E-004
 -3.244906027833161E-004 -3.244996562123327E-004
 -3.245006994602867E-004 -3.244895958896898E-004
 -3.245069072293157E-004 -3.244833869742685E-004
 -3.244866534753857E-004 -3.245036299974523E-004
 -3.245031450730730E-004 -3.244871992127239E-004
 -3.245030453609120E-004 -3.244872719163009E-004
 -3.245145362972604E-004 -3.244757253689736E-004
 -3.244783583081853E-004 -3.245119643416283E-004
 -3.244816382104848E-004 -3.245086488451836E-004
 -3.244779225989206E-004 -3.245123350508151E-004
 -3.245017940674117E-004 -3.244885464941895E-004
 -3.244984311976786E-004 -3.244918692194342E-004
 -3.244642693096911E-004 -3.245260186762975E-004
 -3.245040781291078E-004 -3.244862494897497E-004
 -3.244932502734295E-004 -3.244970477917572E-004
 -3.244836296377898E-004 -3.245066448631801E-004
 -3.245026874517278E-004 -3.244876045323100E-004
 -3.244930144433164E-004 -3.244972635918538E-004
 -3.244795172064127E-004 -3.245107259978526E-004
 -3.245031983742332E-004 -3.244871278825664E-004
 -3.245006510781927E-004 -3.244896589903321E-004
 -3.245062059524404E-004 -3.244840470252342E-004
 -3.244849068887477E-004 -3.245053806303996E-004
 -3.244868265535835E-004 -3.245034654118814E-004
 -3.245158931919025E-004 -3.244743705647741E-004
 -3.244865167815657E-004 -3.245038079753190E-004
 -3.244959188145929E-004 -3.244943624706753E-004
 -3.244904197676709E-004 -3.244998300416959E-004
 -3.244993721262828E-004 -3.244909044941624E-004
 -3.245032632062270E-004 -3.244869939588982E-004
 -3.244985348072338E-004 -3.244917148903722E-004
 -3.244809171110487E-004 -3.245094098769173E-004
 -3.244768074074169E-004 -3.245134802738399E-004
 -3.244869491174938E-004 -3.245032940660285E-004
 -3.245016060123941E-004 -3.244886749304473E-004
 -3.244985594064417E-004 -3.244917004800613E-004
 -3.244860393208697E-004 -3.245042369062634E-004
 -3.245054529153580E-004 -3.244848587058779E-004
 -3.245065549155299E-004 -3.244837252391839E-004
 -3.245066966575022E-004 -3.244835791865310E-004
 -3.244849296815036E-004 -3.245053494197432E-004
 -3.244874298700186E-004 -3.245028468672161E-004
 -3.244768650792808E-004 -3.245134004233406E-004
 -3.244862489543409E-004 -3.245040188295660E-004
 -3.244805976387211E-004 -3.245096734565478E-004
 -3.245359123691604E-004 -3.244543569615217E-004
 -3.245259830970159E-004 -3.244642750712309E-004
 -3.245028496826529E-004 -3.244874135416804E-004
 -3.244867961656727E-004 -3.245034712945986E-004
 -3.244868723886278E-004 -3.245033708016602E-004
 -3.244705225142054E-004 -3.245197612125197E-004
 -3.245159333487987E-004 -3.244743252918676E-004
 -3.244974732695914E-004 -3.244927665076743E-004
 -3.244907803922442E-004 -3.244994956310884E-004
 -3.245240453690257E-004 -3.244662339217487E-004
 -3.245076017879548E-004 -3.244826561096516E-004
 -3.245233569312643E-004 -3.244669238871987E-004
 -3.244668504521014E-004 -3.245234453872081E-004
 -3.244883101542812E-004 -3.245019400969153E-004
 -3.244893271715013E-004 -3.245009229111335E-004
 -3.244951713808323E-004 -3.244951117028312E-004
 -3.244995949459688E-004 -3.244906571381280E-004
 -3.245122725950117E-004 -3.244779645696878E-004
 -3.245175664555144E-004 -3.244727066885574E-004
 -3.244898136018321E-004 -3.245004395873077E-004
 -3.245399982955908E-004 -3.244502683043654E-004
 -3.244895773704528E-004 -3.245007448484588E-004
 -3.244902495587965E-004 -3.244999980804090E-004
 -3.244970990593520E-004 -3.244932269575619E-004
 -3.245197118505522E-004 -3.244705909333029E-004
 -3.244806895373084E-004 -3.245095694006983E-004
 -3.245107628338757E-004 -3.244795393448862E-004
 -3.244969759064426E-004 -3.244933362601469E-004
 -3.245202631587505E-004 -3.244699821097556E-004
 -3.245144827656886E-004 -3.244758278364978E-004
 -3.245095784212171E-004 -3.244807234359929E-004
 -3.244756090786904E-004 -3.245146411122984E-004
 -3.245097638721293E-004 -3.244805597251252E-004
 -3.245013548322716E-004 -3.244889352954499E-004
 -3.245144573970984E-004 -3.244757949283412E-004
 -3.245073682404904E-004 -3.244829313555776E-004
 -3.244857020483469E-004 -3.245045943900449E-004
 -3.245262395074138E-004 -3.244640222753460E-004
 -3.245015292545428E-004 -3.244887694645998E-004
 -3.245081766351896E-004 -3.244820851589724E-004
 -3.244889983964157E-004 -3.245012697354783E-004
 -3.244995954111355E-004 -3.244906603497556E-004
 -3.244965830693387E-004 -3.244937253287543E-004
 -3.245177441478721E-004 -3.244725139100555E-004
 -3.245026535147904E-004 -3.244876437051005E-004
 -3.245109970748154E-004 -3.244792852769707E-004
 -3.244847117175468E-004 -3.245055670890294E-004
 -3.245126053203332E-004 -3.244776713275120E-004
 -3.245182389353582E-004 -3.244720485442184E-004
 -3.244719459668533E-004 -3.245183290419987E-004
 -3.244993149359622E-004 -3.244909704179140E-004
 -3.244965446008526E-004 -3.244937144586293E-004
 -3.245067035341035E-004 -3.244835554697936E-004
 -3.245035760629593E-004 -3.244866858315188E-004
 -3.244801507234394E-004 -3.245101647620850E-004
 -3.245201903367327E-004 -3.244700674520107E-004
 -3.244883587486131E-004 -3.245019322485763E-004
 -3.244985299647682E-004 -3.244917654384400E-004
 -3.244903543051852E-004 -3.244999068710814E-004
 -3.244915892402704E-004 -3.244987023682904E-004
 -3.245110935702214E-004 -3.244791964750855E-004
 -3.244777449496712E-004 -3.245125217472812E-004
 -3.244976000082117E-004 -3.244926830546855E-004
 -3.244851996242996E-004 -3.245050646537946E-004
 -3.245046717841823E-004 -3.244856099064737E-004
 -3.244867532780301E-004 -3.245035129746687E-004
 -3.244746993092626E-004 -3.245156050178862E-004
 -3.245129047103527E-004 -3.244773520296696E-004
 -3.244826227007082E-004 -3.245076770365636E-004
 -3.245022501684178E-004 -3.244880340618312E-004
 -3.244666719034299E-004 -3.245235934250175E-004
 -3.244907193651619E-004 -3.244995883483437E-004
 -3.244920744739710E-004 -3.244982103337931E-004
 -3.245003373269595E-004 -3.244899288491643E-004
 -3.244914009163421E-004 -3.244988941271450E-004
 -3.244871936107550E-004 -3.245031002480750E-004
 -3.245178051753251E-004 -3.244724466793246E-004
 -3.244971341921611E-004 -3.244931600116346E-004
 -3.244956502009531E-004 -3.244946346025426E-004
 -3.244816879434089E-004 -3.245085657143961E-004
 -3.244878852457588E-004 -3.245023862045148E-004
 -3.244946701441427E-004 -3.244956317812943E-004
 -3.244654616973067E-004 -3.245247915037187E-004
 -3.244855121547037E-004 -3.245047938563603E-004
 -3.245036420427411E-004 -3.244866329908435E-004
 -3.245061025482163E-004 -3.244841374796274E-004
 -3.244876279457833E-004 -3.245026426031562E-004
 -3.245073658891828E-004 -3.244829146261718E-004
 -3.245049735671565E-004 -3.244852753306488E-004
 -3.245001162250413E-004 -3.244901410153915E-004
 -3.244958087329947E-004 -3.244944574985872E-004
 -3.245047021084299E-004 -3.244855652895414E-004
 -3.245040453020367E-004 -3.244862288864737E-004
 -3.245108773460595E-004 -3.244793916066405E-004
 -3.244895140857892E-004 -3.245007323214983E-004
 -3.244927845974981E-004 -3.244974814607672E-004
 -3.244948373157817E-004 -3.244954460250360E-004
 -3.244806256185263E-004 -3.245096212823980E-004
 -3.245068421942646E-004 -3.244834150232908E-004
 -3.245032675555834E-004 -3.244870111551793E-004
 -3.244932556219762E-004 -3.244969922888064E-004
 -3.245058748268288E-004 -3.244843905150865E-004
 -3.244944286542808E-004 -3.244958432437851E-004
 -3.245052099494359E-004 -3.244850420607517E-004
 -3.245074385993828E-004 -3.244828365255274E-004
 -3.245040384529155E-004 -3.244862357698827E-004
 -3.244900243946602E-004 -3.245002412061295E-004
 -3.244944504384298E-004 -3.244958047608081E-004
 Gradient of SCF Energy
            1           2           3           4           5           6
    1   0.0013831  -0.0026963  -0.0014481   0.0037071  -0.0007267   0.0036329
    2  -0.0000481   0.0005861   0.0005813  -0.0000028  -0.0001052  -0.0000895
    3   0.0012464  -0.0000085  -0.0013371   0.0009696   0.0000741  -0.0032704
            7           8           9          10          11          12
    1  -0.0007860   0.0030486  -0.0002046  -0.0011763   0.0006904  -0.0036495
    2  -0.0001146  -0.0002016  -0.0003227   0.0001832  -0.0001663  -0.0000571
    3   0.0006808   0.0023342  -0.0010584   0.0046124  -0.0014273   0.0007258
           13          14          15          16          17          18
    1   0.0008770  -0.0036631   0.0007111   0.0011310  -0.0002639   0.0001308
    2  -0.0000658  -0.0002051  -0.0000916   0.0006525  -0.0001172  -0.0000762
    3  -0.0003370  -0.0039673   0.0002651  -0.0016371  -0.0039742   0.0006198
           19          20          21          22          23          24
    1  -0.0046048   0.0007789  -0.0005608   0.0014116  -0.0009921   0.0007427
    2  -0.0002515  -0.0000638  -0.0003308   0.0001163  -0.0030325   0.0012532
    3  -0.0021418   0.0002445   0.0039807   0.0011843   0.0020687  -0.0005593
           25          26          27          28          29          30
    1   0.0001956   0.0001524   0.0010993   0.0008483   0.0002976   0.0008894
    2   0.0020720  -0.0009486   0.0002863  -0.0007379  -0.0000476   0.0025636
    3  -0.0017037   0.0004438   0.0007791   0.0014141  -0.0002661  -0.0018568
           31          32          33          34          35          36
    1   0.0003968  -0.0009826  -0.0002075  -0.0009196   0.0015435  -0.0006782
    2  -0.0011679  -0.0002139  -0.0009713  -0.0020128   0.0015461   0.0004891
    3   0.0016881   0.0001194  -0.0003492   0.0011401   0.0000813  -0.0003036
           37          38          39          40          41          42
    1   0.0001332  -0.0000111  -0.0012775  -0.0025888   0.0010134  -0.0016605
    2  -0.0002144   0.0002276   0.0003769  -0.0008179   0.0002139  -0.0008810
    3  -0.0011524  -0.0000479   0.0002004  -0.0022978   0.0008321  -0.0010921
           43          44          45          46          47          48
    1   0.0001780   0.0018217  -0.0008317  -0.0000271  -0.0016442   0.0027963
    2   0.0000227   0.0013642  -0.0005194   0.0010036   0.0003065   0.0021465
    3   0.0004113   0.0024230  -0.0010944   0.0009543  -0.0000053   0.0041149
           49          50          51          52          53          54
    1  -0.0010251  -0.0019869   0.0002181  -0.0002339  -0.0046646   0.0033771
    2  -0.0017204   0.0005592   0.0001228   0.0011540   0.0001034  -0.0002679
    3  -0.0028186   0.0008492   0.0000025   0.0009249  -0.0023277   0.0012383
           55          56          57          58          59          60
    1   0.0046056  -0.0032236   0.0044145  -0.0026230  -0.0012126   0.0013322
    2  -0.0002736   0.0001856  -0.0033879   0.0020593  -0.0018841   0.0017577
    3   0.0016636  -0.0013140  -0.0025145   0.0014092  -0.0035261   0.0029122
           61          62          63          64          65          66
    1   0.0038648  -0.0018998   0.0007922   0.0004499   0.0024734  -0.0007375
    2  -0.0035421   0.0023515   0.0001226  -0.0000224   0.0004669  -0.0005262
    3  -0.0029998   0.0021167   0.0001340   0.0002156   0.0015645  -0.0012893
           67          68          69          70          71          72
    1  -0.0018346  -0.0026336  -0.0014418   0.0009145   0.0002444   0.0003526
    2   0.0014954   0.0009779  -0.0007929   0.0002750  -0.0003658  -0.0007623
    3   0.0019100   0.0002755  -0.0019933   0.0005768  -0.0001552  -0.0006237
           73          74          75          76          77          78
    1  -0.0022110   0.0013799  -0.0015046   0.0005578   0.0009841   0.0057037
    2  -0.0023084   0.0012647   0.0004298  -0.0000988  -0.0011393  -0.0000421
    3  -0.0043314   0.0022795  -0.0000795   0.0000042  -0.0013178   0.0022665
           79          80          81          82          83          84
    1  -0.0027433  -0.0035853   0.0028180  -0.0036213   0.0033537   0.0022577
    2  -0.0000296   0.0032609  -0.0020950   0.0002193  -0.0002888   0.0018897
    3  -0.0012979   0.0028680  -0.0016657  -0.0013598   0.0010283   0.0036255
           85          86          87          88          89          90
    1  -0.0010981  -0.0028903   0.0021464  -0.0001940  -0.0004220  -0.0000305
    2  -0.0017821   0.0032542  -0.0023560  -0.0001257  -0.0004937  -0.0024657
    3  -0.0028786   0.0031760  -0.0022583   0.0001778  -0.0001588   0.0021969
           91          92          93          94          95          96
    1   0.0000101  -0.0005202   0.0015039  -0.0006629  -0.0001711  -0.0014260
    2   0.0005345  -0.0001830   0.0024002  -0.0009801   0.0000527  -0.0005003
    3  -0.0012271  -0.0005890  -0.0011266   0.0001190  -0.0002112  -0.0015556
           97          98          99         100         101         102
    1  -0.0007360  -0.0015872  -0.0021282   0.0003210   0.0008049  -0.0003195
    2  -0.0026289  -0.0003698  -0.0015949   0.0007638  -0.0045645   0.0013128
    3   0.0009173   0.0004324  -0.0028885   0.0002759  -0.0014898   0.0000929
          103         104         105         106         107         108
    1  -0.0025108   0.0006419  -0.0030061   0.0007210   0.0006615  -0.0000605
    2  -0.0000662  -0.0001512   0.0036388  -0.0010252   0.0036459  -0.0006750
    3  -0.0029961   0.0002628  -0.0009563   0.0000068   0.0016489  -0.0004568
          109         110         111         112         113         114
    1   0.0038554  -0.0004526   0.0014440   0.0029309  -0.0005668   0.0030815
    2   0.0004055  -0.0001223  -0.0020303  -0.0017995   0.0005233   0.0027849
    3   0.0030907  -0.0006620   0.0006805   0.0016959  -0.0003864   0.0031895
          115         116         117         118         119         120
    1  -0.0003904  -0.0007253   0.0011740  -0.0014481  -0.0000873   0.0007537
    2  -0.0001486   0.0033921   0.0027525  -0.0016273   0.0001351  -0.0008666
    3  -0.0006462   0.0010663  -0.0017161   0.0002798   0.0006109   0.0002785
          121         122         123         124
    1  -0.0001584  -0.0004900   0.0002108   0.0008998
    2  -0.0022153   0.0013440   0.0007522  -0.0001853
    3   0.0020320  -0.0018136   0.0002390  -0.0004241
 Max gradient component =       5.704E-03
 RMS gradient           =       1.728E-03
 Computing fast IEFPCM-SWIG gradient.
 Updating gradient with PCM contributions...
 -- total gradient after adding PCM contribution --
---------------------------------------------------
  Atom         X              Y              Z     
---------------------------------------------------
   1      -0.001237      -0.000220      -0.000739
   2      -0.002375       0.000605      -0.000071
   3      -0.001443       0.000719      -0.001099
   4       0.001110      -0.000298      -0.000225
   5       0.000167      -0.000017      -0.000150
   6       0.000739      -0.000129      -0.000882
   7       0.000256      -0.000074      -0.000156
   8       0.001088      -0.000020       0.000032
   9       0.000028      -0.000302       0.000102
  10       0.000196      -0.000077       0.000920
  11       0.000159      -0.000058       0.000065
  12      -0.000572      -0.000116      -0.000176
  13      -0.000109      -0.000032      -0.000104
  14      -0.000907      -0.000281      -0.001196
  15       0.000069      -0.000087      -0.000371
  16      -0.000710       0.000641       0.000643
  17      -0.000101      -0.000187      -0.000846
  18       0.000040      -0.000061      -0.000263
  19      -0.001039      -0.000220      -0.000453
  20      -0.000015      -0.000057      -0.000130
  21       0.000967      -0.000046       0.001550
  22       0.002049       0.000241       0.001769
  23      -0.000192      -0.000988       0.000458
  24       0.000166      -0.000107       0.000177
  25      -0.000637       0.000216      -0.000306
  26       0.000472       0.000188      -0.000232
  27       0.000917       0.000216       0.000471
  28       0.000716      -0.000834       0.001374
  29       0.000247       0.000088      -0.000340
  30       0.000153       0.000446      -0.000222
  31      -0.000063      -0.000002      -0.000048
  32      -0.000046      -0.000140      -0.000117
  33      -0.000167      -0.000290      -0.000039
  34       0.000050       0.000312      -0.000245
  35       0.000024      -0.000175       0.000032
  36      -0.000007      -0.000123      -0.000216
  37      -0.000108      -0.000030      -0.000113
  38      -0.000014       0.000176      -0.000023
  39      -0.000600       0.000156       0.000253
  40      -0.000848      -0.000132      -0.000713
  41       0.000333      -0.000443      -0.000274
  42      -0.001716      -0.000175      -0.000175
  43      -0.000904       0.000386       0.000387
  44       0.000115       0.000834       0.000959
  45       0.000372      -0.000530      -0.000512
  46      -0.000010       0.000508       0.000390
  47      -0.001059      -0.000212      -0.000419
  48       0.000768       0.000193       0.000507
  49       0.000224      -0.000078       0.000004
  50      -0.002119       0.000694       0.000959
  51       0.000313       0.000021      -0.000086
  52       0.000343       0.000604       0.000503
  53      -0.000580       0.000196      -0.000261
  54       0.000105      -0.000118      -0.000131
  55       0.000928       0.000018       0.000306
  56       0.000201      -0.000026       0.000048
  57       0.001036      -0.000888      -0.000816
  58       0.000186      -0.000154      -0.000188
  59       0.000045       0.000102      -0.000317
  60       0.000068      -0.000064      -0.000089
  61       0.001399      -0.000666      -0.000365
  62       0.000338      -0.000080      -0.000028
  63       0.000802       0.000145       0.000123
  64      -0.000295       0.000176       0.000191
  65       0.000827      -0.000065      -0.000007
  66      -0.000156       0.000017      -0.000227
  67      -0.001783       0.000767       0.000937
  68      -0.001447       0.000601       0.000275
  69       0.000140      -0.000254      -0.000581
  70      -0.000181       0.000208       0.000124
  71       0.000230       0.000047       0.000514
  72      -0.000384      -0.000186      -0.000157
  73      -0.000136      -0.000478      -0.000967
  74       0.000145      -0.000234      -0.000232
  75      -0.001316       0.000294      -0.000199
  76       0.000414       0.000019       0.000107
  77       0.000371      -0.000547      -0.000778
  78       0.001710      -0.000239       0.000355
  79       0.000348      -0.000085      -0.000114
  80      -0.000271       0.000786       0.000924
  81       0.000108       0.000011       0.000052
  82       0.000019      -0.000040      -0.000185
  83       0.000047      -0.000109      -0.000116
  84       0.000958      -0.000044       0.000468
  85       0.000159      -0.000041      -0.000006
  86      -0.000390       0.000479       0.000464
  87      -0.000037      -0.000048      -0.000056
  88      -0.000185      -0.000074       0.000179
  89      -0.000220      -0.000572       0.000015
  90       0.000518      -0.000406       0.000837
  91      -0.000343      -0.000532      -0.000255
  92      -0.001144      -0.000359      -0.001171
  93       0.000990       0.000259       0.000389
  94      -0.000127       0.000222      -0.000729
  95       0.000010       0.000215      -0.000111
  96       0.000777       0.000399       0.000653
  97      -0.000929      -0.002487       0.000953
  98      -0.001591      -0.000605       0.000366
  99      -0.000322      -0.000160      -0.001070
 100       0.000082      -0.000161      -0.000219
 101       0.000014      -0.000913      -0.000769
 102      -0.000042      -0.000078      -0.000178
 103      -0.000512       0.000028      -0.000853
 104      -0.000109       0.000339      -0.000246
 105      -0.000823       0.000607      -0.000497
 106      -0.000128       0.000114      -0.000180
 107       0.000385       0.000814       0.000095
 108       0.000049       0.000146       0.000038
 109       0.001050       0.000072       0.000315
 110       0.000189      -0.000030      -0.000018
 111       0.000507       0.000579       0.000867
 112       0.000639      -0.000057       0.000235
 113       0.000134       0.000032       0.000073
 114       0.000810       0.001041       0.000442
 115       0.000128       0.000262       0.000012
 116       0.000329       0.000836       0.001347
 117       0.000396       0.000439      -0.000191
 118       0.000075       0.000008       0.000050
 119       0.000064      -0.000025      -0.000159
 120      -0.000045      -0.000140       0.000044
 121       0.000372      -0.000142       0.000248
 122       0.000142       0.000316       0.000027
 123       0.000082      -0.000104      -0.000189
 124       0.000086      -0.000084      -0.000032
---------------------------------------------------
 Number of fixed atoms: 0
 Gradient time:  CPU 1846.40 s  wall 773.16 s
 Geometry Optimization Parameters
   NAtoms,    NIC,     NZ,  NCons,   NDum,   NFix, NCnnct, MaxDiis
      124    1004     124       0       0       0       0       0


** GEOMETRY OPTIMIZATION IN DELOCALIZED INTERNAL COORDINATES **
   Searching for a Minimum

   Optimization Cycle:   1

                       Coordinates (Angstroms)
     ATOM                X               Y               Z
      1  N         0.0000000000    0.0000000000    0.0000000000
      2  C         0.0000000000    0.0000000000    1.3796530000
      3  C         1.3077930540    0.0000000000   -0.4410367706
      4  C        -1.0795684048   -0.0083891840    2.2522003141
      5  H        -2.0989821284   -0.0118281111    1.8896228873
      6  C        -0.8021764402   -0.0152947899    3.6065804087
      7  H        -1.6223589634   -0.0273892443    4.3121485609
      8  C         1.7938096454   -0.0654256452   -1.7430846914
      9  H         1.1273424101   -0.1068684009   -2.5944872700
     10  C         3.1654766419   -0.0880661225   -1.9154678685
     11  H         3.5702699015   -0.1395141213   -2.9180223996
     12  C         4.0366659130   -0.0515699644   -0.8237254759
     13  H         5.1048878888   -0.0708099804   -0.9931859675
     14  C         3.5443148352   -0.0012576171    0.4671287004
     15  H         4.2245811482    0.0108091929    1.3092671537
     16  C         2.1677628922    0.0214826300    0.6696108770
     17  C         0.5118014827   -0.0079959211    4.0828780310
     18  H         0.6916699368   -0.0181169008    5.1492931616
     19  C         1.5799372821    0.0135474855    3.2055848867
     20  H         2.5971282842    0.0223921816    3.5764222348
     21  C         1.3284688644    0.0183665147    1.8389504574
     22  C        -1.1281395553   -0.1408973346   -0.8303082973
     23  C        -1.3776686976    0.7933732558   -1.8239521066
     24  H        -0.7289734847    1.6557330776   -1.9234235509
     25  C        -1.9660247899   -1.2373085878   -0.6835269531
     26  H        -1.7524466868   -1.9753803634    0.0804571493
     27  C        -3.0509101242   -1.4099392386   -1.5322920716
     28  C        -2.4414096903    0.6181205837   -2.7005215792
     29  C        -3.2868478097   -0.4867053043   -2.5579800825
     30  C        -3.9414998332   -2.6124638523   -1.3894081727
     31  H        -3.6990114079   -3.1931146647   -0.5001967701
     32  H        -4.9934040749   -2.3277326641   -1.3189069230
     33  H        -3.8493504567   -3.2790391719   -2.2502343933
     34  C        -2.6700981175    1.5950200654   -3.8207732944
     35  H        -1.9623279851    2.4223232904   -3.7886298601
     36  H        -3.6756179875    2.0188183843   -3.7886633515
     37  H        -2.5616287759    1.1093500131   -4.7938301716
     38  B        -4.4312609153   -0.7544556253   -3.6015067400
     39  C        -5.8461565498   -0.1328351226   -3.4412398128
     40  C        -6.1227904177    0.7428937821   -2.3876448225
     41  H        -5.3419781836    0.9796711678   -1.6731064066
     42  C        -7.3843503709    1.3015928707   -2.2628798104
     43  C        -8.3935100062    0.9725221172   -3.1936849218
     44  C        -8.1320408592    0.1032989855   -4.2362758808
     45  H        -8.9095605132   -0.1485866780   -4.9498603121
     46  C        -6.8609418459   -0.4542291445   -4.3751679899
     47  C        -9.6115535949    1.6850560994   -2.8259113977
     48  C       -10.8801373349    1.7559594156   -3.3358121471
     49  H       -11.1762471869    1.1987091274   -4.2161951984
     50  C        -9.2957919155    2.4338439665   -1.6785337737
     51  C       -10.1949790868    3.2589262281   -1.0161848134
     52  C        -7.9553746231    2.2395242251   -1.2941820377
     53  C        -7.4909905124    2.9073994678   -0.1930150233
     54  H        -6.4700541254    2.8007615500    0.1517861771
     55  C       -11.8195362623    2.5855162595   -2.6810157895
     56  H       -12.8239514782    2.6439600374   -3.0793042395
     57  C       -11.5012882198    3.3172676692   -1.5604706287
     58  H       -12.2549472245    3.9396670232   -1.0943784580
     59  C        -8.3812251561    3.7586986739    0.5039546854
     60  H        -8.0137598543    4.2872342086    1.3734941735
     61  C        -9.6895824166    3.9371085890    0.1187574203
     62  H       -10.3320464246    4.5990876633    0.6858426524
     63  B        -6.5679613718   -1.4289404832   -5.5495123280
     64  C        -5.1429940525   -2.0117846210   -5.7330864690
     65  C        -4.8678735283   -2.8665578489   -6.8034352239
     66  H        -5.6553280817   -3.1299169901   -7.5016131898
     67  C        -3.5940540355   -3.3753943696   -6.9687677056
     68  C        -2.5686135902   -3.0342904265   -6.0591878199
     69  C        -2.8349146212   -2.1970638874   -4.9918619106
     70  H        -2.0491189592   -1.9449159561   -4.2891244035
     71  C        -4.1204276274   -1.6786107600   -4.8144233293
     72  C        -1.3431849799   -3.7162572911   -6.4802652390
     73  C        -0.0552925575   -3.7851615440   -6.0176752411
     74  H         0.2657864767   -3.2488272860   -5.1338061257
     75  C        -1.6798654029   -4.4483728306   -7.6331315512
     76  C        -0.7894961061   -5.2476644402   -8.3428764025
     77  C        -3.0334476378   -4.2792413735   -7.9752773664
     78  C        -3.5180239602   -4.9373142705   -9.0760017224
     79  H        -4.5504740387   -4.8473958961   -9.3905376199
     80  C         0.5339019136   -5.3000118691   -7.8451555411
     81  H         1.2788058366   -5.9034694264   -8.3495305840
     82  C         0.8750948349   -4.5873492466   -6.7199522773
     83  H         1.8915376276   -4.6413019850   -6.3530104139
     84  C        -2.6358539889   -5.7577190702   -9.8181158320
     85  H        -3.0203226274   -6.2771801458  -10.6862561211
     86  C        -1.3140411517   -5.9167555530   -9.4749125581
     87  H        -0.6753295031   -6.5562953939  -10.0720044948
     88  C        -7.7048427868   -1.8374071033   -6.5549474089
     89  C        -7.8538677304   -1.1579479032   -7.7698067296
     90  C        -8.8393156648   -1.5498968470   -8.6666920469
     91  H        -8.9384399647   -1.0464001649   -9.6216954546
     92  C        -9.6918839799   -2.5988929602   -8.3573573526
     93  C        -9.5532695805   -3.2707056648   -7.1523540845
     94  H       -10.2326755132   -4.0814940005   -6.9165661790
     95  C        -8.5572178147   -2.9070619680   -6.2550209049
     96  N       -10.6821075136   -2.9984572545   -9.2767981371
     97  C       -10.7617967278   -4.2459929496   -9.8655404605
     98  C       -11.6551347321   -2.1865150336   -9.8279065635
     99  C       -11.9530991931   -0.8543945033   -9.5679457264
    100  H       -11.3973046860   -0.2830385361   -8.8369282336
    101  C       -12.9871246152   -0.2766346099  -10.2833101281
    102  H       -13.2357222839    0.7609286711  -10.1024503494
    103  C        -9.9561705473   -5.3652949642   -9.6884577049
    104  H        -9.1329286965   -5.3657308047   -8.9868969670
    105  C       -10.2331729205   -6.4847236317  -10.4532810302
    106  H        -9.6185783910   -7.3675060232  -10.3343022280
    107  C       -11.2800042379   -6.5000235886  -11.3786994833
    108  H       -11.4662160696   -7.3925199613  -11.9609974703
    109  C       -12.0699954678   -5.3808370707  -11.5578914030
    110  H       -12.8728268416   -5.3860967658  -12.2849017629
    111  C       -11.8106763246   -4.2433468781  -10.7999048630
    112  C       -13.7151193633   -0.9981938211  -11.2331436722
    113  H       -14.5141442691   -0.5117225468  -11.7764174308
    114  C       -13.4191919200   -2.3247349269  -11.4806804793
    115  H       -13.9817417237   -2.8863499315  -12.2163091906
    116  C       -12.3839410602   -2.9265183092  -10.7739038925
    117  C        -8.3928602732   -3.6649381488   -4.9683758522
    118  H        -9.1525896489   -4.4376572920   -4.8559406620
    119  H        -8.4635541253   -3.0051760748   -4.1015798400
    120  H        -7.4178948229   -4.1553006825   -4.9197544274
    121  C        -6.9231657484   -0.0323001224   -8.1246479367
    122  H        -7.2452361955    0.4895440407   -9.0251409354
    123  H        -6.8591842906    0.7059283864   -7.3228484557
    124  H        -5.9099961063   -0.3990967157   -8.3031151885
   Point Group: c1    Number of degrees of freedom:   366


   Energy is  -2925.558763328


 Attempting to Generate Delocalized Internal Coordinates

366 Hessian modes will be used to form the next step
  Hessian Eigenvalues:
     0.008668    0.008755    0.008773    0.008877    0.009267    0.009271
     0.010855    0.011177    0.011704    0.014442    0.014611    0.015626
     0.017078    0.017140    0.017151    0.017173    0.017537    0.017664
     0.017664    0.017988    0.018075    0.018348    0.018414    0.018488
     0.018629    0.018691    0.019142    0.019407    0.019442    0.019579
     0.019730    0.019928    0.020119    0.020431    0.020507    0.020747
     0.020858    0.021089    0.021123    0.021194    0.021216    0.021233
     0.021243    0.021392    0.021397    0.021420    0.021474    0.021601
     0.021660    0.021685    0.021688    0.021742    0.021771    0.021785
     0.021826    0.022292    0.022311    0.022533    0.022535    0.022665
     0.022754    0.022761    0.022775    0.023181    0.023183    0.023221
     0.023239    0.023396    0.023400    0.023403    0.023408    0.023536
     0.023557    0.023572    0.023653    0.023670    0.023672    0.023674
     0.023703    0.023753    0.023759    0.023771    0.023807    0.023811
     0.023819    0.023822    0.023832    0.023859    0.023874    0.023911
     0.023943    0.023980    0.023998    0.024010    0.024022    0.024088
     0.024126    0.024127    0.024137    0.024166    0.024188    0.024192
     0.024244    0.024282    0.024291    0.024323    0.024339    0.024355
     0.024373    0.024389    0.024433    0.024832    0.024904    0.071211
     0.071415    0.071516    0.071686    0.072286    0.072366    0.072428
     0.072473    0.159927    0.159981    0.159982    0.159989    0.159990
     0.159991    0.159992    0.159996    0.159996    0.159998    0.159998
     0.159998    0.159998    0.159999    0.159999    0.159999    0.159999
     0.159999    0.159999    0.160000    0.160000    0.160000    0.160000
     0.160000    0.160000    0.160000    0.160000    0.160000    0.160000
     0.160000    0.160000    0.160000    0.160000    0.160000    0.160000
     0.160000    0.160000    0.160000    0.160000    0.160000    0.160000
     0.160000    0.160000    0.160000    0.160000    0.160000    0.160000
     0.160000    0.219997    0.219998    0.219999    0.219999    0.220613
     0.220613    0.222149    0.222150    0.225918    0.225921    0.225969
     0.225976    0.231521    0.231849    0.233811    0.233823    0.234620
     0.234655    0.234835    0.234902    0.237412    0.237427    0.239959
     0.240210    0.244545    0.244608    0.245234    0.245251    0.246829
     0.248215    0.249009    0.249030    0.249165    0.249390    0.249398
     0.249662    0.249714    0.249726    0.249799    0.249831    0.249838
     0.249839    0.249844    0.249851    0.249903    0.249922    0.249925
     0.249938    0.249957    0.249968    0.249991    0.249993    0.249996
     0.249997    0.249998    0.249998    0.249998    0.258836    0.258855
     0.268790    0.271566    0.272529    0.275244    0.319757    0.320432
     0.320580    0.321393    0.338825    0.339506    0.340676    0.343310
     0.344770    0.345107    0.345347    0.345595    0.345783    0.346091
     0.346223    0.346269    0.348743    0.348750    0.348895    0.349028
     0.353990    0.354149    0.354475    0.354984    0.355242    0.355422
     0.355532    0.355712    0.356016    0.356041    0.356126    0.356221
     0.356269    0.356297    0.356488    0.356518    0.356523    0.356680
     0.356775    0.356849    0.357042    0.357206    0.357281    0.357358
     0.357441    0.357505    0.357544    0.357563    0.357566    0.357673
     0.357775    0.357805    0.357836    0.357986    0.358082    0.358107
     0.367495    0.370956    0.371908    0.372297    0.375097    0.377912
     0.379296    0.392524    0.400842    0.404591    0.409178    0.409704
     0.412060    0.412668    0.415775    0.415917    0.418520    0.425531
     0.425664    0.425985    0.427643    0.428082    0.428710    0.429227
     0.433228    0.433228    0.433757    0.433785    0.434582    0.434776
     0.435709    0.435984    0.441449    0.443484    0.446429    0.446507
     0.452301    0.452418    0.453013    0.455734    0.456754    0.458057
     0.460800    0.461730    0.466232    0.467816    0.468918    0.468926
     0.469907    0.470061    0.470141    0.471572    0.474873    0.474905
     0.475138    0.477204    0.477831    0.478333    0.479096    0.479574
     0.479687    0.480136    0.480676    0.481439    0.482305    0.483020
     0.483430    0.483770    0.484054    0.484059    0.484449    0.484652
[...]
    114 C                    -0.356946
    115 H                     0.232860
    116 C                     0.070389
    117 C                    -0.772186
    118 H                     0.254612
    119 H                     0.252222
    120 H                     0.251519
    121 C                    -0.767714
    122 H                     0.252234
    123 H                     0.250418
    124 H                     0.251069
  ----------------------------------------
  Sum of atomic charges =     0.000000

 -----------------------------------------------------------------
                    Cartesian Multipole Moments
 -----------------------------------------------------------------
    Charge (ESU x 10^10)
                -0.0000
    Dipole Moment (Debye)
         X      -0.2329      Y       0.0997      Z      -0.1538
       Tot       0.2964
    Quadrupole Moments (Debye-Ang)
        XX    -405.0544     XY     -32.3338     YY    -410.3805
        XZ     -27.9912     YZ      23.7992     ZZ    -416.4788
    Octopole Moments (Debye-Ang^2)
       XXX    6616.0214    XXY     941.9119    XYY    2226.9758
       YYY    1530.9704    XXZ    2153.0702    XYZ      53.2785
       YYZ    1761.5286    XZZ    2478.8358    YZZ     319.2724
       ZZZ    6015.0210
    Hexadecapole Moments (Debye-Ang^3)
      XXXX -125417.1473   XXXY  -14469.7100   XXYY  -24886.6000
      XYYY   -8925.8100   YYYY  -21812.7410   XXXZ  -45914.1258
      XXYZ   -6689.8140   XYYZ  -15009.2405   YYYZ  -16392.5897
      XXZZ  -39555.8561   XYZZ   -3114.0659   YYZZ  -17817.2249
      XZZZ  -47500.6624   YZZZ  -15136.2944   ZZZZ -103713.0440
 -----------------------------------------------------------------
 Calculating analytic gradient of the SCF energy
 -3.179144275222952E-004 -3.179192687900744E-004
 -3.179227487815907E-004 -3.179110348052293E-004
 -3.179223738152097E-004 -3.179113239872913E-004
 -3.178849628624280E-004 -3.179487180068609E-004
 -3.179200162023743E-004 -3.179137538968781E-004
 -3.179114442822028E-004 -3.179222528664054E-004
 -3.179213266089167E-004 -3.179123745549614E-004
 -3.179113264520153E-004 -3.179224450594612E-004
 -3.178876445727036E-004 -3.179460316034719E-004
 -3.179234658470975E-004 -3.179102204288663E-004
 -3.179176575740532E-004 -3.179161203785820E-004
 -3.178971665679045E-004 -3.179365268496787E-004
 -3.178923805377859E-004 -3.179412913704082E-004
 -3.179138107993552E-004 -3.179199318876025E-004
 -3.179098333006398E-004 -3.179238832607910E-004
 -3.178843451305835E-004 -3.179493332102474E-004
 -3.179197769454410E-004 -3.179139865628383E-004
 -3.179249081443772E-004 -3.179087868627498E-004
 -3.179173589762604E-004 -3.179163283584917E-004
 -3.179108984226086E-004 -3.179228052963036E-004
 -3.179054630858866E-004 -3.179282076851816E-004
 -3.178918115073970E-004 -3.179418778347329E-004
 -3.179134613351248E-004 -3.179203148940944E-004
 -3.179215503479879E-004 -3.179121371476497E-004
 -3.179159388122394E-004 -3.179177741416964E-004
 -3.179176242172717E-004 -3.179161139301320E-004
 -3.178936094025272E-004 -3.179400585135356E-004
 -3.179347189344775E-004 -3.178989790617130E-004
 -3.179088891176271E-004 -3.179248709248757E-004
 -3.178917497460574E-004 -3.179419238549681E-004
 -3.179027027582912E-004 -3.179309776738769E-004
 -3.179182443656206E-004 -3.179154564433463E-004
 -3.179167457026061E-004 -3.179169387340124E-004
 -3.179001230520424E-004 -3.179335538215247E-004
 -3.179183308578032E-004 -3.179154293863179E-004
 -3.179403542731679E-004 -3.178933460385580E-004
 -3.179232441647759E-004 -3.179104421023362E-004
 -3.179153739432368E-004 -3.179183540078171E-004
 -3.179154091186366E-004 -3.179183023237921E-004
 -3.179322597313983E-004 -3.179014319871967E-004
 -3.179122952534548E-004 -3.179214600470507E-004
 -3.178997588682994E-004 -3.179339115648763E-004
 -3.179134751734656E-004 -3.179202318865035E-004
 -3.179179582012588E-004 -3.179157665479657E-004
 -3.179314481539959E-004 -3.179022086512763E-004
 -3.179078301637014E-004 -3.179258582885479E-004
 -3.179196662448477E-004 -3.179140972851460E-004
 -3.179453655209076E-004 -3.178883201737567E-004
 -3.179448561925065E-004 -3.178888488900961E-004
 -3.179161149634439E-004 -3.179176458673905E-004
 -3.179066321643126E-004 -3.179270497355048E-004
 -3.179129964417424E-004 -3.179207085232006E-004
 -3.179171298363591E-004 -3.179165967508712E-004
 -3.179217251207739E-004 -3.179119693588110E-004
 -3.178959580430077E-004 -3.179377108836398E-004
 -3.179188384517159E-004 -3.179149177104348E-004
 -3.179241646362068E-004 -3.179095296707667E-004
 -3.179330933505452E-004 -3.179005639324679E-004
 -3.179163694117028E-004 -3.179173588806075E-004
 -3.179163870903970E-004 -3.179173178073361E-004
 -3.179475917074829E-004 -3.178860975118059E-004
 -3.179179652597527E-004 -3.179157966560542E-004
 -3.179153816319414E-004 -3.179183075050227E-004
 -3.178886960395156E-004 -3.179449924218314E-004
 -3.179133688303282E-004 -3.179203517142877E-004
 -3.178851014676620E-004 -3.179485850934626E-004
 -3.179292644183753E-004 -3.179044376435199E-004
 -3.179292541564337E-004 -3.179044242741809E-004
 -3.179390471510694E-004 -3.178946429700569E-004
 -3.179043392703684E-004 -3.179293664047193E-004
 -3.179302097117241E-004 -3.179034543329315E-004
 -3.179119740508841E-004 -3.179217103960896E-004
 -3.179376570388693E-004 -3.178960419791533E-004
 -3.179013136099521E-004 -3.179323511074872E-004
 -3.179363688393822E-004 -3.178973371999522E-004
 -3.179109173239290E-004 -3.179227683018972E-004
 -3.179022695767514E-004 -3.179313834972352E-004
 -3.179060179653221E-004 -3.179276871687252E-004
 -3.178798293944178E-004 -3.179538723182115E-004
 -3.178857950501076E-004 -3.179478894555271E-004
 -3.178947915294996E-004 -3.179388932576496E-004
 -3.178949392159841E-004 -3.179387528106682E-004
 -3.179360231383390E-004 -3.178976650468751E-004
 -3.178769521886178E-004 -3.179567402824235E-004
 -3.179327680463613E-004 -3.179009258506435E-004
 -3.179133860523725E-004 -3.179203103950556E-004
 -3.179374099398604E-004 -3.178962842989391E-004
 -3.179200600894063E-004 -3.179136402817493E-004
 -3.179255454700809E-004 -3.179081225257676E-004
 -3.179089321979610E-004 -3.179247621491567E-004
 -3.179066872900212E-004 -3.179270117809890E-004
 -3.179202307936194E-004 -3.179134309476829E-004
 -3.179014387433949E-004 -3.179322607410518E-004
 -3.179000980630168E-004 -3.179335917702937E-004
 -3.179250313609250E-004 -3.179086603755137E-004
 -3.179180526323669E-004 -3.179156378694275E-004
 -3.179196432957270E-004 -3.179140491026312E-004
 -3.179111292398233E-004 -3.179225544667049E-004
 -3.179063553793327E-004 -3.179273500404575E-004
 -3.179064842733651E-004 -3.179272079466984E-004
 -3.179005444693221E-004 -3.179331177382074E-004
 -3.179247423846256E-004 -3.179089679717376E-004
 -3.179054022036008E-004 -3.179283001953387E-004
 -3.179120100754757E-004 -3.179216566538464E-004
 -3.179154593741426E-004 -3.179182429219051E-004
 -3.179047345176352E-004 -3.179289684856252E-004
 -3.179218633863615E-004 -3.179118146503093E-004
 -3.179175300873879E-004 -3.179161702948856E-004
 -3.179176107459951E-004 -3.179160731646282E-004
 -3.179087017175789E-004 -3.179249910955671E-004
 -3.179075451184199E-004 -3.179261440131838E-004
 -3.179160267140768E-004 -3.179176816930148E-004
 -3.179202553969466E-004 -3.179134965749203E-004
 -3.179199082360656E-004 -3.179138189298160E-004
 -3.179326639432783E-004 -3.179010357986679E-004
 -3.179246334541630E-004 -3.179091329162475E-004
 -3.179304187153615E-004 -3.179033092678485E-004
 -3.179181475132802E-004 -3.179155441323057E-004
 -3.179157153268088E-004 -3.179180575639125E-004
 -3.179128312246472E-004 -3.179209021688286E-004
 -3.179352262100803E-004 -3.178984668961109E-004
 -3.179188938758173E-004 -3.179148474404130E-004
 -3.179261667282913E-004 -3.179075509020449E-004
 -3.179424932876069E-004 -3.178912032266674E-004
 -3.179131919384033E-004 -3.179205791990546E-004
 -3.179194755694401E-004 -3.179142415964151E-004
 -3.179128663849672E-004 -3.179208239967745E-004
 -3.179078568934077E-004 -3.179259183527215E-004
 -3.178989068659537E-004 -3.179348222010037E-004
 -3.179273459375100E-004 -3.179063575579822E-004
 -3.179127371510596E-004 -3.179210342543488E-004
 -3.179128963271044E-004 -3.179208286649537E-004
 -3.179029358237486E-004 -3.179307638047958E-004
 -3.179095954635610E-004 -3.179241417566472E-004
 -3.179028383645689E-004 -3.179308779524183E-004
 -3.178982628875525E-004 -3.179354314497485E-004
 -3.179204823885252E-004 -3.179132878006147E-004
 -3.179070471399381E-004 -3.179266867391215E-004
 -3.179165115019330E-004 -3.179171804514816E-004
 -3.179090028651385E-004 -3.179247659338374E-004
 -3.179045019769774E-004 -3.179292090508620E-004
 -3.179188786374821E-004 -3.179148055632497E-004
 -3.178978558412545E-004 -3.179359168436924E-004
 -3.178922353395080E-004 -3.179414973569878E-004
 -3.179156240872159E-004 -3.179180627191887E-004
 -3.179099540752680E-004 -3.179237727832641E-004
 -3.179077336497679E-004 -3.179259726677773E-004
 -3.179268974358969E-004 -3.179068134930176E-004
 -3.179075074638152E-004 -3.179262693176540E-004
 -3.179095667498154E-004 -3.179241596575019E-004
 -3.178964967564294E-004 -3.179371897906537E-004
 -3.179326123717711E-004 -3.179011421882253E-004
 -3.179368202705987E-004 -3.178968853350795E-004
 -3.179318024550851E-004 -3.179018826331271E-004
 -3.179132037183483E-004 -3.179205668915343E-004
 -3.179168648866318E-004 -3.179168521073314E-004
 -3.179485598669675E-004 -3.178851519984978E-004
 -3.179067880074008E-004 -3.179269757255506E-004
 -3.179145902613557E-004 -3.179191202126663E-004
 -3.179285408621719E-004 -3.179051603742339E-004
 -3.179183328892603E-004 -3.179153876069360E-004
 -3.179128165100966E-004 -3.179208818230042E-004
 -3.178930066903303E-004 -3.179406802944405E-004
 -3.179253239000980E-004 -3.179084336689356E-004
 -3.179233182560741E-004 -3.179103794632994E-004
 -3.179227381741566E-004 -3.179109433740203E-004
 -3.179085956732561E-004 -3.179251092860494E-004
 -3.179112450297637E-004 -3.179224363022981E-004
 -3.179309858885302E-004 -3.179026854903320E-004
 -3.179060699203500E-004 -3.179276839842466E-004
 -3.179101542639411E-004 -3.179235577360925E-004
 -3.179068214321389E-004 -3.179268606308971E-004
 -3.179247110505412E-004 -3.179090081110989E-004
 -3.179280581761686E-004 -3.179056487110924E-004
 -3.179117993894430E-004 -3.179218739444350E-004
 -3.179300629729227E-004 -3.179036994134891E-004
 -3.179372988881013E-004 -3.178964088420975E-004
 -3.179244922868065E-004 -3.179091786122831E-004
 -3.179113398588104E-004 -3.179223656240404E-004
 -3.179117772684316E-004 -3.179219120764959E-004
 -3.179239458084709E-004 -3.179097544520177E-004
 -3.179038152458389E-004 -3.179299366427297E-004
 -3.179038894550112E-004 -3.179298051023709E-004
 -3.179051211560921E-004 -3.179285803001120E-004
 -3.179240263626352E-004 -3.179096903889694E-004
 -3.179269709964849E-004 -3.179067187415469E-004
 -3.179180475165555E-004 -3.179156578711831E-004
 -3.179138631416628E-004 -3.179198896231869E-004
 -3.179112751140808E-004 -3.179224526538866E-004
 -3.179020558208801E-004 -3.179316462467395E-004
 -3.179142179504458E-004 -3.179195508278635E-004
 -3.178988351735675E-004 -3.179348941043379E-004
 -3.179175616747142E-004 -3.179161319990178E-004
 -3.179209816637614E-004 -3.179127842393692E-004
 -3.179174207165788E-004 -3.179163165935364E-004
 -3.178999891878431E-004 -3.179337022777534E-004
 -3.179187186440185E-004 -3.179150180310048E-004
 -3.179058319585512E-004 -3.179278913545591E-004
 -3.178912597092118E-004 -3.179424420924092E-004
 -3.179267844406469E-004 -3.179069738552271E-004
 -3.179113028169457E-004 -3.179224222514224E-004
 -3.179229098126217E-004 -3.179107875530616E-004
 -3.179285001134812E-004 -3.179052618888576E-004
 -3.179333859768207E-004 -3.179003504751914E-004
 -3.179067183810608E-004 -3.179269890550195E-004
 -3.179236973859557E-004 -3.179100668528815E-004
 -3.179182305798061E-004 -3.179154994018818E-004
 -3.179306051491968E-004 -3.179030960214771E-004
 -3.179210423753242E-004 -3.179126983137990E-004
 -3.179335208721815E-004 -3.179001940872114E-004
 -3.179384519208965E-004 -3.178952475911611E-004
 -3.179177553278164E-004 -3.179160110269186E-004
 -3.179224335889735E-004 -3.179112990507990E-004
 -3.179159128410500E-004 -3.179177885229332E-004
 -3.179264574806574E-004 -3.179073000418514E-004
 -3.179295004487753E-004 -3.179042170872905E-004
 -3.179167060334344E-004 -3.179169896434040E-004
 -3.179335766568741E-004 -3.179001775457787E-004
 -3.179429365580405E-004 -3.178908056118098E-004
 -3.179178862777277E-004 -3.179158011719188E-004
 -3.179211997734699E-004 -3.179125198911062E-004
 -3.179266243015822E-004 -3.179070870773310E-004
 -3.179068710035272E-004 -3.179268533907119E-004
 -3.179247347699949E-004 -3.179090219123141E-004
 -3.179249611546159E-004 -3.179087734858165E-004
 -3.179294145567342E-004 -3.179042782371068E-004
 -3.178946157643558E-004 -3.179391246176022E-004
 -3.178993453763545E-004 -3.179343680799594E-004
 -3.179025782734750E-004 -3.179311087223228E-004
 -3.179239151068044E-004 -3.179098458240148E-004
 -3.179163474480463E-004 -3.179173802086134E-004
 -3.178851085250151E-004 -3.179486071081202E-004
 -3.179316895604618E-004 -3.179020557597311E-004
 -3.179157861165465E-004 -3.179179367785005E-004
 -3.179076215829259E-004 -3.179260855614263E-004
 -3.179291483094144E-004 -3.179045659928927E-004
 -3.179148793915730E-004 -3.179188204053904E-004
 -3.179062662102421E-004 -3.179274181145213E-004
 -3.179267761280303E-004 -3.179069555460570E-004
 -3.179277231084573E-004 -3.179059966143925E-004
 -3.179238727890673E-004 -3.179098224439039E-004
 -3.179043684144903E-004 -3.179293307471749E-004
 -3.179075356846610E-004 -3.179261767064026E-004
 -3.179358433054450E-004 -3.178978491908223E-004
 -3.179018306367164E-004 -3.179319158837441E-004
 -3.179113152209250E-004 -3.179223926907611E-004
 -3.179112657080041E-004 -3.179224214955114E-004
 -3.179220677018733E-004 -3.179116358362566E-004
 -3.179250261373327E-004 -3.179086567332081E-004
 -3.179165541452956E-004 -3.179171205912741E-004
 -3.179023733399139E-004 -3.179313754083935E-004
 -3.178985444994299E-004 -3.179351748266928E-004
 -3.179097202949872E-004 -3.179239461485995E-004
 -3.179234596268515E-004 -3.179102467767823E-004
 -3.179204069390593E-004 -3.179132808838736E-004
 -3.179124333992364E-004 -3.179212910911403E-004
 -3.179276831635099E-004 -3.179060420589066E-004
 -3.179330658592671E-004 -3.179006409596198E-004
 -3.179246944911094E-004 -3.179090204743222E-004
 -3.179040709912280E-004 -3.179296234581474E-004
 -3.179089109341798E-004 -3.179247904452892E-004
 -3.178958125278863E-004 -3.179378784581442E-004
 -3.179042085917523E-004 -3.179294844294042E-004
 -3.179063434288620E-004 -3.179273511002222E-004
 -3.179551166747783E-004 -3.178785775761912E-004
 -3.179468064582251E-004 -3.178868751037066E-004
 -3.179215652547933E-004 -3.179121238791914E-004
 -3.179067189666678E-004 -3.179269749842243E-004
 -3.179056127035289E-004 -3.179280542171132E-004
 -3.178950561273702E-004 -3.179386499986318E-004
 -3.179362969907242E-004 -3.178973966278865E-004
 -3.179186232213477E-004 -3.179150413115417E-004
 -3.179113852890341E-004 -3.179223113793308E-004
 -3.179476118758493E-004 -3.178860835184857E-004
 -3.179330848910554E-004 -3.179006012413384E-004
 -3.179426457776856E-004 -3.178910655398172E-004
 -3.178869247559958E-004 -3.179467897523920E-004
 -3.179047102523520E-004 -3.179289673879799E-004
 -3.179172103139971E-004 -3.179164620100593E-004
 -3.179196078285090E-004 -3.179140949203690E-004
 -3.179203395009894E-004 -3.179133397551135E-004
 -3.179346566355449E-004 -3.178990034148682E-004
 -3.179398749658823E-004 -3.178938199971415E-004
 -3.179126348462557E-004 -3.179210433698748E-004
 -3.179633104208454E-004 -3.178703799031737E-004
 -3.179215999545807E-004 -3.179121316266484E-004
 -3.179099494263575E-004 -3.179237332624282E-004
 -3.179148626632845E-004 -3.179189020016925E-004
 -3.179473663305085E-004 -3.178863483927982E-004
 -3.179102766065617E-004 -3.179234144373783E-004
 -3.179278199483237E-004 -3.179059234348475E-004
 -3.179166926442289E-004 -3.179170374652143E-004
 -3.179425876555341E-004 -3.178910867566900E-004
 -3.179302383920790E-004 -3.179035108448652E-004
 -3.179380168514625E-004 -3.178956923467718E-004
 -3.179025069630635E-004 -3.179311769689112E-004
 -3.179281645899943E-004 -3.179055991026478E-004
 -3.179216306762279E-004 -3.179120814381920E-004
 -3.179360625135317E-004 -3.178976137183693E-004
 -3.179266992582736E-004 -3.179070308597091E-004
 -3.179011829925297E-004 -3.179325254185045E-004
 -3.179429479691079E-004 -3.178907432212027E-004
 -3.179251177359009E-004 -3.179086175784507E-004
 -3.179296708494127E-004 -3.179040165099936E-004
 -3.179120652637449E-004 -3.179216293972094E-004
 -3.179209054154243E-004 -3.179127815768038E-004
 -3.179171604279026E-004 -3.179165551378994E-004
 -3.179356230359305E-004 -3.178980696874945E-004
 -3.179234378007846E-004 -3.179103086171733E-004
 -3.179365795493857E-004 -3.178971134645416E-004
 -3.179115423734867E-004 -3.179221729910746E-004
 -3.179335632002629E-004 -3.179001583437647E-004
 -3.179443437346906E-004 -3.178893583412013E-004
 -3.178991621749097E-004 -3.179345407413294E-004
 -3.179238334043816E-004 -3.179099002342672E-004
 -3.179165712217954E-004 -3.179171168216165E-004
 -3.179243347204308E-004 -3.179093453909571E-004
 -3.179270886841863E-004 -3.179066051693170E-004
 -3.178952577692430E-004 -3.179384760455719E-004
 -3.179360606157250E-004 -3.178976215946499E-004
 -3.179108304533581E-004 -3.179229048374019E-004
 -3.179202537399937E-004 -3.179134617833925E-004
 -3.179113932407561E-004 -3.179222933321611E-004
 -3.179160789632310E-004 -3.179176436957751E-004
 -3.179358593748932E-004 -3.178978381789022E-004
 -3.179049488052658E-004 -3.179287489751008E-004
 -3.179202410990970E-004 -3.179134840288886E-004
 -3.179020587270718E-004 -3.179316143885438E-004
 -3.179233201603649E-004 -3.179103940903526E-004
 -3.179106529517872E-004 -3.179230524125325E-004
 -3.178928826874538E-004 -3.179408369031710E-004
 -3.179290958281169E-004 -3.179045888358946E-004
 -3.179038929567500E-004 -3.179298448633008E-004
 -3.179279293453648E-004 -3.179057622121152E-004
 -3.178909708513140E-004 -3.179427290977317E-004
 -3.179124182227750E-004 -3.179213255325883E-004
 -3.179104390008844E-004 -3.179232568580801E-004
 -3.179201067233645E-004 -3.179135957227677E-004
 -3.179157141113806E-004 -3.179180119612501E-004
 -3.179029425727106E-004 -3.179307621453342E-004
 -3.179370038106432E-004 -3.178966771545244E-004
 -3.179198277343513E-004 -3.179139035122247E-004
 -3.179175110361142E-004 -3.179161959911340E-004
 -3.179030164500827E-004 -3.179306595525746E-004
 -3.179113541566777E-004 -3.179223503444949E-004
 -3.179220992448329E-004 -3.179116120929458E-004
 -3.178896642171037E-004 -3.179440204166620E-004
 -3.179060964714394E-004 -3.179276465942137E-004
 -3.179218613506914E-004 -3.179118425062615E-004
 -3.179251205848623E-004 -3.179085507964266E-004
 -3.179088732571913E-004 -3.179248136543377E-004
 -3.179310540552491E-004 -3.179026523512559E-004
 -3.179274661895012E-004 -3.179062063895467E-004
 -3.179217804733396E-004 -3.179118989849275E-004
 -3.179164309278594E-004 -3.179172620389849E-004
 -3.179265185137753E-004 -3.179071785487394E-004
 -3.179262813868508E-004 -3.179074184306093E-004
 -3.179333211770808E-004 -3.179003731249907E-004
 -3.179114971335938E-004 -3.179221811213955E-004
 -3.179136519194197E-004 -3.179200373049790E-004
 -3.179206223012125E-004 -3.179130884589579E-004
 -3.178962752981294E-004 -3.179374043156992E-004
 -3.179274617691581E-004 -3.179062138017835E-004
 -3.179238097880322E-004 -3.179098980516355E-004
 -3.179125000864205E-004 -3.179211774015833E-004
 -3.179252372382713E-004 -3.179084518522393E-004
 -3.179171923952644E-004 -3.179165079241085E-004
 -3.179243108447382E-004 -3.179093715203132E-004
 -3.179291822663565E-004 -3.179045158756430E-004
 -3.179263464412022E-004 -3.179073493649299E-004
 -3.179110294152668E-004 -3.179226638991820E-004
 -3.179160706574031E-004 -3.179176064000460E-004
