mFile = /cm/shared/apps/q-chem/intel/QCHEM_5.1.0_Trunk/bin/mpi/machines
Process 0 of 1 is on ctcp037 - thread support 0
initial socket setup ...start
initial socket setup ...done 
now start server 0 ... 
Q-Chem Developer Version!
                  Welcome to Q-Chem
     A Quantum Leap Into The Future Of Chemistry


 Q-Chem 5.1, Q-Chem, Inc., Pleasanton, CA (2018)

 Yihan Shao,  Zhengting Gan,  E. Epifanovsky,  A. T. B. Gilbert,  M. Wormit,  
 J. Kussmann,  A. W. Lange,  A. Behn,  Jia Deng,  Xintian Feng,  D. Ghosh,  
 M. Goldey,  P. R. Horn,  L. D. Jacobson,  I. Kaliman,  T. Kus,  A. Landau,  
 Jie Liu,  E. I. Proynov,  R. M. Richard,  R. P. Steele,  E. J. Sundstrom,  
 H. L. Woodcock III,  P. M. Zimmerman,  D. Zuev,  B. Albrecht,  E. Alguire,  
 S. A. Baeppler,  D. Barton,  Z. Benda,  Y. A. Bernard,  E. J. Berquist,  
 K. B. Bravaya,  H. Burton,  D. Casanova,  Chun-Min Chang,  Yunqing Chen,  
 A. Chien,  K. D. Closser,  M. P. Coons,  S. Coriani,  S. Dasgupta,  
 A. L. Dempwolff,  M. Diedenhofen,  Hainam Do,  R. G. Edgar,  Po-Tung Fang,  
 S. Faraji,  S. Fatehi,  Qingguo Feng,  K. D. Fenk,  J. Fosso-Tande,  
 Qinghui Ge,  A. Ghysels,  G. Gidofalvi,  J. Gomes,  J. Gonthier,  A. Gunina,  
 D. Hait,  M. W. D. Hanson-Heine,  P. H. P. Harbach,  A. W. Hauser,  
 J. E. Herr,  E. G. Hohenstein,  Z. C. Holden,  Kerwin Hui,  B. C. Huynh,  
 T.-C. Jagau,  Hyunjun Ji,  B. Kaduk,  K. Khistyaev,  Jaehoon Kim,  
 P. Klunzinger,  K. Koh,  D. Kosenkov,  L. Koulias,  T. Kowalczyk,  
 C. M. Krauter,  A. Kunitsa,  Ka Un Lao,  A. Laurent,  K. V. Lawler,  
 Joonho Lee,  D. Lefrancois,  S. Lehtola,  D. S. Levine,  Yi-Pei Li,  
 You-Sheng Lin,  Fenglai Liu,  E. Livshits,  A. Luenser,  P. Manohar,  
 E. Mansoor,  S. F. Manzer,  Shan-Ping Mao,  Yuezhi Mao,  N. Mardirossian,  
 A. V. Marenich,  T. Markovich,  L. A. Martinez-Martinez,  S. A. Maurer,  
 N. J. Mayhall,  S. C. McKenzie,  J.-M. Mewes,  A. F. Morrison,  
 J. W. Mullinax,  K. Nanda,  T. S. Nguyen-Beck,  R. Olivares-Amaya,  
 J. A. Parkhill,  T. M. Perrine,  F. Plasser,  P. Pokhilko,  S. Prager,  
 A. Prociuk,  E. Ramos,  D. R. Rehn,  F. Rob,  M. Schneider,  N. Sergueev,  
 S. M. Sharada,  S. Sharma,  D. W. Small,  T. Stauch,  T. Stein,  
 Yu-Chuan Su,  A. J. W. Thom,  A. Tkatchenko,  T. Tsuchimochi,  N. M. Tubman,  
 L. Vogt,  M. L. Vidal,  O. Vydrov,  M. A. Watson,  J. Wenzel,  
 M. de Wergifosse,  T. A. Wesolowski,  A. White,  J. Witte,  A. Yamada,  
 Jun Yang,  K. Yao,  S. Yeganeh,  S. R. Yost,  Zhi-Qiang You,  A. Zech,  
 Igor Ying Zhang,  Xing Zhang,  Yan Zhao,  Ying Zhu,  B. R. Brooks,  
 G. K. L. Chan,  C. J. Cramer,  M. S. Gordon,  W. J. Hehre,  A. Klamt,  
 M. W. Schmidt,  C. D. Sherrill,  D. G. Truhlar,  A. Aspuru-Guzik,  R. Baer,  
 A. T. Bell,  N. A. Besley,  Jeng-Da Chai,  A. E. DePrince, III,  
 R. A. DiStasio Jr.,  A. Dreuw,  B. D. Dunietz,  T. R. Furlani,  
 Chao-Ping Hsu,  Yousung Jung,  Jing Kong,  D. S. Lambrecht,  WanZhen Liang,  
 C. Ochsenfeld,  V. A. Rassolov,  L. V. Slipchenko,  J. E. Subotnik,  
 T. Van Voorhis,  J. M. Herbert,  A. I. Krylov,  P. M. W. Gill,  M. Head-Gordon

 Contributors to earlier versions of Q-Chem not listed above: 
 R. D. Adamson,  B. Austin,  J. Baker,  G. J. O. Beran,  K. Brandhorst,  
 S. T. Brown,  E. F. C. Byrd,  A. K. Chakraborty,  C.-L. Cheng,  
 Siu Hung Chien,  D. M. Chipman,  D. L. Crittenden,  H. Dachsel,  
 R. J. Doerksen,  A. D. Dutoi,  L. Fusti-Molnar,  W. A. Goddard III,  
 A. Golubeva-Zadorozhnaya,  S. R. Gwaltney,  G. Hawkins,  A. Heyden,  
 S. Hirata,  G. Kedziora,  F. J. Keil,  C. Kelley,  Jihan Kim,  R. A. King,  
 R. Z. Khaliullin,  P. P. Korambath,  W. Kurlancheek,  A. M. Lee,  M. S. Lee,  
 S. V. Levchenko,  Ching Yeh Lin,  D. Liotard,  R. C. Lochan,  I. Lotan,  
 P. E. Maslen,  N. Nair,  D. P. O'Neill,  D. Neuhauser,  E. Neuscamman,  
 C. M. Oana,  R. Olson,  B. Peters,  R. Peverati,  P. A. Pieniazek,  
 Y. M. Rhee,  J. Ritchie,  M. A. Rohrdanz,  E. Rosta,  N. J. Russ,  
 H. F. Schaefer III,  N. E. Schultz,  N. Shenvi,  A. C. Simmonett,  A. Sodt,  
 D. Stuck,  K. S. Thanthiriwatte,  V. Vanovschi,  Tao Wang,  A. Warshel,  
 C. F. Williams,  Q. Wu,  X. Xu,  W. Zhang

 Please cite Q-Chem as follows:
 Y. Shao et al., Mol. Phys. 113, 184-215 (2015)
 DOI: 10.1080/00268976.2014.952696

 Q-Chem 5.1.1 for Intel X86 EM64T Linux

 Parts of Q-Chem use Armadillo 8.300.2 (Tropical Shenanigans).
 http://arma.sourceforge.net/

 Q-Chem begins on Tue Dec 18 11:16:41 2018  

Host: ctcp037
0

     Scratch files written to /scratch/mewes1/142066/qchem27782//
 Parallel job on  1  processors
The previous job contains 0 fragments, simply inherited here
Symmetry turned off for PCM/SM12/SMD calculation
Input Ideriv = 2
Curr. Ideriv = -1
Max.  Ideriv = 2
Input Ideriv = 2
Curr. Ideriv = 2
Max.  Ideriv = 2

Checking the input file for inconsistencies... 	...done.

--------------------------------------------------------------
User input:
--------------------------------------------------------------
$rem
threads 4
jobtype	opt
method PBEh-3c
basis def2-mSVP
mem_static	1024
mem_total	4000
sym_ignore	true
scf_convergence	9
solvent_method	pcm
$end

$molecule
read gsopt.mol
$end

$solvent
dielectric	8.93 
$end

$pcm
theory iefpcm
heavypoints 194
hpoints	    194
$end
--------------------------------------------------------------
 Adding empirical dispersion correction 
 ----------------------------------------------------------------
 Doing -D3(BJ) with
 s6 =   1.00000
 s8 =   0.00000
 a1 =   0.48600
 a2 =   4.50000
 -D3 energy including 3body term =     -0.1265093417 hartrees
 ----------------------------------------------------------------
 Adding gCP correction 
 ----------------------------------------------------------------
 gCP energy =      0.1726708663 hartrees
 ----------------------------------------------------------------
             Standard Nuclear Orientation (Angstroms)
    I     Atom           X                Y                Z
 ----------------------------------------------------------------
    1      N       0.0000000000     0.0000000000     0.0000000000
    2      C       0.0000000000     0.0000000000     1.3791240000
    3      C       1.3103457695     0.0000000000    -0.4415189494
    4      C       1.8213050063    -0.0591221179    -1.7315433281
    5      H       1.1728350049    -0.0823323041    -2.5971931018
    6      C       3.1951818991    -0.0999408802    -1.8761873374
    7      H       3.6093772643    -0.1478477191    -2.8765655502
    8      C      -1.0678209002     0.0036031031     2.2708917729
    9      H      -2.0937727642     0.0135943053     1.9277438463
   10      C      -0.7794275241    -0.0077655135     3.6217280956
   11      H      -1.6010013365    -0.0097857370     4.3289598767
   12      C       1.3240478729     0.0032441165     1.8387847162
   13      C       1.5828225834    -0.0088269661     3.2074467846
   14      H       2.6058312937    -0.0133515708     3.5665194633
   15      C       0.5358183097    -0.0192406106     4.1122323584
   16      C       2.1630501145     0.0049598654     0.6719774110
   17      C       3.5415991170    -0.0361498281     0.4957286554
   18      H       4.1982610420    -0.0380759844     1.3587311608
   19      C       4.0726296308    -0.0881652671    -0.7804802676
   20      C      -1.1418731949    -0.0348599728    -0.8203267910
   21      C      -1.3509487759     0.9791397041    -1.7413683307
   22      H      -0.6488907422     1.8032227332    -1.7896764870
   23      C      -2.4472321667     0.9403873365    -2.5901252872
   24      C      -2.0491666911    -1.0789617567    -0.7175733942
   25      H      -1.8709449831    -1.8702909653     0.0013678304
   26      C      -3.1642855564    -1.1218386682    -1.5460335139
   27      C      -3.3601772067    -0.1179667349    -2.5014997448
   28      C       5.5570101314    -0.1479770670    -1.0011102942
   29      H       6.1010250978    -0.0854801471    -0.0591279238
   30      H       5.9041901540     0.6704722500    -1.6337875736
   31      H       5.8525705566    -1.0796105919    -1.4870961270
   32      C      -2.6510116345     2.0318885354    -3.6021216091
   33      H      -1.8933038686     2.8093710340    -3.5123112598
   34      H      -3.6259562245     2.5096201487    -3.4853085219
   35      H      -2.6018176560     1.6431373058    -4.6220133289
   36      C       0.7843810907    -0.0428827791     5.5937709173
   37      H       1.8500833528    -0.0619523569     5.8195096490
   38      H       0.3365772973    -0.9215188699     6.0615024403
   39      H       0.3621748546     0.8348470870     6.0864412671
   40      C      -4.1438835570    -2.2567954662    -1.4354222434
   41      H      -3.8477055028    -2.9761316001    -0.6724836338
   42      H      -5.1425505231    -1.8982883209    -1.1771476764
   43      H      -4.2358383396    -2.8004281919    -2.3782660748
   44      B      -4.5409757510    -0.1647005813    -3.5334591926
   45      C      -5.9027747445     0.5071520823    -3.2310632789
   46      C      -6.2083600545     0.9206505735    -1.9346615874
   47      H      -5.4780210722     0.7947667261    -1.1419708104
   48      C      -7.4445089737     1.4751940062    -1.6675540624
   49      C      -8.3840655698     1.6727310982    -2.7040826588
   50      C      -8.0651012783     1.3126724012    -4.0021528787
   51      H      -8.7697880785     1.4901879552    -4.8066775487
   52      C      -6.8349473764     0.7058701714    -4.2752623755
   53      C      -8.0394131326     1.9189783397    -0.4104853057
   54      C      -7.6315785209     1.9466710128     0.8974258597
   55      H      -6.6497867889     1.6034516089     1.2000576687
   56      C      -9.3305803867     2.3740330668    -0.7296376587
   57      C     -10.2382253517     2.8507525355     0.2097199567
   58      C      -9.5925797328     2.2503909657    -2.1072803642
   59      C     -10.8256402134     2.6287111778    -2.5663525384
   60      H     -11.0954805910     2.5518156861    -3.6119397946
   61      C      -8.5309315873     2.4345778239     1.8737917944
   62      H      -8.2112671282     2.4565769551     2.9074768659
   63      C      -9.7941701933     2.8743913901     1.5544987649
   64      H     -10.4520981115     3.2345491333     2.3358556182
   65      C     -11.5021328531     3.2392970780    -0.2938201051
   66      H     -12.2607958446     3.6203910004     0.3786506015
   67      C     -11.7710081073     3.1262340302    -1.6375299305
   68      H     -12.7446218825     3.4237633502    -2.0038051050
   69      C      -4.3073680485    -0.8434861624    -4.9091329900
   70      C      -3.1729274360    -1.6265310010    -5.1163393754
   71      H      -2.4560474046    -1.7685741933    -4.3146306719
   72      C      -2.9647527654    -2.2156856774    -6.3468879867
   73      C      -3.8646700599    -2.0018493171    -7.4152744862
   74      C      -4.9748448600    -1.1956962640    -7.2253965954
   75      H      -5.6569304243    -0.9961723874    -8.0442503957
   76      C      -5.2185139644    -0.6286528614    -5.9693697533
   77      C      -1.8865027880    -3.0816324120    -6.8102647092
   78      C      -0.7624203720    -3.6177139491    -6.2377865457
   79      H      -0.4985386349    -3.4294853754    -5.2040958334
   80      C      -2.1680238508    -3.3682382563    -8.1563582002
   81      C      -1.3671943288    -4.1727258059    -8.9592595949
   82      C      -3.3556013805    -2.7394381638    -8.5775721817
   83      C      -3.7571170407    -2.9272875594    -9.8730018246
   84      H      -4.6587713066    -2.4734648177   -10.2641963216
   85      C       0.0701454432    -4.4405570489    -7.0308039518
   86      H       0.9581405181    -4.8654673325    -6.5810838600
   87      C      -0.2110723012    -4.7164803367    -8.3483876190
   88      H       0.4550042901    -5.3523452796    -8.9186082076
   89      C      -1.8070160257    -4.3483481676   -10.2919050872
   90      H      -1.2335832349    -4.9607556428   -10.9768446596
   91      C      -2.9637496732    -3.7398133852   -10.7187580337
   92      H      -3.2847025835    -3.8846162456   -11.7417664802
   93      B      -6.4522214051     0.2825250077    -5.7243026391
   94      C      -7.2606047618     0.8848088067    -6.9235016209
   95      C      -8.4075304057     0.2826768750    -7.4462268904
   96      C      -9.1322396882     0.9276773496    -8.4428105209
   97      H     -10.0457070762     0.4865466520    -8.8242004186
   98      C      -8.7077432292     2.1530588661    -8.9336851684
   99      C      -7.5459514645     2.7327936841    -8.4424401788
  100      H      -7.2094660885     3.6800685978    -8.8470008019
  101      C      -6.8248935164     2.1145345339    -7.4323689873
  102      N      -9.4571136360     2.8258695216    -9.9168609665
  103      C      -9.9583440285     4.1041544072    -9.7905127831
  104      C      -9.6871673893     2.3920131868   -11.2060957455
  105      C      -9.2994852065     1.2027557385   -11.8086010978
  106      H      -8.7584896659     0.4418497759   -11.2612199188
  107      C      -9.6136757235     1.0334553458   -13.1418165049
  108      H      -9.3162181395     0.1157236838   -13.6357899192
  109      C      -9.9445305735     4.9421957664    -8.6812765894
  110      H      -9.5074631352     4.6302907291    -7.7415508832
  111      C     -10.5047627138     6.1951694517    -8.8218297323
  112      H     -10.4992407576     6.8677507774    -7.9718211343
  113      C     -10.5346383874     4.4993763855   -11.0066504382
  114      C     -11.0936708527     5.7701414598   -11.1129370507
  115      H     -11.5357268171     6.0918530215   -12.0486118784
  116      C     -11.0785447076     6.6293308233   -10.0270987664
  117      C     -10.3595490504     3.3971188156   -11.9183621597
  118      C     -10.6617029184     3.1933424488   -13.2612271152
  119      H     -11.1721163519     3.9651438496   -13.8253326764
  120      C     -10.2948086075     2.0117382928   -13.8828449463
  121      C     -10.6072638690     1.7644153650   -15.3306992006
  122      H     -11.0476250132     2.6431355408   -15.8006106675
  123      H      -9.7098318686     1.5065396787   -15.8953467259
  124      H     -11.3132009270     0.9408082058   -15.4536000685
  125      C     -11.6536307300     8.0135425400   -10.1197441429
  126      H     -12.1304043200     8.1851110137   -11.0840674157
  127      H     -12.4044959566     8.1891469526    -9.3475535150
  128      H     -10.8820189397     8.7759728286    -9.9967104458
  129      C      -8.8646239994    -1.0427478479    -6.9024640178
  130      H      -9.7729132063    -1.3917675242    -7.3920386595
  131      H      -8.1019964824    -1.8132510155    -7.0360841967
  132      H      -9.0703511497    -0.9872101209    -5.8309574613
  133      C      -5.5845409034     2.7627679276    -6.8811901429
  134      H      -5.3705317090     3.7090921950    -7.3766497639
  135      H      -4.7080906970     2.1226588630    -7.0041567033
  136      H      -5.6826836365     2.9695445739    -5.8126165657
 ----------------------------------------------------------------
 Nuclear Repulsion Energy = 11551.2914309287 hartrees
 There are      268 alpha and      268 beta electrons
 Requested basis set is def2-mSVP
 There are 672 shells and 1312 basis functions

 Total QAlloc Memory Limit   4000 MB
 Mega-Array Size      1001 MB
 MEM_STATIC part      1024 MB
 Discretize the solute cavity surface with Lebedev spheres
	Using 194 Lebedev grid points for each H atom
	Using 194 Lebedev grid points for other atoms
	Atomic van der Waals radii will be scaled by 1.20
 Remove points where switching function is < 1.0e-08
 Keep 10184 surface tesserae and discard 16200 interior tesserae
 Molecular Surface Area = 1068.221 Angst**2
 A cutoff of  1.0D-12 yielded  60276 shell pairs
 There are    240138 function pairs (    264878 Cartesian)
 
 -------------------------------------------------------
 OpenMP Integral Computing Module                       
 Release: version 1.0, May 2013, Q-Chem Inc. Pittsburgh 
 -------------------------------------------------------
 Integral Job Info:
 Integral job number is                      11
 Integral operator is                         1
 short-range coefficients                     0
 long-range coefficients              100000000
 Omega coefficients                           0
 if combine SR and LR in K                    0
 Integral screening is                        0
 Integral computing path is                   2
 max size of driver memory is            800000
 size of driver memory is                593474
 size of scratch memory is              1809772
 max col of scratch BK array               1296
 max len of scratch array in speh3          155
 max len of scratch index in speh4           18
 max int batch size is                      520
 min int batch size is                       52
 fixed nKL is                                52
 max L of basis functions is                  2
 order of int derivative is                   0
 number of shells is                        672
 number of basis is                        1392
 number of cartesian basis is              1392
 number of contracted shell pairs         60276
 number of primitive shell pairs         126523
 maxK2 (contraction) of shell pair           25
 max number of K2 of shell pair               1
 max number of CS2 of shell pair          14349
 max number of PS2 of shell pair          22110
 mem total for path MDJ                 1116876
 -------------------------------------------------------
 Smallest overlap matrix eigenvalue = 1.97E-04

 Scale SEOQF with 1.000000e-02/1.000000e-02/1.000000e-02

 Standard Electronic Orientation quadrupole field applied
 Nucleus-field energy     =    -0.0000001518 hartrees
 Guess from superposition of atomic densities
 Warning:  Energy on first SCF cycle will be non-variational
 SAD guess density has 536.000001 electrons

 -----------------------------------------------------------------------
  General SCF calculation program by
  Eric Jon Sundstrom, Paul Horn, Yuezhi Mao, Dmitri Zuev, Alec White,
  David Stuck, Shaama M.S., Shane Yost, Joonho Lee, David Small,
  Daniel Levine, Susi Lehtola, Hugh Burton, Evgeny Epifanovsky
 -----------------------------------------------------------------------
 Exchange:     0.4200 Hartree-Fock + 0.5800 PBEh-3c
 Correlation:  1.0000 PBEh-3c
 Using SG-1 standard quadrature grid
 Dispersion:   Grimme D3
 using 4 threads for integral computing
 -------------------------------------------------------
 OpenMP Integral computing Module                
 Release: version 2.0, May 2017, Q-Chem Inc. Pleasanton 
 -------------------------------------------------------
 -------------------------------------------------------
 OpenMP BLAS3 based DFT computing Module                
 Release: version 1.0, May 2013, Q-Chem Inc. Pittsburgh 
 -------------------------------------------------------
 A restricted SCF calculation will be
 performed using DIIS
 SCF converges when DIIS error is below 1.0e-09
 ---------------------------------------
  Cycle       Energy         DIIS error
 ---------------------------------------
 Using non-symmetric K matrix
    1   -3109.8061635032      2.38e-02  
    2   -3081.8865422142      1.56e-03  
    3   -3082.1235965640      1.29e-03  
    4   -3082.4505732882      4.34e-04  
    5   -3082.4905836086      1.30e-04  
    6   -3082.4942689673      3.29e-05  
    7   -3082.4944967478      1.01e-05  
    8   -3082.4945192250      3.06e-06  
    9   -3082.4945213726      9.54e-07  
   10   -3082.4945216094      2.99e-07  
   11   -3082.4945216408      1.13e-07  
   12   -3082.4945216451      3.75e-08  
   13   -3082.4945216456      1.15e-08  
   14   -3082.4945216456      5.27e-09  
   15   -3082.4945216456      1.70e-09  
   16   -3082.4945216456      6.34e-10  Convergence criterion met
 ---------------------------------------
 SCF time:   CPU 16312.47s  wall 4156.00s 

************** Final PCM Free Energy Summary **************
 G_electrostatic  =      -0.03938086 hartree =     -24.71186500 kcal/mol
 G_cavitation     =       0.00000000 hartree =       0.00000000 kcal/mol
 G_dispersion     =       0.00000000 hartree =       0.00000000 kcal/mol
 G_repulsion      =       0.00000000 hartree =       0.00000000 kcal/mol
 --------------------------------------------------
 Non-electrostatic Free Energy =       0.00000000 hartree =       0.00000000 kcal/mol
 Total                         =      -0.03938086 hartree =     -24.71186500 kcal/mol
 --------------------------------------------------
 SCF Energy (H0 + V/2)                       =   -3082.49452165 
 Solute Internal Energy (H0)                 =   -3082.45514078 
 Total Free Energy (H0 + V/2 + non-elec)     =   -3082.49452165 hartree
                                             = -1934294.50663824 kcal/mol
***********************************************************

 SCF   energy in the final basis set =    -3082.4945216456
 Total energy in the final basis set =    -3082.4945216456
 
 --------------------------------------------------------------
 
                    Orbital Energies (a.u.)
 --------------------------------------------------------------
 
 Alpha MOs
 -- Occupied --
-14.691 -14.690 -10.492 -10.492 -10.486 -10.485 -10.485 -10.485
-10.470 -10.469 -10.467 -10.467 -10.466 -10.466 -10.466 -10.466
-10.465 -10.465 -10.465 -10.464 -10.463 -10.462 -10.462 -10.462
-10.462 -10.462 -10.462 -10.462 -10.461 -10.461 -10.461 -10.460
-10.459 -10.458 -10.458 -10.458 -10.458 -10.458 -10.451 -10.451
-10.450 -10.450 -10.450 -10.450 -10.450 -10.450 -10.449 -10.449
-10.448 -10.448 -10.448 -10.447 -10.447 -10.447 -10.446 -10.446
-10.446 -10.446 -10.445 -10.445 -10.445 -10.444 -10.444 -10.444
-10.441 -10.441 -10.440 -10.439 -10.432 -10.431 -10.431 -10.431
-10.431 -10.430 -10.427 -10.427 -10.427 -10.427  -6.957  -6.955
 -1.111  -1.111  -1.020  -1.020  -0.979  -0.979  -0.967  -0.964
 -0.956  -0.956  -0.951  -0.951  -0.935  -0.935  -0.914  -0.905
 -0.897  -0.896  -0.881  -0.880  -0.867  -0.867  -0.862  -0.859
 -0.856  -0.854  -0.848  -0.848  -0.837  -0.836  -0.826  -0.816
 -0.816  -0.815  -0.815  -0.809  -0.779  -0.779  -0.777  -0.777
 -0.767  -0.767  -0.764  -0.763  -0.738  -0.731  -0.728  -0.723
 -0.718  -0.717  -0.699  -0.696  -0.691  -0.682  -0.676  -0.669
 -0.665  -0.664  -0.659  -0.659  -0.653  -0.651  -0.646  -0.645
 -0.643  -0.642  -0.600  -0.598  -0.594  -0.594  -0.591  -0.589
 -0.588  -0.588  -0.585  -0.578  -0.576  -0.560  -0.557  -0.557
 -0.555  -0.546  -0.543  -0.542  -0.535  -0.532  -0.530  -0.525
 -0.517  -0.513  -0.512  -0.511  -0.505  -0.503  -0.502  -0.500
 -0.499  -0.498  -0.498  -0.496  -0.496  -0.494  -0.491  -0.490
 -0.490  -0.488  -0.487  -0.484  -0.481  -0.481  -0.479  -0.478
 -0.474  -0.473  -0.473  -0.473  -0.471  -0.471  -0.469  -0.468
 -0.468  -0.468  -0.466  -0.466  -0.464  -0.456  -0.449  -0.444
 -0.443  -0.442  -0.441  -0.436  -0.436  -0.430  -0.430  -0.429
 -0.429  -0.428  -0.426  -0.418  -0.418  -0.417  -0.414  -0.411
 -0.407  -0.406  -0.404  -0.403  -0.399  -0.398  -0.398  -0.397
 -0.397  -0.395  -0.394  -0.392  -0.391  -0.391  -0.386  -0.385
 -0.385  -0.376  -0.370  -0.369  -0.366  -0.357  -0.354  -0.347
 -0.330  -0.329  -0.324  -0.319  -0.298  -0.297  -0.295  -0.295
 -0.289  -0.286  -0.286  -0.285  -0.285  -0.265  -0.262  -0.259
 -0.253  -0.253  -0.235  -0.234
 -- Virtual --
 -0.095  -0.062  -0.042  -0.033  -0.015  -0.015  -0.008   0.003
  0.004   0.004   0.012   0.018   0.019   0.027   0.027   0.042
  0.053   0.054   0.060   0.060   0.062   0.079   0.079   0.088
  0.121   0.124   0.146   0.149   0.152   0.152   0.153   0.155
  0.157   0.158   0.159   0.160   0.161   0.161   0.166   0.168
  0.170   0.178   0.179   0.180   0.182   0.183   0.184   0.185
  0.187   0.188   0.189   0.189   0.192   0.196   0.198   0.199
  0.202   0.202   0.204   0.205   0.205   0.207   0.208   0.209
  0.210   0.216   0.217   0.220   0.223   0.223   0.224   0.226
  0.227   0.228   0.228   0.229   0.233   0.235   0.237   0.239
  0.240   0.242   0.245   0.247   0.247   0.250   0.251   0.251
  0.251   0.252   0.252   0.253   0.254   0.254   0.255   0.256
  0.257   0.257   0.267   0.268   0.269   0.272   0.274   0.275
  0.276   0.280   0.285   0.287   0.288   0.288   0.289   0.290
  0.293   0.303   0.304   0.310   0.311   0.311   0.312   0.314
  0.314   0.316   0.316   0.323   0.323   0.325   0.326   0.333
  0.334   0.334   0.348   0.348   0.354   0.361   0.361   0.365
  0.366   0.368   0.375   0.376   0.378   0.384   0.390   0.391
  0.393   0.393   0.400   0.407   0.410   0.413   0.414   0.417
  0.422   0.424   0.426   0.431   0.437   0.443   0.452   0.453
  0.454   0.457   0.459   0.459   0.464   0.465   0.466   0.466
  0.474   0.482   0.484   0.487   0.488   0.489   0.490   0.494
  0.494   0.497   0.498   0.502   0.505   0.505   0.506   0.509
  0.512   0.514   0.515   0.515   0.515   0.520   0.522   0.524
  0.525   0.526   0.526   0.530   0.531   0.535   0.536   0.538
  0.539   0.541   0.543   0.544   0.547   0.548   0.550   0.551
  0.554   0.556   0.560   0.561   0.562   0.563   0.568   0.570
  0.572   0.574   0.575   0.575   0.577   0.579   0.581   0.582
  0.583   0.584   0.585   0.585   0.586   0.586   0.587   0.587
  0.589   0.593   0.595   0.595   0.598   0.600   0.601   0.602
  0.602   0.608   0.609   0.609   0.610   0.615   0.615   0.616
  0.616   0.618   0.619   0.620   0.623   0.625   0.626   0.628
  0.628   0.630   0.630   0.631   0.632   0.633   0.635   0.637
  0.639   0.641   0.642   0.643   0.645   0.651   0.652   0.653
  0.655   0.657   0.659   0.663   0.668   0.674   0.676   0.677
  0.679   0.681   0.682   0.684   0.686   0.688   0.690   0.691
  0.692   0.695   0.698   0.704   0.705   0.706   0.708   0.712
  0.714   0.717   0.721   0.721   0.723   0.723   0.726   0.728
  0.729   0.731   0.734   0.735   0.735   0.740   0.742   0.749
  0.751   0.753   0.755   0.757   0.758   0.759   0.761   0.761
  0.763   0.766   0.769   0.771   0.777   0.778   0.779   0.782
  0.783   0.786   0.786   0.789   0.791   0.795   0.799   0.799
  0.804   0.805   0.808   0.811   0.814   0.819   0.820   0.826
  0.828   0.832   0.838   0.841   0.846   0.852   0.855   0.860
  0.872   0.875   0.883   0.885   0.888   0.895   0.900   0.901
  0.912   0.915   0.917   0.920   0.920   0.924   0.926   0.933
  0.939   0.946   0.947   0.950   0.951   0.954   0.956   0.958
  0.960   0.961   0.963   0.967   0.974   0.975   0.976   0.979
  0.983   0.985   0.987   0.988   0.991   0.991   0.992   0.994
  1.000   1.001   1.003   1.003   1.010   1.011   1.012   1.014
  1.015   1.017   1.018   1.019   1.020   1.026   1.027   1.032
  1.034   1.035   1.035   1.038   1.042   1.043   1.045   1.046
  1.048   1.051   1.053   1.055   1.057   1.057   1.058   1.059
  1.061   1.063   1.064   1.070   1.070   1.070   1.071   1.074
  1.076   1.079   1.084   1.084   1.086   1.088   1.090   1.093
  1.095   1.098   1.101   1.105   1.106   1.113   1.114   1.116
  1.120   1.124   1.127   1.130   1.132   1.134   1.135   1.137
  1.139   1.140   1.143   1.145   1.146   1.147   1.149   1.152
  1.155   1.159   1.160   1.167   1.170   1.173   1.176   1.179
  1.184   1.186   1.190   1.194   1.197   1.201   1.204   1.205
  1.211   1.213   1.223   1.225   1.233   1.236   1.237   1.240
  1.244   1.248   1.252   1.255   1.262   1.263   1.267   1.278
  1.280   1.281   1.284   1.288   1.294   1.298   1.299   1.304
  1.304   1.306   1.308   1.311   1.315   1.318   1.320   1.321
  1.325   1.331   1.332   1.336   1.344   1.347   1.350   1.353
  1.357   1.360   1.362   1.363   1.366   1.367   1.372   1.378
  1.378   1.381   1.386   1.390   1.392   1.396   1.398   1.401
  1.403   1.405   1.407   1.412   1.414   1.421   1.434   1.435
  1.438   1.439   1.440   1.443   1.447   1.449   1.449   1.451
  1.451   1.456   1.457   1.463   1.478   1.482   1.489   1.501
  1.504   1.505   1.507   1.508   1.510   1.511   1.512   1.514
  1.517   1.517   1.525   1.526   1.527   1.530   1.531   1.531
  1.535   1.536   1.540   1.541   1.542   1.548   1.549   1.551
  1.551   1.552   1.554   1.556   1.557   1.559   1.563   1.564
  1.566   1.568   1.569   1.572   1.574   1.577   1.580   1.589
  1.593   1.599   1.604   1.607   1.610   1.616   1.617   1.624
  1.631   1.635   1.643   1.644   1.657   1.668   1.682   1.685
  1.694   1.733   1.738   1.740   1.745   1.761   1.762   1.774
  1.781   1.784   1.800   1.803   1.805   1.805   1.807   1.809
  1.810   1.812   1.813   1.816   1.823   1.826   1.826   1.827
  1.830   1.841   1.843   1.847   1.854   1.858   1.875   1.877
  1.885   1.887   1.893   1.898   1.900   1.900   1.901   1.904
  1.905   1.912   1.914   1.915   1.916   1.917   1.919   1.920
  1.923   1.930   1.932   1.937   1.939   1.940   1.942   1.942
  1.946   1.947   1.947   1.949   1.952   1.956   1.960   1.962
  1.964   1.964   1.968   1.973   1.979   1.982   1.983   1.984
  1.984   1.985   1.990   2.005   2.009   2.013   2.020   2.026
  2.029   2.038   2.041   2.045   2.059   2.064   2.068   2.070
  2.073   2.075   2.078   2.081   2.082   2.085   2.098   2.104
  2.111   2.111   2.117   2.121   2.124   2.126   2.130   2.133
  2.137   2.138   2.141   2.149   2.151   2.154   2.155   2.159
  2.161   2.168   2.173   2.178   2.183   2.183   2.184   2.188
  2.197   2.202   2.202   2.212   2.214   2.218   2.220   2.221
  2.225   2.230   2.231   2.235   2.238   2.239   2.246   2.247
  2.249   2.252   2.255   2.257   2.259   2.265   2.269   2.270
  2.274   2.276   2.277   2.278   2.283   2.287   2.291   2.293
  2.297   2.300   2.310   2.317   2.321   2.321   2.321   2.331
  2.334   2.337   2.338   2.339   2.342   2.343   2.344   2.345
  2.347   2.348   2.349   2.351   2.354   2.355   2.359   2.366
  2.367   2.368   2.376   2.380   2.385   2.386   2.387   2.388
  2.393   2.394   2.398   2.406   2.408   2.409   2.410   2.412
  2.416   2.417   2.418   2.420   2.425   2.429   2.434   2.436
  2.446   2.448   2.449   2.453   2.455   2.457   2.466   2.472
  2.473   2.478   2.483   2.486   2.487   2.488   2.490   2.490
  2.493   2.496   2.497   2.499   2.505   2.509   2.512   2.536
  2.545   2.547   2.554   2.574   2.587   2.588   2.611   2.627
  2.632   2.633   2.642   2.642   2.643   2.659   2.659   2.662
  2.662   2.665   2.682   2.686   2.697   2.700   2.708   2.709
  2.719   2.724   2.726   2.727   2.728   2.730   2.732   2.733
  2.735   2.742   2.744   2.745   2.762   2.770   2.775   2.777
  2.785   2.787   2.790   2.790   2.794   2.797   2.798   2.799
  2.799   2.800   2.805   2.808   2.812   2.814   2.815   2.820
  2.836   2.837   2.838   2.839   2.844   2.851   2.867   2.869
  2.872   2.890   2.893   2.896   2.897   2.898   2.901   2.904
  2.929   2.933   2.933   2.937   2.945   2.947   2.948   2.950
  2.954   2.956   2.961   2.974   2.980   2.983   2.998   3.005
  3.006   3.033   3.043   3.048   3.055   3.055   3.058   3.069
  3.081   3.085   3.116   3.138   3.141   3.227   3.252   3.255
  3.276   3.279   3.339   3.345   3.400   3.436   3.446   3.449
  3.452   3.463   3.473   3.488   3.493   3.494   3.569   3.574
  3.624   3.625   3.667   3.678   9.579   9.707  13.140  13.173
 13.230  13.233  13.423  13.430  13.431  13.494  13.496  13.511
 13.525  13.543  13.676  13.677  13.694  13.697  13.717  13.730
 13.731  13.770  13.772  13.789  13.792  13.803  13.843  13.857
 13.885  13.892  13.897  13.897  13.908  13.926  13.935  13.937
 13.937  13.992  13.997  14.000  14.001  14.006  14.029  14.042
 14.119  14.130  14.132  14.159  14.160  14.185  14.195  14.212
 14.213  14.234  14.239  14.240  14.242  14.255  14.272  14.274
 14.306  14.308  14.324  14.324  14.332  14.345  14.513  14.516
 14.566  14.569  14.573  14.574  14.584  14.585  14.601  14.605
 14.608  14.610  19.577  19.582
 --------------------------------------------------------------
 
          Ground-State Mulliken Net Atomic Charges

     Atom                 Charge (a.u.)
  ----------------------------------------
      1 N                    -0.732244
      2 C                     0.316512
      3 C                     0.316805
      4 C                    -0.285266
      5 H                     0.256578
      6 C                    -0.302439
      7 H                     0.238161
      8 C                    -0.286158
      9 H                     0.255535
     10 C                    -0.301092
     11 H                     0.237765
     12 C                     0.091854
     13 C                    -0.426363
     14 H                     0.231307
     15 C                     0.099023
     16 C                     0.087478
     17 C                    -0.423884
     18 H                     0.231853
     19 C                     0.098624
     20 C                     0.318075
     21 C                    -0.373639
     22 H                     0.256180
     23 C                     0.032459
     24 C                    -0.361371
     25 H                     0.255897
     26 C                     0.056521
     27 C                    -0.207482
     28 C                    -0.720652
     29 H                     0.238377
     30 H                     0.238122
     31 H                     0.238403
     32 C                    -0.779640
     33 H                     0.260260
     34 H                     0.253297
     35 H                     0.252949
     36 C                    -0.720814
     37 H                     0.238704
     38 H                     0.238005
     39 H                     0.238354
     40 C                    -0.767738
     41 H                     0.255693
     42 H                     0.249562
     43 H                     0.250209
     44 B                     0.693395
     45 C                    -0.154872
     46 C                    -0.391863
     47 H                     0.245326
     48 C                     0.069944
     49 C                     0.093493
     50 C                    -0.398301
     51 H                     0.246071
     52 C                    -0.148982
     53 C                     0.178280
     54 C                    -0.389921
     55 H                     0.250922
     56 C                    -0.066561
     57 C                     0.224472
     58 C                     0.180518
     59 C                    -0.397299
     60 H                     0.252187
     61 C                    -0.232621
     62 H                     0.258134
     63 C                    -0.346720
     64 H                     0.254912
     65 C                    -0.350330
     66 H                     0.255229
     67 C                    -0.230479
     68 H                     0.258032
     69 C                    -0.151128
     70 C                    -0.385821
     71 H                     0.248119
     72 C                     0.068382
     73 C                     0.094691
     74 C                    -0.401187
     75 H                     0.243673
     76 C                    -0.155799
     77 C                     0.178778
     78 C                    -0.389370
     79 H                     0.252089
     80 C                    -0.066069
     81 C                     0.225547
     82 C                     0.180373
     83 C                    -0.398820
     84 H                     0.251107
     85 C                    -0.233123
     86 H                     0.258492
     87 C                    -0.346478
     88 H                     0.254878
     89 C                    -0.350933
     90 H                     0.255264
     91 C                    -0.229957
     92 H                     0.257603
     93 B                     0.692304
     94 C                    -0.197880
     95 C                     0.056765
     96 C                    -0.358819
     97 H                     0.254214
     98 C                     0.307542
     99 C                    -0.365429
    100 H                     0.256976
    101 C                     0.027910
    102 N                    -0.726714
    103 C                     0.311903
    104 C                     0.313426
    105 C                    -0.286897
    106 H                     0.255757
    107 C                    -0.302209
    108 H                     0.237616
    109 C                    -0.285097
    110 H                     0.258576
    111 C                    -0.302434
    112 H                     0.238428
    113 C                     0.095324
    114 C                    -0.429966
    115 H                     0.231250
    116 C                     0.098503
    117 C                     0.097380
    118 C                    -0.428710
    119 H                     0.231652
    120 C                     0.098181
    121 C                    -0.720188
    122 H                     0.238266
    123 H                     0.237278
    124 H                     0.238379
    125 C                    -0.720341
    126 H                     0.238211
    127 H                     0.237379
    128 H                     0.238636
    129 C                    -0.767162
    130 H                     0.255400
    131 H                     0.249256
    132 H                     0.249758
    133 C                    -0.781248
    134 H                     0.261036
    135 H                     0.254092
    136 H                     0.254642
  ----------------------------------------
  Sum of atomic charges =     0.000000

 -----------------------------------------------------------------
                    Cartesian Multipole Moments
 -----------------------------------------------------------------
    Charge (ESU x 10^10)
                 0.0000
    Dipole Moment (Debye)
         X      -0.6399      Y      -1.9051      Z       0.5489
       Tot       2.0833
    Quadrupole Moments (Debye-Ang)
        XX    -420.8096     XY     -13.8133     YY    -442.6448
        XZ     -27.4830     YZ      33.2885     ZZ    -414.5994
    Octopole Moments (Debye-Ang^2)
       XXX    6590.0691    XXY    -113.3129    XYY    2195.7843
       YYY    -888.4582    XXZ    2375.4554    XYZ     -74.0283
       YYZ    2000.1971    XZZ    2261.6553    YZZ    -677.5235
       ZZZ    6008.0012
    Hexadecapole Moments (Debye-Ang^3)
      XXXX -122847.2435   XXXY   12131.6483   XXYY  -22900.2487
      XYYY   13982.1760   YYYY  -19413.0301   XXXZ  -50450.1307
      XXYZ    2622.8470   XYYZ  -15360.3798   YYYZ    5986.8103
      XXZZ  -41816.5291   XYZZ    5499.6018   YYZZ  -22787.6614
      XZZZ  -45308.8828   YZZZ   10923.7143   ZZZZ -116549.4788
 -----------------------------------------------------------------
 Calculating analytic gradient of the SCF energy
 -2.827657298569935E-004 -2.827445180336382E-004
 -2.827579218810494E-004 -2.827524084805194E-004
 -2.827528788694185E-004 -2.827573552977001E-004
 -2.827268468951380E-004 -2.827833739988250E-004
 -2.827599316907363E-004 -2.827503890168176E-004
 -2.827613717982670E-004 -2.827488594504129E-004
 -2.827459178877830E-004 -2.827643100218880E-004
 -2.827542067131220E-004 -2.827561089766515E-004
 -2.827218237223250E-004 -2.827883945835841E-004
 -2.827367635542849E-004 -2.827734609400599E-004
 -2.827531753507345E-004 -2.827571465301240E-004
 -2.827587494060867E-004 -2.827514689835872E-004
 -2.827477880867416E-004 -2.827624634108330E-004
 -2.827587763840417E-004 -2.827515040747770E-004
 -2.827290346475167E-004 -2.827811740213948E-004
 -2.827545654063943E-004 -2.827556614312287E-004
 -2.827513285826580E-004 -2.827589766474617E-004
 -2.827158467078265E-004 -2.827943699360469E-004
 -2.827429328365578E-004 -2.827672734155719E-004
 -2.827576668867212E-004 -2.827525732092015E-004
 -2.827518728895364E-004 -2.827583446673057E-004
 -2.827507983951909E-004 -2.827594360858511E-004
 -2.827633262672333E-004 -2.827470003271198E-004
 -2.827316941338354E-004 -2.827785222276063E-004
 -2.827345938518855E-004 -2.827756187656498E-004
 -2.827564528095540E-004 -2.827538269923211E-004
 -2.827596861853312E-004 -2.827505584830280E-004
 -2.827260524625564E-004 -2.827841599808094E-004
 -2.827587730060235E-004 -2.827515395715319E-004
 -2.827731733835156E-004 -2.827370610966406E-004
 -2.827491838019027E-004 -2.827610270829991E-004
 -2.827530901967626E-004 -2.827571545687906E-004
 -2.827450209037798E-004 -2.827651991620648E-004
 -2.827872027656830E-004 -2.827230213156578E-004
 -2.827572338126214E-004 -2.827530797300492E-004
 -2.827376518771082E-004 -2.827725654222828E-004
 -2.827480762112869E-004 -2.827621338969212E-004
 -2.827560546256231E-004 -2.827542546031304E-004
 -2.827687070768824E-004 -2.827415187299619E-004
 -2.827740325237172E-004 -2.827361546701001E-004
 -2.827542350779871E-004 -2.827560334779083E-004
 -2.827510321706738E-004 -2.827592083207575E-004
 -2.827707880763626E-004 -2.827394379009726E-004
 -2.827562686782268E-004 -2.827540256176404E-004
 -2.827389371387042E-004 -2.827712899094015E-004
 -2.827550364221392E-004 -2.827551846171874E-004
 -2.827551216398184E-004 -2.827551889604505E-004
 -2.827898815335136E-004 -2.827203427755809E-004
 -2.827581954037065E-004 -2.827520339361911E-004
 -2.827534057726667E-004 -2.827569033016189E-004
 -2.827403025301309E-004 -2.827699046590474E-004
 -2.827590802007460E-004 -2.827511538680119E-004
 -2.827539756262786E-004 -2.827562969237411E-004
 -2.827757304834926E-004 -2.827344610721707E-004
 -2.827464905446678E-004 -2.827637312463879E-004
 -2.827528631610363E-004 -2.827574322769465E-004
 -2.827766653158612E-004 -2.827335726694071E-004
 -2.827130769485216E-004 -2.827971493152262E-004
 -2.827487823000304E-004 -2.827614761645678E-004
 -2.827294169390398E-004 -2.827808098192225E-004
 -2.827734828558530E-004 -2.827367692909270E-004
 -2.827802998605247E-004 -2.827298967673969E-004
 -2.827709429822634E-004 -2.827392885674805E-004
 -2.827395955364056E-004 -2.827706509666576E-004
 -2.827658383796750E-004 -2.827443504327721E-004
 -2.827508136276790E-004 -2.827593988846833E-004
 -2.827174975672609E-004 -2.827927260361425E-004
 -2.827722423047040E-004 -2.827379711503005E-004
 -2.827221431338370E-004 -2.827880948812931E-004
 -2.827809903590019E-004 -2.827292483074605E-004
 -2.827484422480899E-004 -2.827617606119715E-004
 -2.827611551696247E-004 -2.827490795161049E-004
 -2.827515209319478E-004 -2.827587124985599E-004
 -2.827341593788899E-004 -2.827760239293817E-004
 -2.827423436066276E-004 -2.827678964878195E-004
 -2.827175400672043E-004 -2.827926840021291E-004
 -2.827241403696373E-004 -2.827860806970840E-004
 -2.827396614225471E-004 -2.827705670589994E-004
 -2.827787617635743E-004 -2.827314649909402E-004
 -2.827700526781810E-004 -2.827401782445963E-004
 -2.827638144381430E-004 -2.827464123656258E-004
 -2.827832657562814E-004 -2.827269512967856E-004
 -2.827519060985038E-004 -2.827583503716718E-004
 -2.827370408845863E-004 -2.827731632844441E-004
 -2.827551349022523E-004 -2.827550878576263E-004
 -2.827550287085313E-004 -2.827552166360615E-004
 -2.827635113385342E-004 -2.827466857952307E-004
 -2.827467299391916E-004 -2.827634833393202E-004
 -2.827602445154762E-004 -2.827499837142100E-004
 -2.827578825268461E-004 -2.827523430744399E-004
 -2.827477547866890E-004 -2.827624516093795E-004
 -2.827496998082292E-004 -2.827605269184592E-004
 -2.827599641306673E-004 -2.827502644576648E-004
 -2.827582496016606E-004 -2.827519811557071E-004
 -2.827506540089841E-004 -2.827595420831758E-004
 -2.827559299439198E-004 -2.827543108012144E-004
 -2.827345289395567E-004 -2.827757159501540E-004
 -2.827456197065506E-004 -2.827645704897808E-004
 -2.827452769354371E-004 -2.827649517033358E-004
 -2.827420891449702E-004 -2.827681474237112E-004
 -2.827623505016297E-004 -2.827478744545102E-004
 -2.827680956096044E-004 -2.827421312364060E-004
 -2.827652259336750E-004 -2.827449875478402E-004
 -2.827431925464898E-004 -2.827670309561894E-004
 -2.827419896923141E-004 -2.827682359473198E-004
 -2.827510579998406E-004 -2.827591506525172E-004
 -2.827527348889767E-004 -2.827575148823286E-004
 -2.827882102643708E-004 -2.827220079944624E-004
 -2.827614202058169E-004 -2.827487844259223E-004
 -2.827543036620826E-004 -2.827559386537916E-004
 -2.827525911024162E-004 -2.827576269400346E-004
 -2.827565311244493E-004 -2.827536885420676E-004
 -2.827490914661168E-004 -2.827611337100857E-004
 -2.827463215089815E-004 -2.827638973343188E-004
 -2.827561211529759E-004 -2.827540998588225E-004
 -2.827617499298063E-004 -2.827484755046810E-004
 -2.827471289818629E-004 -2.827630920718204E-004
 -2.827604903279892E-004 -2.827497620852168E-004
 -2.827704576172312E-004 -2.827397329347858E-004
 -2.827389989685944E-004 -2.827712261657672E-004
 -2.827549410298446E-004 -2.827553040955459E-004
 -2.827560709592541E-004 -2.827541268609393E-004
 -2.827464118470935E-004 -2.827638221184225E-004
 -2.827459968178700E-004 -2.827642372936660E-004
 -2.827591227275970E-004 -2.827511021695284E-004
 -2.827539566559787E-004 -2.827562583641038E-004
 -2.827532740527204E-004 -2.827569589058371E-004
 -2.827496461570348E-004 -2.827605587182872E-004
 -2.827457249800233E-004 -2.827645138607911E-004
 -2.827561200254952E-004 -2.827541320662743E-004
 -2.827473761441543E-004 -2.827629176564960E-004
 -2.827516971577158E-004 -2.827585475716400E-004
 -2.827595330336214E-004 -2.827507117434331E-004
 -2.827535171471825E-004 -2.827568079194038E-004
 -2.827730405303204E-004 -2.827371849279455E-004
 -2.827605488660033E-004 -2.827496874951541E-004
 -2.827555681950499E-004 -2.827547644466889E-004
 -2.827408786735300E-004 -2.827693547140612E-004
 -2.827746168578357E-004 -2.827356198597592E-004
 -2.827569674155307E-004 -2.827533230108313E-004
 -2.827651314765822E-004 -2.827451004977234E-004
 -2.827771911026623E-004 -2.827330562276719E-004
 -2.827540689012103E-004 -2.827562603741504E-004
 -2.827534309508916E-004 -2.827567929440033E-004
 -2.827564351449306E-004 -2.827537989164906E-004
 -2.827530127593951E-004 -2.827573082920348E-004
 -2.827283271162726E-004 -2.827819053306060E-004
 -2.827610424955778E-004 -2.827491981742029E-004
 -2.827522590206031E-004 -2.827580680461586E-004
 -2.827538617232805E-004 -2.827563573422932E-004
 -2.827444946699254E-004 -2.827657443129068E-004
 -2.827519286620288E-004 -2.827583544575084E-004
 -2.827380429346471E-004 -2.827721833063000E-004
 -2.827380585573816E-004 -2.827721775648433E-004
 -2.827535232298097E-004 -2.827568010189330E-004
 -2.827424736281877E-004 -2.827677531341876E-004
 -2.827698104359092E-004 -2.827404207574346E-004
 -2.827570222990522E-004 -2.827532995364492E-004
 -2.827524158198904E-004 -2.827578142074684E-004
 -2.827855058974749E-004 -2.827247501724843E-004
 -2.827477614868599E-004 -2.827625615749683E-004
 -2.827503024587074E-004 -2.827599144174275E-004
 -2.827648765318628E-004 -2.827453625035314E-004
 -2.827510696471863E-004 -2.827591974026293E-004
 -2.827557398432356E-004 -2.827544765043648E-004
 -2.827675773326216E-004 -2.827426710829837E-004
 -2.827550403638928E-004 -2.827552825856399E-004
 -2.827408405519639E-004 -2.827694075529339E-004
 -2.827319596197994E-004 -2.827782722805212E-004
 -2.827697039247152E-004 -2.827405939865779E-004
 -2.827758746915336E-004 -2.827343496302481E-004
 -2.827550407027127E-004 -2.827551938047013E-004
 -2.827569889331254E-004 -2.827533312915720E-004
 -2.827395783375923E-004 -2.827706398124931E-004
 -2.827613279941074E-004 -2.827488954180572E-004
 -2.827485366213248E-004 -2.827617709167212E-004
 -2.827207554217013E-004 -2.827894878435797E-004
 -2.827507021342938E-004 -2.827595155702363E-004
 -2.827438190569645E-004 -2.827664346438286E-004
 -2.827459764364100E-004 -2.827642601116774E-004
 -2.827467472146945E-004 -2.827634778332374E-004
 -2.827634518912675E-004 -2.827468512565289E-004
 -2.827786468709212E-004 -2.827315774021031E-004
 -2.827625543352458E-004 -2.827476558890616E-004
 -2.827511576238995E-004 -2.827590897465766E-004
 -2.827486541152472E-004 -2.827615653197264E-004
 -2.827649893528125E-004 -2.827452455085480E-004
 -2.827503132368398E-004 -2.827599895956095E-004
 -2.827390810905355E-004 -2.827711252836623E-004
 -2.827429325876474E-004 -2.827673032088519E-004
 -2.827611675575952E-004 -2.827490968155060E-004
 -2.827653994087327E-004 -2.827448151998044E-004
 -2.827730833674790E-004 -2.827371317543496E-004
 -2.827492297512313E-004 -2.827610662791230E-004
 -2.827438477737951E-004 -2.827663874948434E-004
 -2.827448317482223E-004 -2.827653878579265E-004
 -2.827618237064747E-004 -2.827484363574826E-004
 -2.827669885640984E-004 -2.827432469411623E-004
 -2.827310903701823E-004 -2.827791459791015E-004
 -2.827664505863769E-004 -2.827438463641130E-004
 -2.827623518460692E-004 -2.827478588170918E-004
 -2.827629341553221E-004 -2.827472872317538E-004
 -2.827493654375603E-004 -2.827608827516156E-004
 -2.827459550219047E-004 -2.827642462729577E-004
 -2.827654533156290E-004 -2.827448070957975E-004
 -2.827451575807598E-004 -2.827651364845268E-004
 -2.827719633445782E-004 -2.827382731974878E-004
 -2.827492796638694E-004 -2.827609887838347E-004
 -2.827564755839138E-004 -2.827538246134603E-004
 -2.827557561199001E-004 -2.827544701960594E-004
 -2.827633188838429E-004 -2.827469351648451E-004
 -2.827541827627215E-004 -2.827560920190697E-004
 -2.827740477789639E-004 -2.827361778071098E-004
 -2.827566777652920E-004 -2.827535749449414E-004
 -2.827625427270391E-004 -2.827477593590835E-004
 -2.827819170152069E-004 -2.827283171095656E-004
 -2.827385590227245E-004 -2.827717050772775E-004
 -2.827679624801143E-004 -2.827423458474802E-004
 -2.827526557388774E-004 -2.827575720853034E-004
 -2.827524193041366E-004 -2.827578358078165E-004
 -2.827615330093620E-004 -2.827487692200896E-004
 -2.827675543435733E-004 -2.827426881041285E-004
 -2.827410660080127E-004 -2.827691811254718E-004
 -2.827634807985354E-004 -2.827467922200986E-004
 -2.827423005953895E-004 -2.827679360477049E-004
 -2.827447848374942E-004 -2.827654792601085E-004
 -2.827472488739117E-004 -2.827630477562698E-004
 -2.827391323435467E-004 -2.827710986718928E-004
 -2.827569924537181E-004 -2.827532627305454E-004
 -2.827615694252495E-004 -2.827487313399887E-004
 -2.827701126179209E-004 -2.827401051508328E-004
 -2.827531140116562E-004 -2.827571307542368E-004
 -2.827678194909835E-004 -2.827424737843053E-004
 -2.827866991838184E-004 -2.827235437566127E-004
 -2.827489358641131E-004 -2.827612973954250E-004
 -2.827515552135155E-004 -2.827586997089010E-004
 -2.827708531909160E-004 -2.827393772714197E-004
 -2.827492017614197E-004 -2.827610561685763E-004
 -2.827686351102245E-004 -2.827416776454130E-004
 -2.827645184569299E-004 -2.827457297548880E-004
 -2.827792489639271E-004 -2.827309928526048E-004
 -2.827387609433773E-004 -2.827715297427559E-004
 -2.827394706695690E-004 -2.827707510044801E-004
 -2.827460400217645E-004 -2.827642073399718E-004
 -2.827661657340289E-004 -2.827441403712858E-004
 -2.827550839525578E-004 -2.827551451735604E-004
 -2.827316748148537E-004 -2.827785857567343E-004
 -2.827762155486048E-004 -2.827340935546666E-004
 -2.827554626989147E-004 -2.827547622575223E-004
 -2.827458764758158E-004 -2.827643576543874E-004
 -2.827580945178999E-004 -2.827521661213046E-004
 -2.827540810167830E-004 -2.827561425233037E-004
 -2.827772363696394E-004 -2.827330076292743E-004
 -2.827424459559429E-004 -2.827678470362213E-004
 -2.827547954633920E-004 -2.827554081009267E-004
 -2.827484477994701E-004 -2.827617776261243E-004
 -2.827608783218434E-004 -2.827493528136324E-004
 -2.827632305507327E-004 -2.827469757041708E-004
 -2.827405806580533E-004 -2.827696475762974E-004
 -2.827705623359795E-004 -2.827397239816240E-004
 -2.827590797495746E-004 -2.827511595748577E-004
 -2.827663303089154E-004 -2.827438905677638E-004
 -2.827476976568555E-004 -2.827625545422537E-004
 -2.827450999220393E-004 -2.827651443899104E-004
 -2.827457947126862E-004 -2.827644459869498E-004
 -2.827683196827910E-004 -2.827419673711878E-004
 -2.827655182037783E-004 -2.827446938813077E-004
 -2.827673107428114E-004 -2.827429266563963E-004
 -2.827466063428309E-004 -2.827636445514662E-004
 -2.827467089443972E-004 -2.827635158603151E-004
 -2.827664847584594E-004 -2.827437491498804E-004
 -2.827443474715070E-004 -2.827659509824727E-004
 -2.827344181615850E-004 -2.827758049869386E-004
 -2.827490366788927E-004 -2.827611836374318E-004
 -2.827626731901474E-004 -2.827475691462728E-004
 -2.827599127946004E-004 -2.827503089670207E-004
 -2.827496971678060E-004 -2.827605621859070E-004
 -2.827511894856765E-004 -2.827590994926784E-004
 -2.827608402734593E-004 -2.827493992624053E-004
 -2.827546476385844E-004 -2.827555821402636E-004
 -2.827766970641474E-004 -2.827335350208040E-004
 -2.827362716122546E-004 -2.827739574612862E-004
 -2.827546850631781E-004 -2.827555475118500E-004
 -2.827170676942261E-004 -2.827931486923312E-004
 -2.827857408737105E-004 -2.827244892163229E-004
 -2.827363627313491E-004 -2.827738742657591E-004
 -2.827723025146666E-004 -2.827379022209413E-004
 -2.827450579842660E-004 -2.827651779039499E-004
 -2.827440363527776E-004 -2.827661825834481E-004
 -2.827492449444174E-004 -2.827609554083239E-004
 -2.827723790404477E-004 -2.827378589129442E-004
 -2.827757055118566E-004 -2.827345497358807E-004
 -2.827273655434837E-004 -2.827828586004812E-004
 -2.827894714360089E-004 -2.827207612125349E-004
 -2.827641219132707E-004 -2.827460825772488E-004
 -2.827771036366548E-004 -2.827331200472375E-004
 -2.827268305525730E-004 -2.827834228817670E-004
 -2.827748765634816E-004 -2.827353089773607E-004
 -2.827491985012231E-004 -2.827610296150404E-004
 -2.827577456729263E-004 -2.827524875393219E-004
 -2.827974084762176E-004 -2.827128215647715E-004
 -2.827445579131412E-004 -2.827656549970783E-004
 -2.827859050704209E-004 -2.827243334887380E-004
 -2.827425638004435E-004 -2.827677534095075E-004
 -2.827647794285122E-004 -2.827454579286683E-004
 -2.827579798570526E-004 -2.827522766225630E-004
 -2.827606197065745E-004 -2.827496758944015E-004
 -2.827526775148314E-004 -2.827575506176146E-004
 -2.827908780570063E-004 -2.827193590321026E-004
 -2.827658762840926E-004 -2.827444300419318E-004
 -2.827285768577277E-004 -2.827816416934815E-004
 -2.827537991581039E-004 -2.827564441068612E-004
 -2.827650733719887E-004 -2.827452452139358E-004
 -2.827606377248030E-004 -2.827495910540887E-004
 -2.827763640644161E-004 -2.827338608838018E-004
 -2.827619113893035E-004 -2.827483650109336E-004
 -2.827352739137422E-004 -2.827749360951005E-004
 -2.827549188801183E-004 -2.827553270965418E-004
 -2.827702296698512E-004 -2.827400633567534E-004
 -2.827277212057808E-004 -2.827825078886844E-004
 -2.827427483846171E-004 -2.827674849573616E-004
 -2.827600489338761E-004 -2.827501834760344E-004
 -2.827538499879241E-004 -2.827563741069827E-004
 -2.827664430468367E-004 -2.827437775631597E-004
 -2.827558617188539E-004 -2.827544433875117E-004
 -2.827371876032978E-004 -2.827730411314618E-004
 -2.827555956622443E-004 -2.827546422200291E-004
 -2.827635329504061E-004 -2.827467391785035E-004
 -2.827558575471769E-004 -2.827544036188515E-004
 -2.827819304870369E-004 -2.827282848600147E-004
 -2.827620968023701E-004 -2.827481899448229E-004
 -2.827657471867666E-004 -2.827444915876514E-004
 -2.827960305244104E-004 -2.827141952987137E-004
 -2.827647997669303E-004 -2.827454330244486E-004
 -2.827463875228531E-004 -2.827638201935198E-004
 -2.827590649363055E-004 -2.827511546781749E-004
 -2.827454049866238E-004 -2.827648868895011E-004
 -2.827435548933276E-004 -2.827666703213719E-004
 -2.827224051442908E-004 -2.827878318169400E-004
 -2.827558301504475E-004 -2.827544580708262E-004
 -2.827612886926287E-004 -2.827489500105176E-004
 -2.827688585322404E-004 -2.827413613542600E-004
 -2.827510897647088E-004 -2.827591690161307E-004
 -2.827527270413526E-004 -2.827575192234229E-004
 -2.827351105916498E-004 -2.827750823513682E-004
 -2.827531882852769E-004 -2.827570871060314E-004
 -2.827410695377823E-004 -2.827691641388231E-004
 -2.827353757395635E-004 -2.827748676434998E-004
 -2.827430394002833E-004 -2.827672573301668E-004
 -2.827877198463738E-004 -2.827225063412753E-004
 -2.827653470290001E-004 -2.827448827189715E-004
 -2.827577250426974E-004 -2.827525672692371E-004
 -2.827454487728935E-004 -2.827647706723704E-004
 -2.827438896140607E-004 -2.827663423686798E-004
 -2.827489432480091E-004 -2.827613113491092E-004
 -2.827730747963943E-004 -2.827371275838706E-004
 -2.827546377047562E-004 -2.827556014465058E-004
 -2.827540092482132E-004 -2.827562740802049E-004
 -2.827743764482054E-004 -2.827358612775011E-004
 -2.827673243609369E-004 -2.827429006244895E-004
 -2.827526095815253E-004 -2.827576391992733E-004
 -2.827424800574133E-004 -2.827677332264865E-004
 -2.827247022217236E-004 -2.827855127288553E-004
 -2.827553011751298E-004 -2.827549378553310E-004
 -2.827618674544737E-004 -2.827483384135172E-004
 -2.827557146178482E-004 -2.827545060817535E-004
 -2.827613253168686E-004 -2.827488964082239E-004
 -2.827618985124462E-004 -2.827483304939666E-004
 -2.827601072391462E-004 -2.827501073807991E-004
 -2.827508615921272E-004 -2.827593663655255E-004
 -2.827554453549328E-004 -2.827547806038875E-004
 -2.827648295617381E-004 -2.827453824173194E-004
 -2.827512316129883E-004 -2.827590089607975E-004
 -2.827867318694929E-004 -2.827234951081012E-004
 -2.827642979317210E-004 -2.827459122990968E-004
 -2.827530655450390E-004 -2.827571710031843E-004
 -2.827520928434584E-004 -2.827581317682678E-004
 -2.827478015789983E-004 -2.827624041389713E-004
 -2.827523331209439E-004 -2.827578943614138E-004
 -2.827464994904577E-004 -2.827637155870006E-004
 -2.827553352963278E-004 -2.827548904097267E-004
 -2.827627789977215E-004 -2.827474366402122E-004
 -2.827479800303699E-004 -2.827622451840797E-004
 -2.827521282448260E-004 -2.827580914894881E-004
 -2.827712480112702E-004 -2.827389554027934E-004
 -2.827704975780284E-004 -2.827397310345988E-004
 -2.827616749181417E-004 -2.827485627825079E-004
 -2.827585668846294E-004 -2.827516477316021E-004
 -2.827585830386015E-004 -2.827516388382860E-004
 -2.827614541661504E-004 -2.827487868297614E-004
 -2.827638618816356E-004 -2.827463681934154E-004
 -2.827500496579597E-004 -2.827601680388487E-004
 -2.827571050937809E-004 -2.827531194160655E-004
 -2.827552090796907E-004 -2.827550034434094E-004
 -2.827548372290917E-004 -2.827553931741575E-004
 -2.827670457721806E-004 -2.827431898275978E-004
 -2.827516590266415E-004 -2.827585534218489E-004
 -2.827554997226560E-004 -2.827547148228177E-004
 -2.827527906651514E-004 -2.827574502414091E-004
 -2.827620104284418E-004 -2.827481905423876E-004
 -2.827386885748619E-004 -2.827715292203010E-004
 -2.827716625566773E-004 -2.827385817677798E-004
 -2.827645095678391E-004 -2.827457261433961E-004
 -2.827445036357448E-004 -2.827657274126745E-004
 -2.827420408838947E-004 -2.827681807112750E-004
 -2.827430514851204E-004 -2.827671695588196E-004
 -2.827655184796563E-004 -2.827447012087109E-004
 -2.827687427729169E-004 -2.827414821725514E-004
 Gradient of SCF Energy
            1           2           3           4           5           6
    1   0.0026428  -0.0019763   0.0001055   0.0029843   0.0002031  -0.0023301
    2  -0.0001028   0.0009222   0.0008693  -0.0004155  -0.0002634   0.0001962
    3   0.0024494  -0.0031652  -0.0060103   0.0039896  -0.0000580   0.0058263
            7           8           9          10          11          12
    1   0.0006204   0.0044027  -0.0006433   0.0044207  -0.0011797  -0.0025194
    2  -0.0000564   0.0000446  -0.0001277  -0.0000695  -0.0001007  -0.0004523
    3  -0.0010035   0.0022943   0.0007675  -0.0038405   0.0012595   0.0017116
           13          14          15          16          17          18
    1  -0.0061787   0.0003655   0.0002973   0.0020293  -0.0046512   0.0007609
    2  -0.0001696  -0.0001058   0.0000438   0.0010368  -0.0001127  -0.0000561
    3  -0.0022564   0.0007103  -0.0036592  -0.0049710  -0.0039762   0.0007700
           19          20          21          22          23          24
    1  -0.0038671   0.0004977  -0.0021509   0.0004312   0.0012539   0.0009815
    2   0.0000140   0.0000485  -0.0031994   0.0004882  -0.0009536   0.0028659
    3   0.0019309   0.0005376   0.0013280   0.0002333   0.0014028  -0.0015359
           25          26          27          28          29          30
    1   0.0001496   0.0012695  -0.0002699  -0.0025872   0.0010612   0.0010873
    2  -0.0011063   0.0008319   0.0003561  -0.0000001   0.0000654   0.0005405
    3   0.0011148   0.0005153  -0.0009308   0.0002414   0.0010167  -0.0003575
           31          32          33          34          35          36
    1   0.0010529  -0.0013041   0.0015490  -0.0000360   0.0003606  -0.0007515
    2  -0.0007754  -0.0028512   0.0016257   0.0005666   0.0002350   0.0000849
    3  -0.0001813   0.0014149   0.0001888  -0.0000048  -0.0005709  -0.0022392
           37          38          39          40          41          42
    1   0.0011982  -0.0000645  -0.0000160   0.0009486   0.0006909  -0.0011414
    2  -0.0000895  -0.0007714   0.0006299   0.0029494  -0.0019600   0.0000047
    3   0.0009177   0.0012083   0.0012378  -0.0018950   0.0020869   0.0008111
           43          44          45          46          47          48
    1  -0.0000960  -0.0003164  -0.0016244  -0.0034154   0.0013790  -0.0017274
    2  -0.0008499  -0.0001163   0.0003735   0.0010131  -0.0002683  -0.0002222
    3  -0.0002407  -0.0001703  -0.0000633  -0.0027304   0.0013970  -0.0045396
           49          50          51          52          53          54
    1   0.0013418   0.0022060  -0.0005313  -0.0003169  -0.0013597  -0.0059037
    2  -0.0008961  -0.0000729  -0.0000268   0.0004505   0.0001682   0.0018352
    3  -0.0029408   0.0030818  -0.0003015   0.0008376   0.0002200  -0.0028670
           55          56          57          58          59          60
    1   0.0038711  -0.0024193  -0.0000742  -0.0023653   0.0038271  -0.0009630
    2  -0.0012386   0.0006245  -0.0000427   0.0013185  -0.0001405  -0.0002118
    3   0.0020238  -0.0027875   0.0007604   0.0008857   0.0073180  -0.0029961
           61          62          63          64          65          66
    1  -0.0014000   0.0014086   0.0051632  -0.0023985   0.0054099  -0.0031523
    2  -0.0001785   0.0000100  -0.0024235   0.0014551  -0.0025728   0.0015967
    3  -0.0045966   0.0044755  -0.0041903   0.0038066  -0.0040258   0.0029158
           67          68          69          70          71          72
    1   0.0055798  -0.0035546   0.0004333  -0.0018378   0.0009496  -0.0036804
    2  -0.0015817   0.0011273  -0.0010406  -0.0000282  -0.0000226   0.0010875
    3   0.0029767  -0.0010669  -0.0008330  -0.0030770   0.0010397  -0.0020004
           73          74          75          76          77          78
    1  -0.0024471   0.0031540  -0.0006459   0.0003242  -0.0001491  -0.0022430
    2   0.0013366  -0.0008545   0.0002075  -0.0001904  -0.0009437  -0.0004297
    3   0.0008757   0.0026246  -0.0007260  -0.0001780  -0.0013876  -0.0057225
           79          80          81          82          83          84
    1   0.0016415  -0.0020069   0.0005585   0.0007958   0.0067133  -0.0029645
    2   0.0003472  -0.0002566  -0.0003822  -0.0012352  -0.0022038   0.0014192
    3   0.0037012  -0.0029608  -0.0000512  -0.0020149   0.0049872  -0.0014722
           85          86          87          88          89          90
    1  -0.0040292   0.0036461  -0.0036867   0.0032067  -0.0031529   0.0025411
    2   0.0021410  -0.0016670   0.0043198  -0.0027430   0.0041582  -0.0025169
    3  -0.0017947   0.0018710   0.0045650  -0.0019064   0.0053468  -0.0028594
           91          92          93          94          95          96
    1   0.0026417  -0.0010382   0.0008814   0.0003522   0.0002165   0.0024802
    2   0.0005873  -0.0006220  -0.0005386   0.0004504   0.0011409   0.0030767
    3   0.0060376  -0.0038971   0.0011815  -0.0005947  -0.0008077   0.0000628
           97          98          99         100         101         102
    1  -0.0009135  -0.0008407  -0.0013235   0.0005511  -0.0015498  -0.0013253
    2  -0.0008277   0.0005432  -0.0035582   0.0002672  -0.0000992   0.0020097
    3  -0.0000550  -0.0006836   0.0003700   0.0005113  -0.0012105  -0.0020910
          103         104         105         106         107         108
    1  -0.0019532  -0.0017881  -0.0013998   0.0005129  -0.0014408   0.0005135
    2  -0.0002192  -0.0025340   0.0035188  -0.0004156   0.0052823  -0.0011309
    3  -0.0021759  -0.0048463  -0.0017860   0.0002608   0.0033176  -0.0004836
          109         110         111         112         113         114
    1  -0.0012870   0.0000969   0.0004799   0.0000829  -0.0013212   0.0033616
    2   0.0017120   0.0004780  -0.0037546   0.0008454   0.0038745  -0.0023427
    3  -0.0024000   0.0005321  -0.0042019   0.0009975   0.0020870   0.0058705
          115         116         117         118         119         120
    1   0.0001100   0.0018584  -0.0002283   0.0033318   0.0002054   0.0010109
    2   0.0003739  -0.0040372  -0.0032001  -0.0038360   0.0002381   0.0016996
    3   0.0002600   0.0002567  -0.0044679   0.0049306   0.0000817   0.0048918
          121         122         123         124         125         126
    1   0.0008009  -0.0004332   0.0005662  -0.0005782   0.0016457  -0.0006202
    2   0.0000108   0.0007256  -0.0001701  -0.0004972  -0.0022852   0.0007188
    3   0.0031715  -0.0008886  -0.0010291  -0.0007410   0.0008924  -0.0006655
          127         128         129         130         131         132
    1  -0.0007809   0.0001264   0.0027681  -0.0023011   0.0008336  -0.0003170
    2   0.0008967   0.0011832   0.0029549  -0.0009871  -0.0013080  -0.0004248
    3   0.0004971   0.0000297   0.0008359  -0.0011021   0.0000964   0.0013057
          133         134         135         136
    1  -0.0012621   0.0006611   0.0007655   0.0004607
    2  -0.0028581   0.0018951   0.0003667   0.0004841
    3   0.0009942  -0.0006767   0.0002532   0.0005603
 Max gradient component =       7.318E-03
 RMS gradient           =       2.162E-03
 Computing fast IEFPCM-SWIG gradient.
 Updating gradient with PCM contributions...
 -- total gradient after adding PCM contribution --
---------------------------------------------------
  Atom         X              Y              Z     
---------------------------------------------------
   1      -0.001064      -0.000217      -0.000303
   2      -0.001892       0.000933      -0.003455
   3      -0.000147       0.001129      -0.005785
   4       0.000913      -0.000135       0.001508
   5      -0.000029      -0.000269       0.000696
   6      -0.000200      -0.000040       0.001824
   7       0.000120       0.000021       0.000251
   8       0.001227      -0.000393       0.001106
   9       0.000314       0.000036       0.000328
  10       0.000982      -0.000101      -0.000466
  11       0.000091      -0.000055       0.000259
  12      -0.000087      -0.000114      -0.001601
  13      -0.001967      -0.000153       0.000052
  14      -0.000193      -0.000078       0.000295
  15       0.000118      -0.000009      -0.000393
  16      -0.000511       0.000923      -0.001830
  17      -0.001077      -0.000201      -0.000585
  18       0.000161      -0.000023       0.000363
  19      -0.000798      -0.000143       0.000721
  20       0.001628      -0.000087       0.001600
  21      -0.000993      -0.000992      -0.000489
  22       0.000322      -0.000426       0.000986
  23       0.000490      -0.000576       0.000558
  24      -0.000774       0.000313      -0.000075
  25       0.000778       0.000305       0.000417
  26       0.000973       0.000532       0.000349
  27      -0.000693      -0.000180      -0.000747
  28      -0.000317      -0.000172      -0.000041
  29       0.000139       0.000046      -0.000021
  30       0.000253       0.000121       0.000426
  31       0.000206      -0.000152       0.000491
  32      -0.000028      -0.000239       0.000318
  33       0.000005       0.000048       0.000124
  34       0.000262      -0.000063       0.000323
  35       0.000255      -0.000078       0.000146
  36      -0.000349      -0.000043       0.000100
  37      -0.000106      -0.000062       0.000342
  38       0.000429      -0.000162       0.000164
  39       0.000428       0.000118       0.000182
  40       0.000157       0.000355       0.000080
  41      -0.000028      -0.000155       0.000106
  42       0.000005      -0.000214       0.000153
  43      -0.000016      -0.000058       0.000322
  44      -0.000078      -0.000047      -0.000046
  45      -0.000495       0.000177      -0.000217
  46      -0.001542       0.000350      -0.000245
  47       0.000891      -0.000033      -0.000208
  48      -0.001946       0.000292      -0.002652
  49      -0.000569       0.000036      -0.002692
  50       0.000151       0.000062       0.001074
  51       0.000742      -0.000175       0.000122
  52      -0.000077       0.000352      -0.000250
  53      -0.000415      -0.000320      -0.000898
  54      -0.000962       0.000195      -0.000093
  55       0.000142       0.000085       0.000424
  56      -0.002728       0.000830      -0.002559
  57       0.000142      -0.000153       0.000566
  58      -0.001128       0.000726      -0.000077
  59       0.001394      -0.000103       0.002326
  60       0.000341      -0.000043       0.000602
  61       0.000034      -0.000071       0.000242
  62       0.000091      -0.000047       0.000168
  63       0.001825      -0.000573       0.000186
  64       0.000384      -0.000079       0.000276
  65       0.001190      -0.000517      -0.000521
  66       0.000220      -0.000053       0.000092
  67       0.001204      -0.000235       0.001430
  68       0.000275      -0.000035       0.000323
  69       0.000452      -0.000425       0.000174
  70      -0.000137      -0.000652      -0.000996
  71       0.000030       0.000648       0.000547
  72      -0.001979      -0.000007      -0.002137
  73      -0.002262       0.000597      -0.001051
  74       0.001012      -0.000627       0.000291
  75       0.000171       0.000551       0.000728
  76      -0.000458       0.000542      -0.000240
  77      -0.001190       0.000023      -0.000591
  78       0.000044      -0.000174      -0.000765
  79       0.000424      -0.000080       0.000198
  80      -0.001809      -0.000518      -0.003286
  81       0.000393      -0.000186       0.000179
  82      -0.000021      -0.000320      -0.000962
  83       0.002134      -0.000402       0.001820
  84       0.000504      -0.000098       0.000406
  85      -0.000002       0.000193       0.000137
  86       0.000141       0.000020       0.000158
  87      -0.000026       0.000905       0.001664
  88       0.000240       0.000024       0.000458
  89      -0.000218       0.000869       0.001450
  90       0.000120       0.000154       0.000261
  91       0.001197      -0.000128       0.001318
  92       0.000296       0.000002       0.000336
  93       0.000837      -0.000318       0.000997
  94       0.000020      -0.000328      -0.000412
  95       0.000083       0.000859      -0.000581
  96       0.000805      -0.000131       0.000118
  97       0.000222       0.000615      -0.000015
  98      -0.001743       0.001182      -0.001912
  99       0.000185      -0.001218       0.000978
 100      -0.000269      -0.000125       0.000083
 101      -0.000435      -0.000288      -0.000300
 102       0.000954      -0.000577       0.001309
 103      -0.001976      -0.000426      -0.002499
 104      -0.001978      -0.002191      -0.004671
 105      -0.000123       0.000927       0.000195
 106       0.000329       0.000521       0.000463
 107      -0.000236       0.001328       0.000793
 108       0.000096       0.000165       0.000148
 109       0.000309       0.000680      -0.000001
 110       0.000195      -0.000100       0.000205
 111       0.000232      -0.000576      -0.000873
 112       0.000063       0.000118       0.000099
 113      -0.001180       0.000416      -0.000582
 114       0.001220      -0.000329       0.002164
 115       0.000328       0.000060       0.000603
 116       0.000843      -0.000835       0.000730
 117      -0.000761       0.000120      -0.001656
 118       0.001213      -0.000897       0.001751
 119       0.000455      -0.000015       0.000529
 120       0.000571       0.000447       0.001889
 121       0.000426      -0.000361       0.001026
 122       0.000140      -0.000139      -0.000111
 123       0.000036       0.000412      -0.000064
 124      -0.000186       0.000291       0.000012
 125       0.000773      -0.000406       0.000764
 126      -0.000049       0.000243       0.000330
 127      -0.000232       0.000120      -0.000163
 128       0.000027       0.000148      -0.000219
 129       0.000556       0.000294       0.000501
 130       0.000082      -0.000040       0.000220
 131       0.000096      -0.000090       0.000452
 132       0.000242      -0.000275       0.000230
 133       0.000298      -0.000298       0.000729
 134       0.000214       0.000068       0.000182
 135       0.000171       0.000082       0.000135
 136       0.000016       0.000047       0.000152
---------------------------------------------------
 Number of fixed atoms: 0
 Gradient time:  CPU 1913.61 s  wall 679.10 s
 Geometry Optimization Parameters
   NAtoms,    NIC,     NZ,  NCons,   NDum,   NFix, NCnnct, MaxDiis
      136    1088     136       0       0       0       0       0


** GEOMETRY OPTIMIZATION IN DELOCALIZED INTERNAL COORDINATES **
   Searching for a Minimum

   Optimization Cycle:   1

                       Coordinates (Angstroms)
     ATOM                X               Y               Z
      1  N         0.0000000000    0.0000000000    0.0000000000
      2  C         0.0000000000    0.0000000000    1.3791240000
      3  C         1.3103457695    0.0000000000   -0.4415189494
      4  C         1.8213050063   -0.0591221179   -1.7315433281
      5  H         1.1728350049   -0.0823323041   -2.5971931018
      6  C         3.1951818991   -0.0999408802   -1.8761873374
      7  H         3.6093772643   -0.1478477191   -2.8765655502
      8  C        -1.0678209002    0.0036031031    2.2708917729
      9  H        -2.0937727642    0.0135943053    1.9277438463
     10  C        -0.7794275241   -0.0077655135    3.6217280956
     11  H        -1.6010013365   -0.0097857370    4.3289598767
     12  C         1.3240478729    0.0032441165    1.8387847162
     13  C         1.5828225834   -0.0088269661    3.2074467846
     14  H         2.6058312937   -0.0133515708    3.5665194633
     15  C         0.5358183097   -0.0192406106    4.1122323584
     16  C         2.1630501145    0.0049598654    0.6719774110
     17  C         3.5415991170   -0.0361498281    0.4957286554
     18  H         4.1982610420   -0.0380759844    1.3587311608
     19  C         4.0726296308   -0.0881652671   -0.7804802676
     20  C        -1.1418731949   -0.0348599728   -0.8203267910
     21  C        -1.3509487759    0.9791397041   -1.7413683307
     22  H        -0.6488907422    1.8032227332   -1.7896764870
     23  C        -2.4472321667    0.9403873365   -2.5901252872
     24  C        -2.0491666911   -1.0789617567   -0.7175733942
     25  H        -1.8709449831   -1.8702909653    0.0013678304
     26  C        -3.1642855564   -1.1218386682   -1.5460335139
     27  C        -3.3601772067   -0.1179667349   -2.5014997448
     28  C         5.5570101314   -0.1479770670   -1.0011102942
     29  H         6.1010250978   -0.0854801471   -0.0591279238
     30  H         5.9041901540    0.6704722500   -1.6337875736
     31  H         5.8525705566   -1.0796105919   -1.4870961270
     32  C        -2.6510116345    2.0318885354   -3.6021216091
     33  H        -1.8933038686    2.8093710340   -3.5123112598
     34  H        -3.6259562245    2.5096201487   -3.4853085219
     35  H        -2.6018176560    1.6431373058   -4.6220133289
     36  C         0.7843810907   -0.0428827791    5.5937709173
     37  H         1.8500833528   -0.0619523569    5.8195096490
     38  H         0.3365772973   -0.9215188699    6.0615024403
     39  H         0.3621748546    0.8348470870    6.0864412671
     40  C        -4.1438835570   -2.2567954662   -1.4354222434
     41  H        -3.8477055028   -2.9761316001   -0.6724836338
     42  H        -5.1425505231   -1.8982883209   -1.1771476764
     43  H        -4.2358383396   -2.8004281919   -2.3782660748
     44  B        -4.5409757510   -0.1647005813   -3.5334591926
     45  C        -5.9027747445    0.5071520823   -3.2310632789
     46  C        -6.2083600545    0.9206505735   -1.9346615874
     47  H        -5.4780210722    0.7947667261   -1.1419708104
     48  C        -7.4445089737    1.4751940062   -1.6675540624
     49  C        -8.3840655698    1.6727310982   -2.7040826588
     50  C        -8.0651012783    1.3126724012   -4.0021528787
     51  H        -8.7697880785    1.4901879552   -4.8066775487
     52  C        -6.8349473764    0.7058701714   -4.2752623755
     53  C        -8.0394131326    1.9189783397   -0.4104853057
     54  C        -7.6315785209    1.9466710128    0.8974258597
     55  H        -6.6497867889    1.6034516089    1.2000576687
     56  C        -9.3305803867    2.3740330668   -0.7296376587
     57  C       -10.2382253517    2.8507525355    0.2097199567
     58  C        -9.5925797328    2.2503909657   -2.1072803642
     59  C       -10.8256402134    2.6287111778   -2.5663525384
     60  H       -11.0954805910    2.5518156861   -3.6119397946
     61  C        -8.5309315873    2.4345778239    1.8737917944
     62  H        -8.2112671282    2.4565769551    2.9074768659
     63  C        -9.7941701933    2.8743913901    1.5544987649
     64  H       -10.4520981115    3.2345491333    2.3358556182
     65  C       -11.5021328531    3.2392970780   -0.2938201051
     66  H       -12.2607958446    3.6203910004    0.3786506015
     67  C       -11.7710081073    3.1262340302   -1.6375299305
     68  H       -12.7446218825    3.4237633502   -2.0038051050
     69  C        -4.3073680485   -0.8434861624   -4.9091329900
     70  C        -3.1729274360   -1.6265310010   -5.1163393754
     71  H        -2.4560474046   -1.7685741933   -4.3146306719
     72  C        -2.9647527654   -2.2156856774   -6.3468879867
     73  C        -3.8646700599   -2.0018493171   -7.4152744862
     74  C        -4.9748448600   -1.1956962640   -7.2253965954
     75  H        -5.6569304243   -0.9961723874   -8.0442503957
     76  C        -5.2185139644   -0.6286528614   -5.9693697533
     77  C        -1.8865027880   -3.0816324120   -6.8102647092
     78  C        -0.7624203720   -3.6177139491   -6.2377865457
     79  H        -0.4985386349   -3.4294853754   -5.2040958334
     80  C        -2.1680238508   -3.3682382563   -8.1563582002
     81  C        -1.3671943288   -4.1727258059   -8.9592595949
     82  C        -3.3556013805   -2.7394381638   -8.5775721817
     83  C        -3.7571170407   -2.9272875594   -9.8730018246
     84  H        -4.6587713066   -2.4734648177  -10.2641963216
     85  C         0.0701454432   -4.4405570489   -7.0308039518
     86  H         0.9581405181   -4.8654673325   -6.5810838600
     87  C        -0.2110723012   -4.7164803367   -8.3483876190
     88  H         0.4550042901   -5.3523452796   -8.9186082076
     89  C        -1.8070160257   -4.3483481676  -10.2919050872
     90  H        -1.2335832349   -4.9607556428  -10.9768446596
     91  C        -2.9637496732   -3.7398133852  -10.7187580337
     92  H        -3.2847025835   -3.8846162456  -11.7417664802
     93  B        -6.4522214051    0.2825250077   -5.7243026391
     94  C        -7.2606047618    0.8848088067   -6.9235016209
     95  C        -8.4075304057    0.2826768750   -7.4462268904
     96  C        -9.1322396882    0.9276773496   -8.4428105209
     97  H       -10.0457070762    0.4865466520   -8.8242004186
     98  C        -8.7077432292    2.1530588661   -8.9336851684
     99  C        -7.5459514645    2.7327936841   -8.4424401788
    100  H        -7.2094660885    3.6800685978   -8.8470008019
    101  C        -6.8248935164    2.1145345339   -7.4323689873
    102  N        -9.4571136360    2.8258695216   -9.9168609665
    103  C        -9.9583440285    4.1041544072   -9.7905127831
    104  C        -9.6871673893    2.3920131868  -11.2060957455
    105  C        -9.2994852065    1.2027557385  -11.8086010978
[...]
  0.275   0.275   0.284   0.286   0.287   0.289   0.289   0.291
  0.292   0.299   0.303   0.309   0.310   0.311   0.311   0.314
  0.315   0.316   0.316   0.321   0.324   0.325   0.326   0.332
  0.332   0.334   0.344   0.347   0.352   0.358   0.361   0.363
  0.364   0.371   0.374   0.375   0.376   0.384   0.387   0.389
  0.391   0.397   0.400   0.405   0.409   0.412   0.413   0.415
  0.421   0.425   0.430   0.432   0.435   0.447   0.448   0.449
  0.455   0.457   0.459   0.460   0.463   0.463   0.465   0.468
  0.475   0.480   0.482   0.487   0.488   0.488   0.489   0.490
  0.493   0.495   0.496   0.502   0.505   0.505   0.506   0.508
  0.512   0.513   0.514   0.515   0.515   0.521   0.523   0.523
  0.524   0.525   0.528   0.528   0.530   0.533   0.535   0.537
  0.540   0.541   0.544   0.546   0.547   0.548   0.551   0.552
  0.554   0.556   0.559   0.561   0.562   0.566   0.568   0.570
  0.571   0.572   0.574   0.575   0.576   0.577   0.580   0.580
  0.580   0.583   0.584   0.584   0.585   0.586   0.586   0.589
  0.591   0.591   0.592   0.594   0.595   0.599   0.600   0.601
  0.602   0.604   0.606   0.608   0.610   0.611   0.615   0.615
  0.616   0.618   0.618   0.619   0.619   0.623   0.624   0.626
  0.627   0.629   0.629   0.629   0.631   0.632   0.635   0.636
  0.639   0.640   0.641   0.643   0.649   0.650   0.651   0.652
  0.653   0.657   0.658   0.664   0.668   0.674   0.675   0.676
  0.678   0.680   0.683   0.686   0.688   0.689   0.690   0.691
  0.691   0.692   0.697   0.700   0.704   0.707   0.708   0.711
  0.714   0.718   0.720   0.721   0.722   0.723   0.724   0.726
  0.729   0.731   0.731   0.736   0.739   0.741   0.743   0.748
  0.750   0.752   0.755   0.756   0.758   0.760   0.761   0.763
  0.765   0.766   0.771   0.772   0.775   0.776   0.777   0.778
  0.781   0.782   0.787   0.787   0.793   0.795   0.796   0.800
  0.803   0.807   0.810   0.812   0.818   0.821   0.824   0.828
  0.830   0.834   0.838   0.844   0.849   0.853   0.855   0.859
  0.871   0.873   0.876   0.878   0.880   0.896   0.899   0.904
  0.906   0.914   0.916   0.919   0.921   0.923   0.925   0.934
  0.938   0.940   0.944   0.948   0.948   0.951   0.955   0.955
  0.959   0.961   0.962   0.963   0.968   0.972   0.975   0.980
  0.983   0.983   0.989   0.990   0.991   0.992   0.993   0.997
  1.000   1.001   1.002   1.006   1.009   1.012   1.015   1.017
  1.018   1.019   1.019   1.021   1.025   1.025   1.028   1.030
  1.033   1.037   1.037   1.038   1.039   1.042   1.043   1.047
  1.052   1.054   1.054   1.056   1.056   1.057   1.058   1.059
  1.062   1.063   1.067   1.068   1.070   1.071   1.071   1.072
  1.080   1.081   1.083   1.084   1.085   1.087   1.088   1.092
  1.093   1.095   1.099   1.104   1.104   1.108   1.111   1.113
  1.117   1.118   1.120   1.124   1.127   1.133   1.133   1.136
  1.137   1.139   1.141   1.142   1.143   1.145   1.146   1.151
  1.154   1.157   1.160   1.161   1.166   1.168   1.173   1.180
  1.182   1.184   1.186   1.194   1.198   1.199   1.200   1.202
  1.207   1.208   1.219   1.223   1.231   1.232   1.236   1.242
  1.244   1.250   1.253   1.259   1.263   1.267   1.268   1.275
  1.278   1.279   1.282   1.292   1.293   1.298   1.299   1.301
  1.303   1.305   1.308   1.312   1.313   1.318   1.319   1.323
  1.325   1.329   1.332   1.333   1.334   1.342   1.347   1.350
  1.353   1.355   1.358   1.363   1.372   1.374   1.375   1.377
  1.378   1.379   1.380   1.381   1.389   1.395   1.395   1.401
  1.402   1.405   1.408   1.412   1.418   1.422   1.434   1.435
  1.438   1.438   1.441   1.441   1.444   1.447   1.449   1.451
  1.452   1.461   1.462   1.471   1.478   1.484   1.489   1.496
  1.500   1.505   1.507   1.510   1.511   1.511   1.512   1.515
  1.516   1.516   1.522   1.526   1.526   1.529   1.529   1.530
  1.534   1.536   1.538   1.540   1.540   1.543   1.545   1.547
  1.549   1.552   1.553   1.556   1.560   1.560   1.562   1.564
  1.567   1.569   1.570   1.572   1.575   1.575   1.579   1.586
  1.590   1.596   1.598   1.603   1.605   1.610   1.614   1.627
  1.635   1.642   1.644   1.647   1.656   1.665   1.679   1.686
  1.694   1.710   1.729   1.737   1.743   1.746   1.761   1.776
  1.778   1.789   1.794   1.803   1.804   1.804   1.806   1.808
  1.809   1.811   1.814   1.815   1.821   1.825   1.827   1.828
  1.833   1.840   1.842   1.845   1.854   1.855   1.872   1.880
  1.882   1.885   1.891   1.899   1.899   1.900   1.900   1.903
  1.904   1.911   1.914   1.916   1.916   1.918   1.920   1.921
  1.924   1.928   1.929   1.933   1.936   1.938   1.940   1.941
  1.943   1.944   1.945   1.947   1.948   1.957   1.958   1.959
  1.962   1.962   1.969   1.974   1.979   1.981   1.982   1.983
  1.985   1.988   1.991   1.993   2.002   2.011   2.023   2.026
  2.028   2.036   2.040   2.045   2.058   2.060   2.065   2.069
  2.071   2.077   2.078   2.080   2.082   2.083   2.094   2.095
  2.108   2.109   2.116   2.119   2.121   2.127   2.128   2.131
  2.135   2.136   2.137   2.146   2.151   2.153   2.154   2.157
  2.159   2.166   2.171   2.177   2.180   2.182   2.183   2.187
  2.196   2.199   2.200   2.211   2.214   2.216   2.216   2.219
  2.225   2.229   2.230   2.236   2.238   2.241   2.242   2.247
  2.249   2.250   2.255   2.257   2.265   2.267   2.269   2.272
  2.273   2.274   2.276   2.280   2.282   2.284   2.287   2.288
  2.295   2.298   2.305   2.308   2.319   2.319   2.320   2.322
  2.331   2.335   2.336   2.337   2.340   2.341   2.343   2.343
  2.345   2.347   2.347   2.349   2.351   2.353   2.356   2.365
  2.366   2.369   2.374   2.378   2.380   2.383   2.384   2.388
  2.390   2.392   2.399   2.403   2.405   2.406   2.409   2.409
  2.410   2.414   2.416   2.417   2.421   2.430   2.434   2.436
  2.444   2.448   2.450   2.451   2.455   2.457   2.464   2.472
  2.474   2.476   2.479   2.484   2.485   2.486   2.490   2.491
  2.491   2.494   2.494   2.497   2.506   2.512   2.513   2.533
  2.542   2.549   2.561   2.575   2.583   2.589   2.609   2.624
  2.627   2.630   2.639   2.640   2.641   2.654   2.657   2.659
  2.662   2.677   2.680   2.684   2.692   2.697   2.706   2.709
  2.713   2.721   2.725   2.726   2.726   2.728   2.729   2.734
  2.742   2.744   2.747   2.747   2.756   2.762   2.772   2.776
  2.783   2.784   2.788   2.788   2.788   2.792   2.793   2.796
  2.797   2.798   2.802   2.805   2.808   2.810   2.811   2.817
  2.833   2.835   2.836   2.838   2.842   2.850   2.865   2.866
  2.875   2.885   2.888   2.893   2.893   2.897   2.901   2.903
  2.923   2.928   2.930   2.933   2.935   2.943   2.945   2.947
  2.948   2.950   2.956   2.975   2.978   2.991   3.001   3.005
  3.014   3.031   3.041   3.044   3.049   3.053   3.058   3.067
  3.078   3.082   3.109   3.135   3.138   3.227   3.245   3.249
  3.252   3.274   3.337   3.345   3.397   3.433   3.435   3.440
  3.446   3.458   3.467   3.485   3.489   3.490   3.555   3.568
  3.619   3.619   3.662   3.675   9.576   9.716  13.138  13.172
 13.230  13.231  13.427  13.429  13.430  13.491  13.509  13.519
 13.523  13.541  13.675  13.677  13.692  13.696  13.714  13.721
 13.726  13.768  13.770  13.786  13.790  13.801  13.850  13.855
 13.882  13.892  13.895  13.896  13.908  13.920  13.934  13.935
 13.940  13.991  13.994  13.998  14.001  14.004  14.028  14.039
 14.115  14.127  14.130  14.156  14.157  14.186  14.186  14.191
 14.211  14.230  14.234  14.236  14.238  14.254  14.269  14.270
 14.302  14.305  14.320  14.321  14.327  14.336  14.508  14.512
 14.562  14.565  14.567  14.568  14.579  14.580  14.598  14.600
 14.604  14.605  19.576  19.589
 --------------------------------------------------------------
 
          Ground-State Mulliken Net Atomic Charges

     Atom                 Charge (a.u.)
  ----------------------------------------
      1 N                    -0.712307
      2 C                     0.312240
      3 C                     0.301997
      4 C                    -0.287505
      5 H                     0.253965
      6 C                    -0.301268
      7 H                     0.237658
      8 C                    -0.286509
      9 H                     0.254881
     10 C                    -0.301787
     11 H                     0.238356
     12 C                     0.084580
     13 C                    -0.424624
     14 H                     0.232526
     15 C                     0.097784
     16 C                     0.108194
     17 C                    -0.427295
     18 H                     0.232214
     19 C                     0.098800
     20 C                     0.281370
     21 C                    -0.364415
     22 H                     0.251631
     23 C                     0.043694
     24 C                    -0.341483
     25 H                     0.253999
     26 C                     0.035979
     27 C                    -0.206934
     28 C                    -0.720142
     29 H                     0.238732
     30 H                     0.238278
     31 H                     0.238195
     32 C                    -0.770959
     33 H                     0.255806
     34 H                     0.250542
     35 H                     0.250711
     36 C                    -0.720200
     37 H                     0.238633
     38 H                     0.238338
     39 H                     0.238363
     40 C                    -0.774904
     41 H                     0.257933
     42 H                     0.251804
     43 H                     0.252373
     44 B                     0.706297
     45 C                    -0.158576
     46 C                    -0.397806
     47 H                     0.246819
     48 C                     0.093087
     49 C                     0.067845
     50 C                    -0.385886
     51 H                     0.248255
     52 C                    -0.156408
     53 C                     0.177916
     54 C                    -0.395219
     55 H                     0.252250
     56 C                    -0.063687
     57 C                     0.220264
     58 C                     0.177023
     59 C                    -0.385473
     60 H                     0.252660
     61 C                    -0.231649
     62 H                     0.257911
     63 C                    -0.348850
     64 H                     0.255709
     65 C                    -0.344405
     66 H                     0.255341
     67 C                    -0.234436
     68 H                     0.258709
     69 C                    -0.156990
     70 C                    -0.393630
     71 H                     0.247761
     72 C                     0.092066
     73 C                     0.068744
     74 C                    -0.384650
     75 H                     0.248242
     76 C                    -0.156760
     77 C                     0.178728
     78 C                    -0.394135
     79 H                     0.252010
     80 C                    -0.064619
     81 C                     0.219416
     82 C                     0.177868
     83 C                    -0.387285
     84 H                     0.252364
     85 C                    -0.231858
     86 H                     0.257851
     87 C                    -0.348066
     88 H                     0.255567
     89 C                    -0.344535
     90 H                     0.255298
     91 C                    -0.234036
     92 H                     0.258603
     93 B                     0.704824
     94 C                    -0.216033
     95 C                     0.038350
     96 C                    -0.366906
     97 H                     0.257532
     98 C                     0.315653
     99 C                    -0.367184
    100 H                     0.255186
    101 C                     0.049850
    102 N                    -0.731720
    103 C                     0.316386
    104 C                     0.314119
    105 C                    -0.285006
    106 H                     0.256655
    107 C                    -0.300854
    108 H                     0.238192
    109 C                    -0.287612
    110 H                     0.255546
    111 C                    -0.301452
    112 H                     0.238049
    113 C                     0.088113
    114 C                    -0.422442
    115 H                     0.232195
    116 C                     0.097298
    117 C                     0.087875
    118 C                    -0.423087
    119 H                     0.231966
    120 C                     0.097079
    121 C                    -0.719873
    122 H                     0.238508
    123 H                     0.237703
    124 H                     0.238863
    125 C                    -0.720140
    126 H                     0.238422
    127 H                     0.237626
    128 H                     0.238739
    129 C                    -0.775508
    130 H                     0.258019
    131 H                     0.251878
    132 H                     0.252561
    133 C                    -0.770699
    134 H                     0.255572
    135 H                     0.250741
    136 H                     0.250129
  ----------------------------------------
  Sum of atomic charges =    -0.000000

 -----------------------------------------------------------------
                    Cartesian Multipole Moments
 -----------------------------------------------------------------
    Charge (ESU x 10^10)
                -0.0000
    Dipole Moment (Debye)
         X      -0.8140      Y      -0.7111      Z       0.0079
       Tot       1.0809
    Quadrupole Moments (Debye-Ang)
        XX    -416.3666     XY     -27.3955     YY    -438.2388
        XZ     -31.0584     YZ      22.5502     ZZ    -420.0669
    Octopole Moments (Debye-Ang^2)
       XXX    6277.3978    XXY     -80.3348    XYY    2130.3561
       YYY   -1114.4445    XXZ    2235.2276    XYZ     -42.5228
       YYZ    2105.6516    XZZ    2259.6751    YZZ    -740.7750
       ZZZ    6115.1903
    Hexadecapole Moments (Debye-Ang^3)
      XXXX -119250.9376   XXXY   11889.4500   XXYY  -21576.2438
      XYYY   16701.2108   YYYY  -17857.2462   XXXZ  -46981.8257
      XXYZ    2578.8426   XYYZ  -15337.3647   YYYZ    7752.6782
      XXZZ  -40803.3521   XYZZ    6380.5048   YYZZ  -23625.3678
      XZZZ  -46999.3814   YZZZ   13026.1250   ZZZZ -121699.1848
 -----------------------------------------------------------------
Archival summary:
1\1\ctcp037\OPT\ProcedureUnspecified\BasisUnspecified\276256\mewes1\WedDec1908:32:422018WedDec1908:32:422018\0\\#,OPT,ProcedureUnspecified,BasisUnspecified,\\0,1\N\C,1,1.38129\C,1,1.38206,2,108.41\C,3,1.39021,1,130.005,2,177.233,0\H,4,1.08216,3,121.718,1,1.62874,0\C,4,1.38315,3,117.703,1,-177.972,0\H,6,1.08393,4,118.538,3,179.897,0\C,2,1.39234,1,129.872,3,179.635,0\H,8,1.08217,2,121.832,1,0.130431,0\C,8,1.38256,2,117.829,1,179.958,0\H,10,1.08408,8,118.542,2,-179.799,0\C,2,1.40331,1,109.317,3,0.296157,0\C,12,1.39458,2,120.096,1,-179.806,0\H,13,1.08452,12,120.059,2,179.697,0\C,13,1.38489,12,119.972,2,-0.126003,0\C,3,1.40472,1,109.018,2,-0.319837,0\C,16,1.39273,3,120.094,1,178.486,0\H,17,1.08453,16,119.995,3,-179.596,0\C,17,1.38475,16,119.892,3,-0.194004,0\C,1,1.41104,2,125.047,3,173.183,0\C,20,1.38663,1,120.556,2,125.31,0\H,21,1.08398,20,119.786,1,-0.152628,0\C,20,1.38756,1,119.436,2,-54.0424,0\H,23,1.0838,20,119.565,1,-1.89261,0\C,23,1.38824,20,120.493,1,177.949,0\C,21,1.39129,20,120.148,1,-179.148,0\C,26,1.39949,21,120.09,20,1.05585,0\C,26,1.50195,21,120.093,20,179.736,0\H,28,1.08929,26,111.833,21,2.33137,0\H,28,1.09209,26,111.262,21,122.718,0\H,28,1.09242,26,111.264,21,-117.991,0\C,19,1.50248,17,121.08,16,179.794,0\H,32,1.08958,19,111.342,17,4.40649,0\H,32,1.09129,19,111.586,17,124.715,0\H,32,1.09163,19,111.495,17,-115.675,0\C,15,1.5028,13,121.207,12,179.251,0\H,36,1.08953,15,111.385,13,4.35353,0\H,36,1.09127,15,111.565,13,124.692,0\H,36,1.09165,15,111.459,13,-115.733,0\C,25,1.50285,23,119.727,20,-178.548,0\H,40,1.08947,25,111.646,23,-1.42949,0\H,40,1.0919,25,111.598,23,-121.769,0\H,40,1.09248,25,111.32,23,118.619,0\B,27,1.57404,26,121.656,21,177.307,0\C,44,1.55167,27,119.499,26,-89.8948,0\C,45,1.39511,44,119.642,27,3.34636,0\H,46,1.0846,45,120.132,44,2.6018,0\C,46,1.38148,45,119.851,44,-175.864,0\C,48,1.41305,46,120.647,45,-0.370784,0\C,49,1.38575,48,119.811,46,-0.327177,0\H,50,1.0842,49,119.988,48,179.237,0\C,50,1.40019,49,120.07,48,0.671025,0\C,48,1.46011,46,130.616,45,176.054,0\C,53,1.37195,48,135.015,46,1.12741,0\H,54,1.08325,53,122.002,48,1.99054,0\C,53,1.40609,48,105.961,46,-176.595,0\C,56,1.39163,53,123.782,48,177.616,0\C,56,1.40905,53,111.517,48,-0.310572,0\C,58,1.37102,56,118.185,53,178.293,0\H,59,1.0829,58,121.95,56,-179.339,0\C,54,1.41532,53,118.419,48,-177.542,0\H,61,1.08238,54,118.555,53,179.95,0\C,61,1.37655,54,122.307,53,0.408936,0\H,63,1.08327,61,119.859,54,179.418,0\C,57,1.41561,56,115.981,53,-178.264,0\H,65,1.08322,57,120.066,56,179.889,0\C,65,1.3765,57,119.947,56,0.333315,0\H,67,1.08213,65,118.933,57,179.651,0\C,44,1.55209,27,120.737,26,94.2949,0\C,69,1.39433,44,119.494,27,-3.08482,0\H,70,1.08473,69,120.099,44,-2.33181,0\C,70,1.38167,69,119.848,44,176.038,0\C,72,1.4129,70,120.827,69,0.591688,0\C,73,1.38674,72,119.648,70,0.0819321,0\H,74,1.0847,73,120.203,72,-179.162,0\C,74,1.40022,73,120.033,72,-0.661827,0\C,72,1.45844,70,130.364,69,-176.197,0\C,77,1.37146,72,134.8,70,-0.814552,0\H,78,1.08338,77,121.981,72,-1.96604,0\C,77,1.40584,72,105.999,70,176.884,0\C,80,1.39088,77,123.69,72,-177.718,0\C,80,1.40937,77,111.467,72,0.287918,0\C,82,1.37064,80,118.139,77,-178.44,0\H,83,1.08282,82,121.97,80,179.469,0\C,78,1.41486,77,118.326,72,177.576,0\H,85,1.08235,78,118.586,77,-179.945,0\C,85,1.37678,78,122.268,77,-0.360252,0\H,87,1.0832,85,119.816,78,-179.48,0\C,81,1.41567,80,115.869,77,178.354,0\H,89,1.08313,81,120.077,80,-179.921,0\C,89,1.37668,81,119.951,80,-0.319396,0\H,91,1.08209,89,118.903,81,-179.691,0\B,76,1.55636,74,120.555,73,-175.969,0\C,93,1.57135,76,120.839,74,1.81386,0\C,94,1.39868,93,121.222,76,-95.8548,0\C,95,1.39244,94,119.878,93,-176.781,0\H,96,1.08378,95,120.14,94,-179.871,0\C,96,1.38565,95,120.236,94,0.863981,0\C,98,1.38894,96,120.035,95,-1.43652,0\H,99,1.08423,98,119.797,96,179.34,0\C,99,1.38824,98,120.424,96,0.635136,0\N,98,1.41773,96,120.509,95,175.419,0\C,102,1.38276,98,124.798,96,128.875,0\C,102,1.38444,98,122.868,96,-77.931,0\C,104,1.39003,102,128.841,98,17.7429,0\H,105,1.0825,104,121.564,102,2.95168,0\C,105,1.38192,104,117.624,102,-176.092,0\H,107,1.08402,105,118.741,104,179.479,0\C,103,1.39006,102,128.861,98,-19.98,0\H,109,1.08258,103,121.574,102,-1.5012,0\C,109,1.38186,103,117.581,102,177.48,0\H,111,1.08399,109,118.751,103,-179.272,0\C,104,1.40208,102,109.606,98,-158.554,0\C,113,1.39364,104,119.627,102,176.867,0\H,114,1.08409,113,120.059,104,-178.899,0\C,114,1.38583,113,119.954,104,-0.378816,0\C,103,1.40254,102,109.64,98,158.223,0\C,117,1.39353,103,119.647,102,-178.074,0\H,118,1.0841,117,120.092,103,179.06,0\C,118,1.3857,117,119.897,103,0.379056,0\C,120,1.50224,118,121.208,117,178.466,0\H,121,1.08941,120,111.483,118,0.506113,0\H,121,1.09137,120,111.569,118,120.915,0\H,121,1.09157,120,111.331,118,-119.614,0\C,116,1.50241,114,121.276,113,-178.502,0\H,125,1.08938,116,111.495,114,-2.05054,0\H,125,1.09128,116,111.584,114,-122.48,0\H,125,1.0916,116,111.272,114,118.061,0\C,95,1.50276,94,119.759,93,2.72451,0\H,129,1.08925,95,111.83,94,177.154,0\H,129,1.0922,95,111.391,94,56.6653,0\H,129,1.0925,95,111.186,94,-62.5964,0\C,101,1.50367,99,120,98,179.249,0\H,133,1.08934,101,111.656,99,-0.946119,0\H,133,1.09206,101,111.459,99,119.424,0\H,133,1.09252,101,111.46,99,-121.114,0\\\@

 Total job time:  76560.62s(wall), 287682.38s(cpu) 
 Wed Dec 19 08:32:42 2018

        *************************************************************
        *                                                           *
        *  Thank you very much for using Q-Chem.  Have a nice day.  *
        *                                                           *
        *************************************************************


0 sent ACK to 0 
now end server 0 ... 
