mFile = /cm/shared/apps/q-chem/intel/QCHEM_5.1.0_Trunk/bin/mpi/machines
Process 0 of 1 is on ctcp043 - thread support 0
initial socket setup ...start
initial socket setup ...done 
now start server 0 ... 
Q-Chem Developer Version!
                  Welcome to Q-Chem
     A Quantum Leap Into The Future Of Chemistry


 Q-Chem 5.1, Q-Chem, Inc., Pleasanton, CA (2018)

 Yihan Shao,  Zhengting Gan,  E. Epifanovsky,  A. T. B. Gilbert,  M. Wormit,  
 J. Kussmann,  A. W. Lange,  A. Behn,  Jia Deng,  Xintian Feng,  D. Ghosh,  
 M. Goldey,  P. R. Horn,  L. D. Jacobson,  I. Kaliman,  T. Kus,  A. Landau,  
 Jie Liu,  E. I. Proynov,  R. M. Richard,  R. P. Steele,  E. J. Sundstrom,  
 H. L. Woodcock III,  P. M. Zimmerman,  D. Zuev,  B. Albrecht,  E. Alguire,  
 S. A. Baeppler,  D. Barton,  Z. Benda,  Y. A. Bernard,  E. J. Berquist,  
 K. B. Bravaya,  H. Burton,  D. Casanova,  Chun-Min Chang,  Yunqing Chen,  
 A. Chien,  K. D. Closser,  M. P. Coons,  S. Coriani,  S. Dasgupta,  
 A. L. Dempwolff,  M. Diedenhofen,  Hainam Do,  R. G. Edgar,  Po-Tung Fang,  
 S. Faraji,  S. Fatehi,  Qingguo Feng,  K. D. Fenk,  J. Fosso-Tande,  
 Qinghui Ge,  A. Ghysels,  G. Gidofalvi,  J. Gomes,  J. Gonthier,  A. Gunina,  
 D. Hait,  M. W. D. Hanson-Heine,  P. H. P. Harbach,  A. W. Hauser,  
 J. E. Herr,  E. G. Hohenstein,  Z. C. Holden,  Kerwin Hui,  B. C. Huynh,  
 T.-C. Jagau,  Hyunjun Ji,  B. Kaduk,  K. Khistyaev,  Jaehoon Kim,  
 P. Klunzinger,  K. Koh,  D. Kosenkov,  L. Koulias,  T. Kowalczyk,  
 C. M. Krauter,  A. Kunitsa,  Ka Un Lao,  A. Laurent,  K. V. Lawler,  
 Joonho Lee,  D. Lefrancois,  S. Lehtola,  D. S. Levine,  Yi-Pei Li,  
 You-Sheng Lin,  Fenglai Liu,  E. Livshits,  A. Luenser,  P. Manohar,  
 E. Mansoor,  S. F. Manzer,  Shan-Ping Mao,  Yuezhi Mao,  N. Mardirossian,  
 A. V. Marenich,  T. Markovich,  L. A. Martinez-Martinez,  S. A. Maurer,  
 N. J. Mayhall,  S. C. McKenzie,  J.-M. Mewes,  A. F. Morrison,  
 J. W. Mullinax,  K. Nanda,  T. S. Nguyen-Beck,  R. Olivares-Amaya,  
 J. A. Parkhill,  T. M. Perrine,  F. Plasser,  P. Pokhilko,  S. Prager,  
 A. Prociuk,  E. Ramos,  D. R. Rehn,  F. Rob,  M. Schneider,  N. Sergueev,  
 S. M. Sharada,  S. Sharma,  D. W. Small,  T. Stauch,  T. Stein,  
 Yu-Chuan Su,  A. J. W. Thom,  A. Tkatchenko,  T. Tsuchimochi,  N. M. Tubman,  
 L. Vogt,  M. L. Vidal,  O. Vydrov,  M. A. Watson,  J. Wenzel,  
 M. de Wergifosse,  T. A. Wesolowski,  A. White,  J. Witte,  A. Yamada,  
 Jun Yang,  K. Yao,  S. Yeganeh,  S. R. Yost,  Zhi-Qiang You,  A. Zech,  
 Igor Ying Zhang,  Xing Zhang,  Yan Zhao,  Ying Zhu,  B. R. Brooks,  
 G. K. L. Chan,  C. J. Cramer,  M. S. Gordon,  W. J. Hehre,  A. Klamt,  
 M. W. Schmidt,  C. D. Sherrill,  D. G. Truhlar,  A. Aspuru-Guzik,  R. Baer,  
 A. T. Bell,  N. A. Besley,  Jeng-Da Chai,  A. E. DePrince, III,  
 R. A. DiStasio Jr.,  A. Dreuw,  B. D. Dunietz,  T. R. Furlani,  
 Chao-Ping Hsu,  Yousung Jung,  Jing Kong,  D. S. Lambrecht,  WanZhen Liang,  
 C. Ochsenfeld,  V. A. Rassolov,  L. V. Slipchenko,  J. E. Subotnik,  
 T. Van Voorhis,  J. M. Herbert,  A. I. Krylov,  P. M. W. Gill,  M. Head-Gordon

 Contributors to earlier versions of Q-Chem not listed above: 
 R. D. Adamson,  B. Austin,  J. Baker,  G. J. O. Beran,  K. Brandhorst,  
 S. T. Brown,  E. F. C. Byrd,  A. K. Chakraborty,  C.-L. Cheng,  
 Siu Hung Chien,  D. M. Chipman,  D. L. Crittenden,  H. Dachsel,  
 R. J. Doerksen,  A. D. Dutoi,  L. Fusti-Molnar,  W. A. Goddard III,  
 A. Golubeva-Zadorozhnaya,  S. R. Gwaltney,  G. Hawkins,  A. Heyden,  
 S. Hirata,  G. Kedziora,  F. J. Keil,  C. Kelley,  Jihan Kim,  R. A. King,  
 R. Z. Khaliullin,  P. P. Korambath,  W. Kurlancheek,  A. M. Lee,  M. S. Lee,  
 S. V. Levchenko,  Ching Yeh Lin,  D. Liotard,  R. C. Lochan,  I. Lotan,  
 P. E. Maslen,  N. Nair,  D. P. O'Neill,  D. Neuhauser,  E. Neuscamman,  
 C. M. Oana,  R. Olson,  B. Peters,  R. Peverati,  P. A. Pieniazek,  
 Y. M. Rhee,  J. Ritchie,  M. A. Rohrdanz,  E. Rosta,  N. J. Russ,  
 H. F. Schaefer III,  N. E. Schultz,  N. Shenvi,  A. C. Simmonett,  A. Sodt,  
 D. Stuck,  K. S. Thanthiriwatte,  V. Vanovschi,  Tao Wang,  A. Warshel,  
 C. F. Williams,  Q. Wu,  X. Xu,  W. Zhang

 Please cite Q-Chem as follows:
 Y. Shao et al., Mol. Phys. 113, 184-215 (2015)
 DOI: 10.1080/00268976.2014.952696

 Q-Chem 5.1.1 for Intel X86 EM64T Linux

 Parts of Q-Chem use Armadillo 8.300.2 (Tropical Shenanigans).
 http://arma.sourceforge.net/

 Q-Chem begins on Tue Dec 18 11:16:41 2018  

Host: ctcp043
0

     Scratch files written to /scratch/mewes1/142069/qchem9991//
 Parallel job on  1  processors
The previous job contains 0 fragments, simply inherited here
Symmetry turned off for PCM/SM12/SMD calculation
Input Ideriv = 2
Curr. Ideriv = -1
Max.  Ideriv = 2
Input Ideriv = 2
Curr. Ideriv = 2
Max.  Ideriv = 2

Checking the input file for inconsistencies... 	...done.

--------------------------------------------------------------
User input:
--------------------------------------------------------------
$rem
threads 4
jobtype	opt
method PBEh-3c
basis def2-mSVP
mem_static	1024
mem_total	4000
sym_ignore	true
scf_convergence	9
solvent_method	pcm
$end

$molecule
read gsopt.mol
$end

$solvent
dielectric	1.0001 
$end

$pcm
theory iefpcm
heavypoints 194
hpoints	    194
$end
--------------------------------------------------------------
 Adding empirical dispersion correction 
 ----------------------------------------------------------------
 Doing -D3(BJ) with
 s6 =   1.00000
 s8 =   0.00000
 a1 =   0.48600
 a2 =   4.50000
 -D3 energy including 3body term =     -0.1265093417 hartrees
 ----------------------------------------------------------------
 Adding gCP correction 
 ----------------------------------------------------------------
 gCP energy =      0.1726708663 hartrees
 ----------------------------------------------------------------
             Standard Nuclear Orientation (Angstroms)
    I     Atom           X                Y                Z
 ----------------------------------------------------------------
    1      N       0.0000000000     0.0000000000     0.0000000000
    2      C       0.0000000000     0.0000000000     1.3791240000
    3      C       1.3103457695     0.0000000000    -0.4415189494
    4      C       1.8213050063    -0.0591221179    -1.7315433281
    5      H       1.1728350049    -0.0823323041    -2.5971931018
    6      C       3.1951818991    -0.0999408802    -1.8761873374
    7      H       3.6093772643    -0.1478477191    -2.8765655502
    8      C      -1.0678209002     0.0036031031     2.2708917729
    9      H      -2.0937727642     0.0135943053     1.9277438463
   10      C      -0.7794275241    -0.0077655135     3.6217280956
   11      H      -1.6010013365    -0.0097857370     4.3289598767
   12      C       1.3240478729     0.0032441165     1.8387847162
   13      C       1.5828225834    -0.0088269661     3.2074467846
   14      H       2.6058312937    -0.0133515708     3.5665194633
   15      C       0.5358183097    -0.0192406106     4.1122323584
   16      C       2.1630501145     0.0049598654     0.6719774110
   17      C       3.5415991170    -0.0361498281     0.4957286554
   18      H       4.1982610420    -0.0380759844     1.3587311608
   19      C       4.0726296308    -0.0881652671    -0.7804802676
   20      C      -1.1418731949    -0.0348599728    -0.8203267910
   21      C      -1.3509487759     0.9791397041    -1.7413683307
   22      H      -0.6488907422     1.8032227332    -1.7896764870
   23      C      -2.4472321667     0.9403873365    -2.5901252872
   24      C      -2.0491666911    -1.0789617567    -0.7175733942
   25      H      -1.8709449831    -1.8702909653     0.0013678304
   26      C      -3.1642855564    -1.1218386682    -1.5460335139
   27      C      -3.3601772067    -0.1179667349    -2.5014997448
   28      C       5.5570101314    -0.1479770670    -1.0011102942
   29      H       6.1010250978    -0.0854801471    -0.0591279238
   30      H       5.9041901540     0.6704722500    -1.6337875736
   31      H       5.8525705566    -1.0796105919    -1.4870961270
   32      C      -2.6510116345     2.0318885354    -3.6021216091
   33      H      -1.8933038686     2.8093710340    -3.5123112598
   34      H      -3.6259562245     2.5096201487    -3.4853085219
   35      H      -2.6018176560     1.6431373058    -4.6220133289
   36      C       0.7843810907    -0.0428827791     5.5937709173
   37      H       1.8500833528    -0.0619523569     5.8195096490
   38      H       0.3365772973    -0.9215188699     6.0615024403
   39      H       0.3621748546     0.8348470870     6.0864412671
   40      C      -4.1438835570    -2.2567954662    -1.4354222434
   41      H      -3.8477055028    -2.9761316001    -0.6724836338
   42      H      -5.1425505231    -1.8982883209    -1.1771476764
   43      H      -4.2358383396    -2.8004281919    -2.3782660748
   44      B      -4.5409757510    -0.1647005813    -3.5334591926
   45      C      -5.9027747445     0.5071520823    -3.2310632789
   46      C      -6.2083600545     0.9206505735    -1.9346615874
   47      H      -5.4780210722     0.7947667261    -1.1419708104
   48      C      -7.4445089737     1.4751940062    -1.6675540624
   49      C      -8.3840655698     1.6727310982    -2.7040826588
   50      C      -8.0651012783     1.3126724012    -4.0021528787
   51      H      -8.7697880785     1.4901879552    -4.8066775487
   52      C      -6.8349473764     0.7058701714    -4.2752623755
   53      C      -8.0394131326     1.9189783397    -0.4104853057
   54      C      -7.6315785209     1.9466710128     0.8974258597
   55      H      -6.6497867889     1.6034516089     1.2000576687
   56      C      -9.3305803867     2.3740330668    -0.7296376587
   57      C     -10.2382253517     2.8507525355     0.2097199567
   58      C      -9.5925797328     2.2503909657    -2.1072803642
   59      C     -10.8256402134     2.6287111778    -2.5663525384
   60      H     -11.0954805910     2.5518156861    -3.6119397946
   61      C      -8.5309315873     2.4345778239     1.8737917944
   62      H      -8.2112671282     2.4565769551     2.9074768659
   63      C      -9.7941701933     2.8743913901     1.5544987649
   64      H     -10.4520981115     3.2345491333     2.3358556182
   65      C     -11.5021328531     3.2392970780    -0.2938201051
   66      H     -12.2607958446     3.6203910004     0.3786506015
   67      C     -11.7710081073     3.1262340302    -1.6375299305
   68      H     -12.7446218825     3.4237633502    -2.0038051050
   69      C      -4.3073680485    -0.8434861624    -4.9091329900
   70      C      -3.1729274360    -1.6265310010    -5.1163393754
   71      H      -2.4560474046    -1.7685741933    -4.3146306719
   72      C      -2.9647527654    -2.2156856774    -6.3468879867
   73      C      -3.8646700599    -2.0018493171    -7.4152744862
   74      C      -4.9748448600    -1.1956962640    -7.2253965954
   75      H      -5.6569304243    -0.9961723874    -8.0442503957
   76      C      -5.2185139644    -0.6286528614    -5.9693697533
   77      C      -1.8865027880    -3.0816324120    -6.8102647092
   78      C      -0.7624203720    -3.6177139491    -6.2377865457
   79      H      -0.4985386349    -3.4294853754    -5.2040958334
   80      C      -2.1680238508    -3.3682382563    -8.1563582002
   81      C      -1.3671943288    -4.1727258059    -8.9592595949
   82      C      -3.3556013805    -2.7394381638    -8.5775721817
   83      C      -3.7571170407    -2.9272875594    -9.8730018246
   84      H      -4.6587713066    -2.4734648177   -10.2641963216
   85      C       0.0701454432    -4.4405570489    -7.0308039518
   86      H       0.9581405181    -4.8654673325    -6.5810838600
   87      C      -0.2110723012    -4.7164803367    -8.3483876190
   88      H       0.4550042901    -5.3523452796    -8.9186082076
   89      C      -1.8070160257    -4.3483481676   -10.2919050872
   90      H      -1.2335832349    -4.9607556428   -10.9768446596
   91      C      -2.9637496732    -3.7398133852   -10.7187580337
   92      H      -3.2847025835    -3.8846162456   -11.7417664802
   93      B      -6.4522214051     0.2825250077    -5.7243026391
   94      C      -7.2606047618     0.8848088067    -6.9235016209
   95      C      -8.4075304057     0.2826768750    -7.4462268904
   96      C      -9.1322396882     0.9276773496    -8.4428105209
   97      H     -10.0457070762     0.4865466520    -8.8242004186
   98      C      -8.7077432292     2.1530588661    -8.9336851684
   99      C      -7.5459514645     2.7327936841    -8.4424401788
  100      H      -7.2094660885     3.6800685978    -8.8470008019
  101      C      -6.8248935164     2.1145345339    -7.4323689873
  102      N      -9.4571136360     2.8258695216    -9.9168609665
  103      C      -9.9583440285     4.1041544072    -9.7905127831
  104      C      -9.6871673893     2.3920131868   -11.2060957455
  105      C      -9.2994852065     1.2027557385   -11.8086010978
  106      H      -8.7584896659     0.4418497759   -11.2612199188
  107      C      -9.6136757235     1.0334553458   -13.1418165049
  108      H      -9.3162181395     0.1157236838   -13.6357899192
  109      C      -9.9445305735     4.9421957664    -8.6812765894
  110      H      -9.5074631352     4.6302907291    -7.7415508832
  111      C     -10.5047627138     6.1951694517    -8.8218297323
  112      H     -10.4992407576     6.8677507774    -7.9718211343
  113      C     -10.5346383874     4.4993763855   -11.0066504382
  114      C     -11.0936708527     5.7701414598   -11.1129370507
  115      H     -11.5357268171     6.0918530215   -12.0486118784
  116      C     -11.0785447076     6.6293308233   -10.0270987664
  117      C     -10.3595490504     3.3971188156   -11.9183621597
  118      C     -10.6617029184     3.1933424488   -13.2612271152
  119      H     -11.1721163519     3.9651438496   -13.8253326764
  120      C     -10.2948086075     2.0117382928   -13.8828449463
  121      C     -10.6072638690     1.7644153650   -15.3306992006
  122      H     -11.0476250132     2.6431355408   -15.8006106675
  123      H      -9.7098318686     1.5065396787   -15.8953467259
  124      H     -11.3132009270     0.9408082058   -15.4536000685
  125      C     -11.6536307300     8.0135425400   -10.1197441429
  126      H     -12.1304043200     8.1851110137   -11.0840674157
  127      H     -12.4044959566     8.1891469526    -9.3475535150
  128      H     -10.8820189397     8.7759728286    -9.9967104458
  129      C      -8.8646239994    -1.0427478479    -6.9024640178
  130      H      -9.7729132063    -1.3917675242    -7.3920386595
  131      H      -8.1019964824    -1.8132510155    -7.0360841967
  132      H      -9.0703511497    -0.9872101209    -5.8309574613
  133      C      -5.5845409034     2.7627679276    -6.8811901429
  134      H      -5.3705317090     3.7090921950    -7.3766497639
  135      H      -4.7080906970     2.1226588630    -7.0041567033
  136      H      -5.6826836365     2.9695445739    -5.8126165657
 ----------------------------------------------------------------
 Nuclear Repulsion Energy = 11551.2914309287 hartrees
 There are      268 alpha and      268 beta electrons
 Requested basis set is def2-mSVP
 There are 672 shells and 1312 basis functions

 Total QAlloc Memory Limit   4000 MB
 Mega-Array Size      1001 MB
 MEM_STATIC part      1024 MB
 Discretize the solute cavity surface with Lebedev spheres
	Using 194 Lebedev grid points for each H atom
	Using 194 Lebedev grid points for other atoms
	Atomic van der Waals radii will be scaled by 1.20
 Remove points where switching function is < 1.0e-08
 Keep 10184 surface tesserae and discard 16200 interior tesserae
 Molecular Surface Area = 1068.221 Angst**2
 A cutoff of  1.0D-12 yielded  60276 shell pairs
 There are    240138 function pairs (    264878 Cartesian)
 
 -------------------------------------------------------
 OpenMP Integral Computing Module                       
 Release: version 1.0, May 2013, Q-Chem Inc. Pittsburgh 
 -------------------------------------------------------
 Integral Job Info:
 Integral job number is                      11
 Integral operator is                         1
 short-range coefficients                     0
 long-range coefficients              100000000
 Omega coefficients                           0
 if combine SR and LR in K                    0
 Integral screening is                        0
 Integral computing path is                   2
 max size of driver memory is            800000
 size of driver memory is                593474
 size of scratch memory is              1809772
 max col of scratch BK array               1296
 max len of scratch array in speh3          155
 max len of scratch index in speh4           18
 max int batch size is                      520
 min int batch size is                       52
 fixed nKL is                                52
 max L of basis functions is                  2
 order of int derivative is                   0
 number of shells is                        672
 number of basis is                        1392
 number of cartesian basis is              1392
 number of contracted shell pairs         60276
 number of primitive shell pairs         126523
 maxK2 (contraction) of shell pair           25
 max number of K2 of shell pair               1
 max number of CS2 of shell pair          14349
 max number of PS2 of shell pair          22110
 mem total for path MDJ                 1116876
 -------------------------------------------------------
 Smallest overlap matrix eigenvalue = 1.97E-04

 Scale SEOQF with 1.000000e-02/1.000000e-02/1.000000e-02

 Standard Electronic Orientation quadrupole field applied
 Nucleus-field energy     =    -0.0000001518 hartrees
 Guess from superposition of atomic densities
 Warning:  Energy on first SCF cycle will be non-variational
 SAD guess density has 536.000001 electrons

 -----------------------------------------------------------------------
  General SCF calculation program by
  Eric Jon Sundstrom, Paul Horn, Yuezhi Mao, Dmitri Zuev, Alec White,
  David Stuck, Shaama M.S., Shane Yost, Joonho Lee, David Small,
  Daniel Levine, Susi Lehtola, Hugh Burton, Evgeny Epifanovsky
 -----------------------------------------------------------------------
 Exchange:     0.4200 Hartree-Fock + 0.5800 PBEh-3c
 Correlation:  1.0000 PBEh-3c
 Using SG-1 standard quadrature grid
 Dispersion:   Grimme D3
 using 4 threads for integral computing
 -------------------------------------------------------
 OpenMP Integral computing Module                
 Release: version 2.0, May 2017, Q-Chem Inc. Pleasanton 
 -------------------------------------------------------
 -------------------------------------------------------
 OpenMP BLAS3 based DFT computing Module                
 Release: version 1.0, May 2013, Q-Chem Inc. Pittsburgh 
 -------------------------------------------------------
 A restricted SCF calculation will be
 performed using DIIS
 SCF converges when DIIS error is below 1.0e-09
 ---------------------------------------
  Cycle       Energy         DIIS error
 ---------------------------------------
 Using non-symmetric K matrix
    1   -3109.8061635032      2.38e-02  
    2   -3081.8115683516      1.60e-03  
    3   -3081.9870951284      1.45e-03  
    4   -3082.3841498623      5.62e-04  
    5   -3082.4534356417      1.58e-04  
    6   -3082.4587956265      5.88e-05  
    7   -3082.4595263605      1.43e-05  
    8   -3082.4595685089      5.62e-06  
    9   -3082.4595758745      1.26e-06  
   10   -3082.4595762755      5.18e-07  
   11   -3082.4595763493      1.96e-07  
   12   -3082.4595763610      7.30e-08  
   13   -3082.4595763627      2.62e-08  
   14   -3082.4595763629      8.32e-09  
   15   -3082.4595763629      4.63e-09  
   16   -3082.4595763629      1.44e-09  
   17   -3082.4595763629      7.58e-10  Convergence criterion met
 ---------------------------------------
 SCF time:   CPU 17656.24s  wall 4499.00s 

************** Final PCM Free Energy Summary **************
 G_electrostatic  =      -0.00000225 hartree =      -0.00141084 kcal/mol
 G_cavitation     =       0.00000000 hartree =       0.00000000 kcal/mol
 G_dispersion     =       0.00000000 hartree =       0.00000000 kcal/mol
 G_repulsion      =       0.00000000 hartree =       0.00000000 kcal/mol
 --------------------------------------------------
 Non-electrostatic Free Energy =       0.00000000 hartree =       0.00000000 kcal/mol
 Total                         =      -0.00000225 hartree =      -0.00141084 kcal/mol
 --------------------------------------------------
 SCF Energy (H0 + V/2)                       =   -3082.45957636 
 Solute Internal Energy (H0)                 =   -3082.45957411 
 Total Free Energy (H0 + V/2 + non-elec)     =   -3082.45957636 hartree
                                             = -1934272.57814236 kcal/mol
***********************************************************

 SCF   energy in the final basis set =    -3082.4595763629
 Total energy in the final basis set =    -3082.4595763629
 
 --------------------------------------------------------------
 
                    Orbital Energies (a.u.)
 --------------------------------------------------------------
 
 Alpha MOs
 -- Occupied --
-14.685 -14.683 -10.491 -10.490 -10.478 -10.478 -10.477 -10.477
-10.469 -10.469 -10.469 -10.468 -10.468 -10.468 -10.468 -10.468
-10.467 -10.467 -10.466 -10.466 -10.466 -10.466 -10.465 -10.465
-10.464 -10.463 -10.463 -10.463 -10.463 -10.463 -10.463 -10.462
-10.461 -10.461 -10.461 -10.460 -10.459 -10.458 -10.450 -10.450
-10.447 -10.447 -10.446 -10.446 -10.445 -10.445 -10.444 -10.444
-10.443 -10.442 -10.441 -10.441 -10.441 -10.441 -10.441 -10.441
-10.441 -10.441 -10.440 -10.439 -10.439 -10.439 -10.439 -10.439
-10.439 -10.439 -10.439 -10.438 -10.437 -10.436 -10.434 -10.434
-10.431 -10.431 -10.428 -10.428 -10.427 -10.427  -6.957  -6.955
 -1.105  -1.104  -1.020  -1.020  -0.976  -0.975  -0.967  -0.964
 -0.949  -0.949  -0.946  -0.946  -0.937  -0.937  -0.915  -0.906
 -0.892  -0.891  -0.882  -0.882  -0.862  -0.862  -0.861  -0.859
 -0.852  -0.850  -0.850  -0.850  -0.834  -0.833  -0.826  -0.818
 -0.817  -0.810  -0.809  -0.809  -0.781  -0.781  -0.777  -0.776
 -0.766  -0.765  -0.762  -0.760  -0.740  -0.733  -0.731  -0.725
 -0.713  -0.712  -0.697  -0.694  -0.691  -0.684  -0.675  -0.670
 -0.661  -0.660  -0.656  -0.656  -0.654  -0.653  -0.643  -0.642
 -0.640  -0.638  -0.601  -0.600  -0.596  -0.594  -0.592  -0.592
 -0.588  -0.584  -0.583  -0.580  -0.579  -0.559  -0.556  -0.556
 -0.554  -0.549  -0.540  -0.538  -0.533  -0.533  -0.530  -0.526
 -0.518  -0.514  -0.508  -0.507  -0.507  -0.504  -0.501  -0.497
 -0.496  -0.496  -0.495  -0.494  -0.493  -0.491  -0.491  -0.488
 -0.488  -0.487  -0.486  -0.485  -0.482  -0.480  -0.479  -0.479
 -0.477  -0.475  -0.473  -0.473  -0.472  -0.471  -0.471  -0.469
 -0.469  -0.468  -0.466  -0.466  -0.465  -0.460  -0.451  -0.448
 -0.446  -0.445  -0.442  -0.436  -0.436  -0.432  -0.430  -0.429
 -0.428  -0.428  -0.428  -0.418  -0.415  -0.415  -0.410  -0.409
 -0.406  -0.405  -0.402  -0.399  -0.398  -0.398  -0.398  -0.398
 -0.397  -0.396  -0.395  -0.394  -0.387  -0.387  -0.386  -0.382
 -0.381  -0.375  -0.366  -0.365  -0.363  -0.356  -0.353  -0.347
 -0.324  -0.321  -0.320  -0.318  -0.299  -0.298  -0.289  -0.289
 -0.287  -0.284  -0.284  -0.283  -0.282  -0.266  -0.261  -0.260
 -0.245  -0.244  -0.228  -0.227
 -- Virtual --
 -0.095  -0.063  -0.042  -0.033  -0.008  -0.007  -0.006   0.002
  0.005   0.006   0.012   0.019   0.019   0.034   0.035   0.042
  0.060   0.061   0.062   0.067   0.068   0.078   0.079   0.087
  0.120   0.121   0.139   0.140   0.141   0.148   0.151   0.152
  0.154   0.154   0.155   0.157   0.157   0.158   0.159   0.161
  0.168   0.172   0.176   0.177   0.179   0.180   0.181   0.183
  0.184   0.186   0.188   0.188   0.190   0.190   0.191   0.192
  0.193   0.197   0.199   0.200   0.200   0.203   0.205   0.208
  0.209   0.211   0.212   0.213   0.220   0.220   0.223   0.223
  0.226   0.227   0.228   0.230   0.231   0.232   0.235   0.237
  0.238   0.239   0.241   0.245   0.246   0.248   0.248   0.250
  0.250   0.251   0.251   0.253   0.254   0.255   0.256   0.257
  0.258   0.258   0.262   0.264   0.266   0.268   0.272   0.275
  0.276   0.276   0.277   0.279   0.284   0.286   0.288   0.290
  0.291   0.297   0.303   0.304   0.304   0.307   0.312   0.314
  0.315   0.317   0.318   0.319   0.324   0.326   0.328   0.329
  0.331   0.333   0.344   0.346   0.355   0.359   0.362   0.368
  0.369   0.369   0.375   0.378   0.378   0.384   0.389   0.391
  0.392   0.392   0.397   0.408   0.411   0.414   0.415   0.417
  0.421   0.422   0.425   0.430   0.436   0.443   0.450   0.452
  0.454   0.455   0.463   0.463   0.464   0.469   0.470   0.471
  0.478   0.481   0.485   0.487   0.490   0.494   0.495   0.495
  0.498   0.499   0.500   0.505   0.507   0.510   0.511   0.511
  0.514   0.517   0.519   0.519   0.520   0.522   0.522   0.525
  0.526   0.526   0.527   0.529   0.532   0.533   0.536   0.539
  0.542   0.543   0.545   0.546   0.546   0.549   0.552   0.555
  0.556   0.557   0.558   0.560   0.560   0.563   0.572   0.574
  0.574   0.577   0.578   0.579   0.582   0.582   0.584   0.584
  0.586   0.587   0.588   0.589   0.589   0.589   0.590   0.591
  0.592   0.594   0.596   0.597   0.598   0.602   0.602   0.607
  0.608   0.609   0.610   0.613   0.614   0.616   0.616   0.617
  0.619   0.622   0.623   0.623   0.625   0.627   0.628   0.629
  0.630   0.631   0.634   0.637   0.638   0.640   0.640   0.641
  0.643   0.646   0.646   0.649   0.650   0.651   0.652   0.654
  0.656   0.658   0.659   0.665   0.670   0.676   0.678   0.679
  0.681   0.682   0.683   0.684   0.686   0.691   0.692   0.696
  0.697   0.698   0.700   0.703   0.704   0.707   0.710   0.714
  0.718   0.718   0.724   0.725   0.726   0.727   0.729   0.730
  0.731   0.733   0.735   0.737   0.738   0.740   0.743   0.749
  0.752   0.755   0.757   0.758   0.759   0.759   0.761   0.762
  0.768   0.770   0.772   0.773   0.779   0.781   0.783   0.784
  0.785   0.786   0.788   0.790   0.792   0.801   0.802   0.806
  0.807   0.809   0.811   0.815   0.816   0.821   0.823   0.828
  0.830   0.833   0.840   0.843   0.849   0.854   0.856   0.862
  0.873   0.874   0.882   0.883   0.887   0.895   0.904   0.905
  0.909   0.910   0.913   0.915   0.920   0.924   0.927   0.931
  0.938   0.944   0.945   0.950   0.951   0.952   0.955   0.958
  0.960   0.962   0.964   0.967   0.969   0.972   0.974   0.978
  0.979   0.982   0.982   0.983   0.985   0.991   0.994   0.994
  0.997   0.999   1.000   1.004   1.008   1.009   1.010   1.014
  1.015   1.016   1.016   1.018   1.019   1.026   1.028   1.030
  1.031   1.033   1.039   1.040   1.041   1.041   1.043   1.047
  1.050   1.052   1.053   1.056   1.058   1.058   1.059   1.060
  1.061   1.063   1.065   1.068   1.070   1.070   1.071   1.071
  1.074   1.076   1.083   1.083   1.085   1.086   1.087   1.092
  1.094   1.096   1.104   1.107   1.108   1.112   1.113   1.116
  1.121   1.124   1.125   1.127   1.132   1.135   1.136   1.138
  1.139   1.142   1.146   1.148   1.148   1.149   1.151   1.152
  1.155   1.159   1.160   1.165   1.171   1.173   1.175   1.180
  1.188   1.189   1.190   1.194   1.196   1.202   1.206   1.209
  1.213   1.217   1.224   1.226   1.236   1.238   1.239   1.242
  1.245   1.248   1.252   1.256   1.263   1.264   1.269   1.278
  1.281   1.282   1.285   1.288   1.294   1.297   1.301   1.304
  1.305   1.309   1.311   1.314   1.318   1.323   1.324   1.329
  1.332   1.335   1.339   1.340   1.344   1.348   1.355   1.356
  1.361   1.362   1.363   1.364   1.368   1.369   1.373   1.380
  1.385   1.387   1.387   1.393   1.395   1.399   1.401   1.404
  1.405   1.408   1.409   1.415   1.418   1.421   1.435   1.436
  1.437   1.438   1.439   1.446   1.450   1.452   1.453   1.454
  1.456   1.457   1.459   1.463   1.479   1.484   1.489   1.503
  1.507   1.507   1.509   1.510   1.510   1.511   1.514   1.514
  1.518   1.520   1.524   1.526   1.527   1.528   1.531   1.535
  1.537   1.539   1.542   1.544   1.545   1.551   1.552   1.554
  1.555   1.556   1.558   1.560   1.562   1.564   1.566   1.567
  1.570   1.572   1.573   1.575   1.578   1.579   1.582   1.590
  1.595   1.599   1.610   1.612   1.614   1.622   1.622   1.624
  1.632   1.636   1.644   1.646   1.658   1.669   1.682   1.685
  1.695   1.736   1.739   1.744   1.747   1.761   1.763   1.777
  1.781   1.789   1.801   1.803   1.804   1.805   1.807   1.810
  1.811   1.813   1.817   1.819   1.829   1.830   1.833   1.833
  1.834   1.840   1.844   1.849   1.856   1.862   1.877   1.878
  1.888   1.890   1.894   1.897   1.901   1.904   1.905   1.906
  1.908   1.915   1.915   1.917   1.918   1.919   1.920   1.922
  1.924   1.932   1.935   1.938   1.940   1.942   1.943   1.944
  1.948   1.949   1.951   1.951   1.953   1.958   1.961   1.965
  1.966   1.967   1.969   1.974   1.979   1.980   1.981   1.982
  1.985   1.988   1.991   2.007   2.012   2.015   2.021   2.027
  2.028   2.037   2.041   2.045   2.059   2.065   2.068   2.069
  2.070   2.076   2.081   2.083   2.087   2.088   2.097   2.106
  2.108   2.108   2.116   2.125   2.127   2.131   2.136   2.136
  2.140   2.144   2.147   2.149   2.151   2.154   2.155   2.166
  2.168   2.169   2.178   2.182   2.183   2.187   2.188   2.190
  2.197   2.200   2.201   2.213   2.217   2.219   2.222   2.223
  2.224   2.228   2.229   2.235   2.238   2.241   2.246   2.248
  2.254   2.255   2.257   2.258   2.259   2.264   2.268   2.275
  2.276   2.277   2.279   2.280   2.284   2.288   2.292   2.297
  2.301   2.304   2.311   2.317   2.319   2.319   2.321   2.335
  2.336   2.336   2.341   2.342   2.343   2.345   2.346   2.347
  2.348   2.350   2.353   2.354   2.355   2.357   2.358   2.367
  2.370   2.371   2.378   2.380   2.384   2.386   2.390   2.391
  2.396   2.397   2.401   2.406   2.409   2.410   2.411   2.414
  2.415   2.416   2.418   2.419   2.427   2.428   2.433   2.436
  2.446   2.447   2.449   2.452   2.455   2.457   2.465   2.476
  2.477   2.478   2.484   2.488   2.489   2.490   2.491   2.492
  2.495   2.499   2.500   2.503   2.506   2.511   2.515   2.538
  2.549   2.549   2.556   2.575   2.587   2.588   2.611   2.628
  2.638   2.639   2.639   2.640   2.642   2.661   2.664   2.668
  2.668   2.670   2.681   2.685   2.702   2.704   2.706   2.713
  2.723   2.723   2.725   2.726   2.729   2.734   2.736   2.737
  2.738   2.743   2.746   2.748   2.767   2.772   2.776   2.777
  2.782   2.786   2.789   2.789   2.800   2.801   2.801   2.802
  2.805   2.806   2.807   2.808   2.814   2.817   2.818   2.819
  2.835   2.837   2.843   2.844   2.845   2.850   2.867   2.868
  2.872   2.890   2.893   2.896   2.900   2.901   2.903   2.904
  2.931   2.935   2.936   2.939   2.947   2.952   2.952   2.953
  2.953   2.962   2.966   2.976   2.980   2.985   2.997   3.003
  3.005   3.035   3.044   3.052   3.060   3.061   3.063   3.069
  3.080   3.084   3.116   3.141   3.145   3.227   3.251   3.253
  3.279   3.283   3.344   3.351   3.399   3.436   3.446   3.457
  3.459   3.467   3.477   3.487   3.491   3.493   3.571   3.576
  3.630   3.631   3.665   3.677   9.579   9.707  13.138  13.171
 13.236  13.239  13.424  13.436  13.436  13.493  13.497  13.508
 13.522  13.542  13.681  13.682  13.700  13.704  13.716  13.729
 13.730  13.773  13.776  13.787  13.790  13.801  13.842  13.855
 13.883  13.889  13.898  13.899  13.906  13.923  13.934  13.939
 13.940  13.991  13.997  14.005  14.007  14.007  14.027  14.039
 14.118  14.136  14.139  14.157  14.158  14.185  14.195  14.211
 14.214  14.239  14.246  14.246  14.246  14.254  14.275  14.276
 14.304  14.307  14.330  14.331  14.333  14.345  14.510  14.513
 14.566  14.569  14.580  14.581  14.582  14.583  14.602  14.606
 14.615  14.617  19.584  19.589
 --------------------------------------------------------------
 
          Ground-State Mulliken Net Atomic Charges

     Atom                 Charge (a.u.)
  ----------------------------------------
      1 N                    -0.741117
      2 C                     0.324310
      3 C                     0.324455
      4 C                    -0.264683
      5 H                     0.232751
      6 C                    -0.279611
      7 H                     0.208246
      8 C                    -0.264317
      9 H                     0.230402
     10 C                    -0.277717
     11 H                     0.206816
     12 C                     0.115279
     13 C                    -0.405352
     14 H                     0.196267
     15 C                     0.122170
     16 C                     0.110718
     17 C                    -0.403125
     18 H                     0.196820
     19 C                     0.121619
     20 C                     0.326724
     21 C                    -0.360048
     22 H                     0.236706
     23 C                     0.046959
     24 C                    -0.348756
     25 H                     0.236248
     26 C                     0.060896
     27 C                    -0.206698
     28 C                    -0.708747
     29 H                     0.225316
     30 H                     0.228677
     31 H                     0.228815
     32 C                    -0.768650
     33 H                     0.245029
     34 H                     0.248865
     35 H                     0.248478
     36 C                    -0.708886
     37 H                     0.225529
     38 H                     0.228309
     39 H                     0.228983
     40 C                    -0.753842
     41 H                     0.240595
     42 H                     0.243126
     43 H                     0.245495
     44 B                     0.692500
     45 C                    -0.152438
     46 C                    -0.385614
     47 H                     0.226133
     48 C                     0.085893
     49 C                     0.109699
     50 C                    -0.391968
     51 H                     0.228346
     52 C                    -0.146116
     53 C                     0.195812
     54 C                    -0.376558
     55 H                     0.217865
     56 C                    -0.061106
     57 C                     0.251785
     58 C                     0.198085
     59 C                    -0.385371
     60 H                     0.221295
     61 C                    -0.205451
     62 H                     0.228346
     63 C                    -0.331827
     64 H                     0.221944
     65 C                    -0.335857
     66 H                     0.222300
     67 C                    -0.203297
     68 H                     0.229064
     69 C                    -0.148696
     70 C                    -0.380225
     71 H                     0.231405
     72 C                     0.083994
     73 C                     0.110833
     74 C                    -0.394709
     75 H                     0.224112
     76 C                    -0.152533
     77 C                     0.196052
     78 C                    -0.377092
     79 H                     0.221636
     80 C                    -0.060686
     81 C                     0.252832
     82 C                     0.197964
     83 C                    -0.385923
     84 H                     0.218338
     85 C                    -0.206425
     86 H                     0.229530
     87 C                    -0.331577
     88 H                     0.221933
     89 C                    -0.336476
     90 H                     0.222253
     91 C                    -0.202498
     92 H                     0.227958
     93 B                     0.691166
     94 C                    -0.196790
     95 C                     0.061230
     96 C                    -0.345903
     97 H                     0.233271
     98 C                     0.315661
     99 C                    -0.351539
    100 H                     0.238659
    101 C                     0.042960
    102 N                    -0.735565
    103 C                     0.319299
    104 C                     0.321175
    105 C                    -0.264458
    106 H                     0.230387
    107 C                    -0.279002
    108 H                     0.206539
    109 C                    -0.265395
    110 H                     0.236030
    111 C                    -0.279845
    112 H                     0.208606
    113 C                     0.118883
    114 C                    -0.409405
    115 H                     0.196500
    116 C                     0.121621
    117 C                     0.120935
    118 C                    -0.408371
    119 H                     0.196889
    120 C                     0.121466
    121 C                    -0.708325
    122 H                     0.225241
    123 H                     0.227244
    124 H                     0.229240
    125 C                    -0.708368
    126 H                     0.225106
    127 H                     0.227438
    128 H                     0.229565
    129 C                    -0.753154
    130 H                     0.240392
    131 H                     0.242387
    132 H                     0.244202
    133 C                    -0.770589
    134 H                     0.245680
    135 H                     0.250431
    136 H                     0.249982
  ----------------------------------------
  Sum of atomic charges =     0.000000

 -----------------------------------------------------------------
                    Cartesian Multipole Moments
 -----------------------------------------------------------------
    Charge (ESU x 10^10)
                 0.0000
    Dipole Moment (Debye)
         X      -0.5495      Y      -1.5815      Z       0.4695
       Tot       1.7388
    Quadrupole Moments (Debye-Ang)
        XX    -432.6715     XY     -10.8615     YY    -449.7706
        XZ     -24.1782     YZ      27.8108     ZZ    -429.3647
    Octopole Moments (Debye-Ang^2)
       XXX    6731.8435    XXY    -159.0771    XYY    2246.2477
       YYY    -914.5573    XXZ    2386.0554    XYZ     -65.7671
       YYZ    2054.1573    XZZ    2324.8388    YZZ    -620.2899
       ZZZ    6205.6792
    Hexadecapole Moments (Debye-Ang^3)
      XXXX -125420.4724   XXXY   12951.6307   XXYY  -23587.7738
      XYYY   14493.3601   YYYY  -19891.3075   XXXZ  -50813.9595
      XXYZ    2638.3584   XYYZ  -15711.3517   YYYZ    6195.3315
      XXZZ  -42763.1772   XYZZ    5505.3370   YYZZ  -23391.6449
      XZZZ  -46810.1328   YZZZ   10260.3529   ZZZZ -120625.4155
 -----------------------------------------------------------------
 Calculating analytic gradient of the SCF energy
 -2.827657298569935E-004 -2.827445180336382E-004
 -2.827579218810494E-004 -2.827524084805194E-004
 -2.827528788694185E-004 -2.827573552977001E-004
 -2.827268468951380E-004 -2.827833739988250E-004
 -2.827599316907363E-004 -2.827503890168176E-004
 -2.827613717982670E-004 -2.827488594504129E-004
 -2.827459178877830E-004 -2.827643100218880E-004
 -2.827542067131220E-004 -2.827561089766515E-004
 -2.827218237223250E-004 -2.827883945835841E-004
 -2.827367635542849E-004 -2.827734609400599E-004
 -2.827531753507345E-004 -2.827571465301240E-004
 -2.827587494060867E-004 -2.827514689835872E-004
 -2.827477880867416E-004 -2.827624634108330E-004
 -2.827587763840417E-004 -2.827515040747770E-004
 -2.827290346475167E-004 -2.827811740213948E-004
 -2.827545654063943E-004 -2.827556614312287E-004
 -2.827513285826580E-004 -2.827589766474617E-004
 -2.827158467078265E-004 -2.827943699360469E-004
 -2.827429328365578E-004 -2.827672734155719E-004
 -2.827576668867212E-004 -2.827525732092015E-004
 -2.827518728895364E-004 -2.827583446673057E-004
 -2.827507983951909E-004 -2.827594360858511E-004
 -2.827633262672333E-004 -2.827470003271198E-004
 -2.827316941338354E-004 -2.827785222276063E-004
 -2.827345938518855E-004 -2.827756187656498E-004
 -2.827564528095540E-004 -2.827538269923211E-004
 -2.827596861853312E-004 -2.827505584830280E-004
 -2.827260524625564E-004 -2.827841599808094E-004
 -2.827587730060235E-004 -2.827515395715319E-004
 -2.827731733835156E-004 -2.827370610966406E-004
 -2.827491838019027E-004 -2.827610270829991E-004
 -2.827530901967626E-004 -2.827571545687906E-004
 -2.827450209037798E-004 -2.827651991620648E-004
 -2.827872027656830E-004 -2.827230213156578E-004
 -2.827572338126214E-004 -2.827530797300492E-004
 -2.827376518771082E-004 -2.827725654222828E-004
 -2.827480762112869E-004 -2.827621338969212E-004
 -2.827560546256231E-004 -2.827542546031304E-004
 -2.827687070768824E-004 -2.827415187299619E-004
 -2.827740325237172E-004 -2.827361546701001E-004
 -2.827542350779871E-004 -2.827560334779083E-004
 -2.827510321706738E-004 -2.827592083207575E-004
 -2.827707880763626E-004 -2.827394379009726E-004
 -2.827562686782268E-004 -2.827540256176404E-004
 -2.827389371387042E-004 -2.827712899094015E-004
 -2.827550364221392E-004 -2.827551846171874E-004
 -2.827551216398184E-004 -2.827551889604505E-004
 -2.827898815335136E-004 -2.827203427755809E-004
 -2.827581954037065E-004 -2.827520339361911E-004
 -2.827534057726667E-004 -2.827569033016189E-004
 -2.827403025301309E-004 -2.827699046590474E-004
 -2.827590802007460E-004 -2.827511538680119E-004
 -2.827539756262786E-004 -2.827562969237411E-004
 -2.827757304834926E-004 -2.827344610721707E-004
 -2.827464905446678E-004 -2.827637312463879E-004
 -2.827528631610363E-004 -2.827574322769465E-004
 -2.827766653158612E-004 -2.827335726694071E-004
 -2.827130769485216E-004 -2.827971493152262E-004
 -2.827487823000304E-004 -2.827614761645678E-004
 -2.827294169390398E-004 -2.827808098192225E-004
 -2.827734828558530E-004 -2.827367692909270E-004
 -2.827802998605247E-004 -2.827298967673969E-004
 -2.827709429822634E-004 -2.827392885674805E-004
 -2.827395955364056E-004 -2.827706509666576E-004
 -2.827658383796750E-004 -2.827443504327721E-004
 -2.827508136276790E-004 -2.827593988846833E-004
 -2.827174975672609E-004 -2.827927260361425E-004
 -2.827722423047040E-004 -2.827379711503005E-004
 -2.827221431338370E-004 -2.827880948812931E-004
 -2.827809903590019E-004 -2.827292483074605E-004
 -2.827484422480899E-004 -2.827617606119715E-004
 -2.827611551696247E-004 -2.827490795161049E-004
 -2.827515209319478E-004 -2.827587124985599E-004
 -2.827341593788899E-004 -2.827760239293817E-004
 -2.827423436066276E-004 -2.827678964878195E-004
 -2.827175400672043E-004 -2.827926840021291E-004
 -2.827241403696373E-004 -2.827860806970840E-004
 -2.827396614225471E-004 -2.827705670589994E-004
 -2.827787617635743E-004 -2.827314649909402E-004
 -2.827700526781810E-004 -2.827401782445963E-004
 -2.827638144381430E-004 -2.827464123656258E-004
 -2.827832657562814E-004 -2.827269512967856E-004
 -2.827519060985038E-004 -2.827583503716718E-004
 -2.827370408845863E-004 -2.827731632844441E-004
 -2.827551349022523E-004 -2.827550878576263E-004
 -2.827550287085313E-004 -2.827552166360615E-004
 -2.827635113385342E-004 -2.827466857952307E-004
 -2.827467299391916E-004 -2.827634833393202E-004
 -2.827602445154762E-004 -2.827499837142100E-004
 -2.827578825268461E-004 -2.827523430744399E-004
 -2.827477547866890E-004 -2.827624516093795E-004
 -2.827496998082292E-004 -2.827605269184592E-004
 -2.827599641306673E-004 -2.827502644576648E-004
 -2.827582496016606E-004 -2.827519811557071E-004
 -2.827506540089841E-004 -2.827595420831758E-004
 -2.827559299439198E-004 -2.827543108012144E-004
 -2.827345289395567E-004 -2.827757159501540E-004
 -2.827456197065506E-004 -2.827645704897808E-004
 -2.827452769354371E-004 -2.827649517033358E-004
 -2.827420891449702E-004 -2.827681474237112E-004
 -2.827623505016297E-004 -2.827478744545102E-004
 -2.827680956096044E-004 -2.827421312364060E-004
 -2.827652259336750E-004 -2.827449875478402E-004
 -2.827431925464898E-004 -2.827670309561894E-004
 -2.827419896923141E-004 -2.827682359473198E-004
 -2.827510579998406E-004 -2.827591506525172E-004
 -2.827527348889767E-004 -2.827575148823286E-004
 -2.827882102643708E-004 -2.827220079944624E-004
 -2.827614202058169E-004 -2.827487844259223E-004
 -2.827543036620826E-004 -2.827559386537916E-004
 -2.827525911024162E-004 -2.827576269400346E-004
 -2.827565311244493E-004 -2.827536885420676E-004
 -2.827490914661168E-004 -2.827611337100857E-004
 -2.827463215089815E-004 -2.827638973343188E-004
 -2.827561211529759E-004 -2.827540998588225E-004
 -2.827617499298063E-004 -2.827484755046810E-004
 -2.827471289818629E-004 -2.827630920718204E-004
 -2.827604903279892E-004 -2.827497620852168E-004
 -2.827704576172312E-004 -2.827397329347858E-004
 -2.827389989685944E-004 -2.827712261657672E-004
 -2.827549410298446E-004 -2.827553040955459E-004
 -2.827560709592541E-004 -2.827541268609393E-004
 -2.827464118470935E-004 -2.827638221184225E-004
 -2.827459968178700E-004 -2.827642372936660E-004
 -2.827591227275970E-004 -2.827511021695284E-004
 -2.827539566559787E-004 -2.827562583641038E-004
 -2.827532740527204E-004 -2.827569589058371E-004
 -2.827496461570348E-004 -2.827605587182872E-004
 -2.827457249800233E-004 -2.827645138607911E-004
 -2.827561200254952E-004 -2.827541320662743E-004
 -2.827473761441543E-004 -2.827629176564960E-004
 -2.827516971577158E-004 -2.827585475716400E-004
 -2.827595330336214E-004 -2.827507117434331E-004
 -2.827535171471825E-004 -2.827568079194038E-004
 -2.827730405303204E-004 -2.827371849279455E-004
 -2.827605488660033E-004 -2.827496874951541E-004
 -2.827555681950499E-004 -2.827547644466889E-004
 -2.827408786735300E-004 -2.827693547140612E-004
 -2.827746168578357E-004 -2.827356198597592E-004
 -2.827569674155307E-004 -2.827533230108313E-004
 -2.827651314765822E-004 -2.827451004977234E-004
 -2.827771911026623E-004 -2.827330562276719E-004
 -2.827540689012103E-004 -2.827562603741504E-004
 -2.827534309508916E-004 -2.827567929440033E-004
 -2.827564351449306E-004 -2.827537989164906E-004
 -2.827530127593951E-004 -2.827573082920348E-004
 -2.827283271162726E-004 -2.827819053306060E-004
 -2.827610424955778E-004 -2.827491981742029E-004
 -2.827522590206031E-004 -2.827580680461586E-004
 -2.827538617232805E-004 -2.827563573422932E-004
 -2.827444946699254E-004 -2.827657443129068E-004
 -2.827519286620288E-004 -2.827583544575084E-004
 -2.827380429346471E-004 -2.827721833063000E-004
 -2.827380585573816E-004 -2.827721775648433E-004
 -2.827535232298097E-004 -2.827568010189330E-004
 -2.827424736281877E-004 -2.827677531341876E-004
 -2.827698104359092E-004 -2.827404207574346E-004
 -2.827570222990522E-004 -2.827532995364492E-004
 -2.827524158198904E-004 -2.827578142074684E-004
 -2.827855058974749E-004 -2.827247501724843E-004
 -2.827477614868599E-004 -2.827625615749683E-004
 -2.827503024587074E-004 -2.827599144174275E-004
 -2.827648765318628E-004 -2.827453625035314E-004
 -2.827510696471863E-004 -2.827591974026293E-004
 -2.827557398432356E-004 -2.827544765043648E-004
 -2.827675773326216E-004 -2.827426710829837E-004
 -2.827550403638928E-004 -2.827552825856399E-004
 -2.827408405519639E-004 -2.827694075529339E-004
 -2.827319596197994E-004 -2.827782722805212E-004
 -2.827697039247152E-004 -2.827405939865779E-004
 -2.827758746915336E-004 -2.827343496302481E-004
 -2.827550407027127E-004 -2.827551938047013E-004
 -2.827569889331254E-004 -2.827533312915720E-004
 -2.827395783375923E-004 -2.827706398124931E-004
 -2.827613279941074E-004 -2.827488954180572E-004
 -2.827485366213248E-004 -2.827617709167212E-004
 -2.827207554217013E-004 -2.827894878435797E-004
 -2.827507021342938E-004 -2.827595155702363E-004
 -2.827438190569645E-004 -2.827664346438286E-004
 -2.827459764364100E-004 -2.827642601116774E-004
 -2.827467472146945E-004 -2.827634778332374E-004
 -2.827634518912675E-004 -2.827468512565289E-004
 -2.827786468709212E-004 -2.827315774021031E-004
 -2.827625543352458E-004 -2.827476558890616E-004
 -2.827511576238995E-004 -2.827590897465766E-004
 -2.827486541152472E-004 -2.827615653197264E-004
 -2.827649893528125E-004 -2.827452455085480E-004
 -2.827503132368398E-004 -2.827599895956095E-004
 -2.827390810905355E-004 -2.827711252836623E-004
 -2.827429325876474E-004 -2.827673032088519E-004
 -2.827611675575952E-004 -2.827490968155060E-004
 -2.827653994087327E-004 -2.827448151998044E-004
 -2.827730833674790E-004 -2.827371317543496E-004
 -2.827492297512313E-004 -2.827610662791230E-004
 -2.827438477737951E-004 -2.827663874948434E-004
 -2.827448317482223E-004 -2.827653878579265E-004
 -2.827618237064747E-004 -2.827484363574826E-004
 -2.827669885640984E-004 -2.827432469411623E-004
 -2.827310903701823E-004 -2.827791459791015E-004
 -2.827664505863769E-004 -2.827438463641130E-004
 -2.827623518460692E-004 -2.827478588170918E-004
 -2.827629341553221E-004 -2.827472872317538E-004
 -2.827493654375603E-004 -2.827608827516156E-004
 -2.827459550219047E-004 -2.827642462729577E-004
 -2.827654533156290E-004 -2.827448070957975E-004
 -2.827451575807598E-004 -2.827651364845268E-004
 -2.827719633445782E-004 -2.827382731974878E-004
 -2.827492796638694E-004 -2.827609887838347E-004
 -2.827564755839138E-004 -2.827538246134603E-004
 -2.827557561199001E-004 -2.827544701960594E-004
 -2.827633188838429E-004 -2.827469351648451E-004
 -2.827541827627215E-004 -2.827560920190697E-004
 -2.827740477789639E-004 -2.827361778071098E-004
 -2.827566777652920E-004 -2.827535749449414E-004
 -2.827625427270391E-004 -2.827477593590835E-004
 -2.827819170152069E-004 -2.827283171095656E-004
 -2.827385590227245E-004 -2.827717050772775E-004
 -2.827679624801143E-004 -2.827423458474802E-004
 -2.827526557388774E-004 -2.827575720853034E-004
 -2.827524193041366E-004 -2.827578358078165E-004
 -2.827615330093620E-004 -2.827487692200896E-004
 -2.827675543435733E-004 -2.827426881041285E-004
 -2.827410660080127E-004 -2.827691811254718E-004
 -2.827634807985354E-004 -2.827467922200986E-004
 -2.827423005953895E-004 -2.827679360477049E-004
 -2.827447848374942E-004 -2.827654792601085E-004
 -2.827472488739117E-004 -2.827630477562698E-004
 -2.827391323435467E-004 -2.827710986718928E-004
 -2.827569924537181E-004 -2.827532627305454E-004
 -2.827615694252495E-004 -2.827487313399887E-004
 -2.827701126179209E-004 -2.827401051508328E-004
 -2.827531140116562E-004 -2.827571307542368E-004
 -2.827678194909835E-004 -2.827424737843053E-004
 -2.827866991838184E-004 -2.827235437566127E-004
 -2.827489358641131E-004 -2.827612973954250E-004
 -2.827515552135155E-004 -2.827586997089010E-004
 -2.827708531909160E-004 -2.827393772714197E-004
 -2.827492017614197E-004 -2.827610561685763E-004
 -2.827686351102245E-004 -2.827416776454130E-004
 -2.827645184569299E-004 -2.827457297548880E-004
 -2.827792489639271E-004 -2.827309928526048E-004
 -2.827387609433773E-004 -2.827715297427559E-004
 -2.827394706695690E-004 -2.827707510044801E-004
 -2.827460400217645E-004 -2.827642073399718E-004
 -2.827661657340289E-004 -2.827441403712858E-004
 -2.827550839525578E-004 -2.827551451735604E-004
 -2.827316748148537E-004 -2.827785857567343E-004
 -2.827762155486048E-004 -2.827340935546666E-004
 -2.827554626989147E-004 -2.827547622575223E-004
 -2.827458764758158E-004 -2.827643576543874E-004
 -2.827580945178999E-004 -2.827521661213046E-004
 -2.827540810167830E-004 -2.827561425233037E-004
 -2.827772363696394E-004 -2.827330076292743E-004
 -2.827424459559429E-004 -2.827678470362213E-004
 -2.827547954633920E-004 -2.827554081009267E-004
 -2.827484477994701E-004 -2.827617776261243E-004
 -2.827608783218434E-004 -2.827493528136324E-004
 -2.827632305507327E-004 -2.827469757041708E-004
 -2.827405806580533E-004 -2.827696475762974E-004
 -2.827705623359795E-004 -2.827397239816240E-004
 -2.827590797495746E-004 -2.827511595748577E-004
 -2.827663303089154E-004 -2.827438905677638E-004
 -2.827476976568555E-004 -2.827625545422537E-004
 -2.827450999220393E-004 -2.827651443899104E-004
 -2.827457947126862E-004 -2.827644459869498E-004
 -2.827683196827910E-004 -2.827419673711878E-004
 -2.827655182037783E-004 -2.827446938813077E-004
 -2.827673107428114E-004 -2.827429266563963E-004
 -2.827466063428309E-004 -2.827636445514662E-004
 -2.827467089443972E-004 -2.827635158603151E-004
 -2.827664847584594E-004 -2.827437491498804E-004
 -2.827443474715070E-004 -2.827659509824727E-004
 -2.827344181615850E-004 -2.827758049869386E-004
 -2.827490366788927E-004 -2.827611836374318E-004
 -2.827626731901474E-004 -2.827475691462728E-004
 -2.827599127946004E-004 -2.827503089670207E-004
 -2.827496971678060E-004 -2.827605621859070E-004
 -2.827511894856765E-004 -2.827590994926784E-004
 -2.827608402734593E-004 -2.827493992624053E-004
 -2.827546476385844E-004 -2.827555821402636E-004
 -2.827766970641474E-004 -2.827335350208040E-004
 -2.827362716122546E-004 -2.827739574612862E-004
 -2.827546850631781E-004 -2.827555475118500E-004
 -2.827170676942261E-004 -2.827931486923312E-004
 -2.827857408737105E-004 -2.827244892163229E-004
 -2.827363627313491E-004 -2.827738742657591E-004
 -2.827723025146666E-004 -2.827379022209413E-004
 -2.827450579842660E-004 -2.827651779039499E-004
 -2.827440363527776E-004 -2.827661825834481E-004
 -2.827492449444174E-004 -2.827609554083239E-004
 -2.827723790404477E-004 -2.827378589129442E-004
 -2.827757055118566E-004 -2.827345497358807E-004
 -2.827273655434837E-004 -2.827828586004812E-004
 -2.827894714360089E-004 -2.827207612125349E-004
 -2.827641219132707E-004 -2.827460825772488E-004
 -2.827771036366548E-004 -2.827331200472375E-004
 -2.827268305525730E-004 -2.827834228817670E-004
 -2.827748765634816E-004 -2.827353089773607E-004
 -2.827491985012231E-004 -2.827610296150404E-004
 -2.827577456729263E-004 -2.827524875393219E-004
 -2.827974084762176E-004 -2.827128215647715E-004
 -2.827445579131412E-004 -2.827656549970783E-004
 -2.827859050704209E-004 -2.827243334887380E-004
 -2.827425638004435E-004 -2.827677534095075E-004
 -2.827647794285122E-004 -2.827454579286683E-004
 -2.827579798570526E-004 -2.827522766225630E-004
 -2.827606197065745E-004 -2.827496758944015E-004
 -2.827526775148314E-004 -2.827575506176146E-004
 -2.827908780570063E-004 -2.827193590321026E-004
 -2.827658762840926E-004 -2.827444300419318E-004
 -2.827285768577277E-004 -2.827816416934815E-004
 -2.827537991581039E-004 -2.827564441068612E-004
 -2.827650733719887E-004 -2.827452452139358E-004
 -2.827606377248030E-004 -2.827495910540887E-004
 -2.827763640644161E-004 -2.827338608838018E-004
 -2.827619113893035E-004 -2.827483650109336E-004
 -2.827352739137422E-004 -2.827749360951005E-004
 -2.827549188801183E-004 -2.827553270965418E-004
 -2.827702296698512E-004 -2.827400633567534E-004
 -2.827277212057808E-004 -2.827825078886844E-004
 -2.827427483846171E-004 -2.827674849573616E-004
 -2.827600489338761E-004 -2.827501834760344E-004
 -2.827538499879241E-004 -2.827563741069827E-004
 -2.827664430468367E-004 -2.827437775631597E-004
 -2.827558617188539E-004 -2.827544433875117E-004
 -2.827371876032978E-004 -2.827730411314618E-004
 -2.827555956622443E-004 -2.827546422200291E-004
 -2.827635329504061E-004 -2.827467391785035E-004
 -2.827558575471769E-004 -2.827544036188515E-004
 -2.827819304870369E-004 -2.827282848600147E-004
 -2.827620968023701E-004 -2.827481899448229E-004
 -2.827657471867666E-004 -2.827444915876514E-004
 -2.827960305244104E-004 -2.827141952987137E-004
 -2.827647997669303E-004 -2.827454330244486E-004
 -2.827463875228531E-004 -2.827638201935198E-004
 -2.827590649363055E-004 -2.827511546781749E-004
 -2.827454049866238E-004 -2.827648868895011E-004
 -2.827435548933276E-004 -2.827666703213719E-004
 -2.827224051442908E-004 -2.827878318169400E-004
 -2.827558301504475E-004 -2.827544580708262E-004
 -2.827612886926287E-004 -2.827489500105176E-004
 -2.827688585322404E-004 -2.827413613542600E-004
 -2.827510897647088E-004 -2.827591690161307E-004
 -2.827527270413526E-004 -2.827575192234229E-004
 -2.827351105916498E-004 -2.827750823513682E-004
 -2.827531882852769E-004 -2.827570871060314E-004
 -2.827410695377823E-004 -2.827691641388231E-004
 -2.827353757395635E-004 -2.827748676434998E-004
 -2.827430394002833E-004 -2.827672573301668E-004
 -2.827877198463738E-004 -2.827225063412753E-004
 -2.827653470290001E-004 -2.827448827189715E-004
 -2.827577250426974E-004 -2.827525672692371E-004
 -2.827454487728935E-004 -2.827647706723704E-004
 -2.827438896140607E-004 -2.827663423686798E-004
 -2.827489432480091E-004 -2.827613113491092E-004
 -2.827730747963943E-004 -2.827371275838706E-004
 -2.827546377047562E-004 -2.827556014465058E-004
 -2.827540092482132E-004 -2.827562740802049E-004
 -2.827743764482054E-004 -2.827358612775011E-004
 -2.827673243609369E-004 -2.827429006244895E-004
 -2.827526095815253E-004 -2.827576391992733E-004
 -2.827424800574133E-004 -2.827677332264865E-004
 -2.827247022217236E-004 -2.827855127288553E-004
 -2.827553011751298E-004 -2.827549378553310E-004
 -2.827618674544737E-004 -2.827483384135172E-004
 -2.827557146178482E-004 -2.827545060817535E-004
 -2.827613253168686E-004 -2.827488964082239E-004
 -2.827618985124462E-004 -2.827483304939666E-004
 -2.827601072391462E-004 -2.827501073807991E-004
 -2.827508615921272E-004 -2.827593663655255E-004
 -2.827554453549328E-004 -2.827547806038875E-004
 -2.827648295617381E-004 -2.827453824173194E-004
 -2.827512316129883E-004 -2.827590089607975E-004
 -2.827867318694929E-004 -2.827234951081012E-004
 -2.827642979317210E-004 -2.827459122990968E-004
 -2.827530655450390E-004 -2.827571710031843E-004
 -2.827520928434584E-004 -2.827581317682678E-004
 -2.827478015789983E-004 -2.827624041389713E-004
 -2.827523331209439E-004 -2.827578943614138E-004
 -2.827464994904577E-004 -2.827637155870006E-004
 -2.827553352963278E-004 -2.827548904097267E-004
 -2.827627789977215E-004 -2.827474366402122E-004
 -2.827479800303699E-004 -2.827622451840797E-004
 -2.827521282448260E-004 -2.827580914894881E-004
 -2.827712480112702E-004 -2.827389554027934E-004
 -2.827704975780284E-004 -2.827397310345988E-004
 -2.827616749181417E-004 -2.827485627825079E-004
 -2.827585668846294E-004 -2.827516477316021E-004
 -2.827585830386015E-004 -2.827516388382860E-004
 -2.827614541661504E-004 -2.827487868297614E-004
 -2.827638618816356E-004 -2.827463681934154E-004
 -2.827500496579597E-004 -2.827601680388487E-004
 -2.827571050937809E-004 -2.827531194160655E-004
 -2.827552090796907E-004 -2.827550034434094E-004
 -2.827548372290917E-004 -2.827553931741575E-004
 -2.827670457721806E-004 -2.827431898275978E-004
 -2.827516590266415E-004 -2.827585534218489E-004
 -2.827554997226560E-004 -2.827547148228177E-004
 -2.827527906651514E-004 -2.827574502414091E-004
 -2.827620104284418E-004 -2.827481905423876E-004
 -2.827386885748619E-004 -2.827715292203010E-004
 -2.827716625566773E-004 -2.827385817677798E-004
 -2.827645095678391E-004 -2.827457261433961E-004
 -2.827445036357448E-004 -2.827657274126745E-004
 -2.827420408838947E-004 -2.827681807112750E-004
 -2.827430514851204E-004 -2.827671695588196E-004
 -2.827655184796563E-004 -2.827447012087109E-004
 -2.827687427729169E-004 -2.827414821725514E-004
 Gradient of SCF Energy
            1           2           3           4           5           6
    1  -0.0000663  -0.0017001  -0.0016139   0.0000704   0.0000935  -0.0000093
    2  -0.0001788   0.0009678   0.0011221  -0.0002162  -0.0001916  -0.0001187
    3   0.0003947  -0.0050367  -0.0051384   0.0008031   0.0003783   0.0004945
            7           8           9          10          11          12
    1   0.0000706   0.0002370   0.0000274  -0.0002058  -0.0000514  -0.0001717
    2  -0.0000114  -0.0001998  -0.0001299  -0.0000301  -0.0000566  -0.0000717
    3   0.0001366   0.0004949   0.0005864   0.0001671   0.0002329  -0.0018697
           13          14          15          16          17          18
    1  -0.0001593   0.0000626   0.0003617  -0.0007484   0.0002301   0.0002884
    2  -0.0001539  -0.0000871  -0.0000343   0.0009572  -0.0001988  -0.0000225
    3   0.0008707   0.0003237   0.0006596  -0.0018083   0.0008090   0.0005951
           19          20          21          22          23          24
    1   0.0003007  -0.0002224   0.0001384   0.0002331  -0.0000211   0.0001102
    2  -0.0001739  -0.0001321  -0.0002993  -0.0000858  -0.0001748  -0.0002242
    3   0.0006611   0.0002745   0.0002753   0.0004900  -0.0001108   0.0006816
           25          26          27          28          29          30
    1   0.0002906   0.0000792  -0.0004624   0.0004292  -0.0000774   0.0000699
    2  -0.0000363  -0.0001558  -0.0001043  -0.0001050   0.0000295  -0.0000359
    3   0.0004391   0.0001203  -0.0006905   0.0003854   0.0002091   0.0001132
           31          32          33          34          35          36
    1   0.0000505   0.0002401   0.0001018   0.0001610   0.0001705   0.0003029
    2  -0.0000456   0.0000618  -0.0000282  -0.0000814  -0.0000348  -0.0000791
    3   0.0002035   0.0004286   0.0001704   0.0001706   0.0000967   0.0006783
           37          38          39          40          41          42
    1   0.0000447   0.0000843   0.0000831   0.0001674   0.0000830   0.0000738
    2  -0.0000477  -0.0000168  -0.0000140   0.0000490  -0.0000525   0.0000423
    3   0.0000717   0.0000923   0.0001160   0.0003307   0.0001247   0.0002615
           43          44          45          46          47          48
    1   0.0001511   0.0002892  -0.0006180  -0.0002019   0.0003540  -0.0020545
    2   0.0000080   0.0000264   0.0000494  -0.0000049  -0.0000438   0.0004494
    3   0.0002070   0.0002935  -0.0003314   0.0000441   0.0002121  -0.0020163
           49          50          51          52          53          54
    1  -0.0011991  -0.0000008   0.0003001  -0.0000153  -0.0003801   0.0004399
    2   0.0003350   0.0000383  -0.0001943   0.0002534  -0.0003462  -0.0002334
    3  -0.0026109  -0.0002568   0.0005979  -0.0002138  -0.0013051   0.0005667
           55          56          57          58          59          60
    1   0.0002831  -0.0021700   0.0002014  -0.0007324   0.0007784   0.0003306
    2  -0.0000113   0.0005444  -0.0001792   0.0006070  -0.0001212  -0.0000837
    3   0.0004582  -0.0031315   0.0004883  -0.0001284   0.0009000   0.0004470
           61          62          63          64          65          66
    1   0.0005754   0.0001757   0.0007227   0.0002027   0.0004483   0.0002130
    2  -0.0001634  -0.0000929  -0.0000302  -0.0000196  -0.0000517  -0.0000324
    3   0.0008704   0.0002361   0.0009659   0.0002740   0.0006157   0.0002753
           67          68          69          70          71          72
    1   0.0006446   0.0002071   0.0002866   0.0001559   0.0001974  -0.0014035
    2  -0.0001132  -0.0000318  -0.0004777  -0.0002841   0.0001510  -0.0003823
    3   0.0008199   0.0002369   0.0001677   0.0002050   0.0002042  -0.0021479
           73          74          75          76          77          78
    1  -0.0021859  -0.0000829   0.0003626  -0.0004284  -0.0015423   0.0006060
    2   0.0003721   0.0000955  -0.0000305   0.0004598   0.0002537  -0.0000654
    3  -0.0016753  -0.0001624   0.0004705  -0.0000791  -0.0005880   0.0006416
           79          80          81          82          83          84
    1   0.0004321  -0.0022940   0.0003339  -0.0000191   0.0008585   0.0003350
    2  -0.0000292  -0.0000276  -0.0001319  -0.0001787   0.0002126  -0.0000706
    3   0.0003550  -0.0027814   0.0002445  -0.0005748   0.0010760   0.0003654
           85          86          87          88          89          90
    1   0.0005297   0.0002192   0.0006299   0.0002457   0.0007389   0.0002769
    2   0.0000554   0.0000078   0.0001233  -0.0000362   0.0000268   0.0000542
    3   0.0007753   0.0002421   0.0006474   0.0002819   0.0008073   0.0002734
           91          92          93          94          95          96
    1   0.0007206   0.0002020   0.0005952   0.0000162  -0.0000233  -0.0002785
    2  -0.0000193   0.0000205  -0.0001695  -0.0000701  -0.0001520   0.0001061
    3   0.0006701   0.0002600   0.0006288  -0.0005292   0.0001067  -0.0005362
           97          98          99         100         101         102
    1   0.0001889  -0.0005723  -0.0000464   0.0002288   0.0003141   0.0003211
    2   0.0000500   0.0000188  -0.0002371   0.0001051  -0.0003270   0.0000878
    3   0.0001708  -0.0002925  -0.0002209   0.0004070   0.0002405   0.0004556
          103         104         105         106         107         108
    1  -0.0014767  -0.0017821   0.0005774   0.0002783   0.0002642   0.0001745
    2  -0.0019800  -0.0014929   0.0003434   0.0000991   0.0001115   0.0000575
    3  -0.0027905  -0.0031966   0.0009226   0.0003572   0.0004416   0.0001936
          109         110         111         112         113         114
    1   0.0006499   0.0002675   0.0003577   0.0000949  -0.0011223   0.0003813
    2   0.0001404   0.0001504  -0.0000499   0.0001159   0.0001865   0.0004092
    3   0.0008186   0.0004407   0.0003623   0.0002197  -0.0005479   0.0005837
          115         116         117         118         119         120
    1   0.0002440   0.0004570  -0.0007209   0.0002927   0.0003283   0.0002480
    2   0.0000789   0.0001888   0.0001371   0.0003581   0.0002010   0.0003609
    3   0.0003576   0.0005610  -0.0014032   0.0006013   0.0004445   0.0008347
          121         122         123         124         125         126
    1   0.0002083   0.0000520   0.0000500   0.0000517   0.0002581   0.0000325
    2   0.0000700   0.0000618   0.0000571   0.0000737   0.0000792   0.0000097
    3   0.0003015   0.0001370   0.0001413   0.0001107   0.0002754   0.0001518
          127         128         129         130         131         132
    1   0.0000602   0.0000615   0.0002564   0.0001043   0.0002579   0.0002288
    2   0.0001102   0.0000660   0.0000470   0.0001198   0.0000526  -0.0000265
    3   0.0001165   0.0000947   0.0003648   0.0001303   0.0002761   0.0002530
          133         134         135         136
    1   0.0003440   0.0001082   0.0002446   0.0001579
    2   0.0000540   0.0000681   0.0000730  -0.0000018
    3   0.0005107   0.0001316   0.0002775   0.0002157
 Max gradient component =       5.138E-03
 RMS gradient           =       7.098E-04
 Computing fast IEFPCM-SWIG gradient.
 Updating gradient with PCM contributions...
 -- total gradient after adding PCM contribution --
---------------------------------------------------
  Atom         X              Y              Z     
---------------------------------------------------
   1      -0.000066      -0.000179       0.000395
   2      -0.001700       0.000968      -0.005037
   3      -0.001614       0.001122      -0.005138
   4       0.000070      -0.000216       0.000803
   5       0.000094      -0.000192       0.000378
   6      -0.000009      -0.000119       0.000494
   7       0.000071      -0.000011       0.000137
   8       0.000237      -0.000200       0.000495
   9       0.000027      -0.000130       0.000586
  10      -0.000206      -0.000030       0.000167
  11      -0.000051      -0.000057       0.000233
  12      -0.000172      -0.000072      -0.001870
  13      -0.000159      -0.000154       0.000871
  14       0.000063      -0.000087       0.000324
  15       0.000362      -0.000034       0.000660
  16      -0.000749       0.000957      -0.001808
  17       0.000230      -0.000199       0.000809
  18       0.000288      -0.000022       0.000595
  19       0.000301      -0.000174       0.000661
  20      -0.000222      -0.000132       0.000275
  21       0.000138      -0.000299       0.000275
  22       0.000233      -0.000086       0.000490
  23      -0.000021      -0.000175      -0.000111
  24       0.000110      -0.000224       0.000682
  25       0.000291      -0.000036       0.000439
  26       0.000079      -0.000156       0.000120
  27      -0.000462      -0.000104      -0.000691
  28       0.000429      -0.000105       0.000385
  29      -0.000077       0.000029       0.000209
  30       0.000070      -0.000036       0.000113
  31       0.000050      -0.000046       0.000204
  32       0.000240       0.000062       0.000428
  33       0.000102      -0.000028       0.000170
  34       0.000161      -0.000082       0.000171
  35       0.000170      -0.000035       0.000097
  36       0.000303      -0.000079       0.000679
  37       0.000045      -0.000048       0.000072
  38       0.000084      -0.000017       0.000092
  39       0.000083      -0.000014       0.000116
  40       0.000167       0.000049       0.000331
  41       0.000083      -0.000052       0.000125
  42       0.000074       0.000042       0.000261
  43       0.000151       0.000008       0.000207
  44       0.000289       0.000026       0.000293
  45      -0.000618       0.000049      -0.000331
  46      -0.000202      -0.000005       0.000044
  47       0.000354      -0.000044       0.000212
  48      -0.002055       0.000449      -0.002016
  49      -0.001199       0.000335      -0.002611
  50      -0.000001       0.000038      -0.000257
  51       0.000300      -0.000194       0.000598
  52      -0.000015       0.000253      -0.000214
  53      -0.000380      -0.000346      -0.001305
  54       0.000440      -0.000233       0.000567
  55       0.000283      -0.000011       0.000458
  56      -0.002170       0.000544      -0.003132
  57       0.000201      -0.000179       0.000488
  58      -0.000732       0.000607      -0.000128
  59       0.000778      -0.000121       0.000900
  60       0.000331      -0.000084       0.000447
  61       0.000575      -0.000163       0.000871
  62       0.000176      -0.000093       0.000236
  63       0.000722      -0.000030       0.000966
  64       0.000203      -0.000020       0.000274
  65       0.000448      -0.000052       0.000616
  66       0.000213      -0.000033       0.000275
  67       0.000644      -0.000113       0.000820
  68       0.000207      -0.000032       0.000237
  69       0.000287      -0.000478       0.000168
  70       0.000156      -0.000284       0.000205
  71       0.000197       0.000151       0.000204
  72      -0.001404      -0.000382      -0.002148
  73      -0.002186       0.000372      -0.001675
  74      -0.000083       0.000096      -0.000163
  75       0.000363      -0.000031       0.000471
  76      -0.000428       0.000460      -0.000079
  77      -0.001542       0.000254      -0.000588
  78       0.000606      -0.000065       0.000642
  79       0.000432      -0.000029       0.000355
  80      -0.002294      -0.000028      -0.002781
  81       0.000334      -0.000132       0.000244
  82      -0.000019      -0.000179      -0.000575
  83       0.000858       0.000213       0.001076
  84       0.000335      -0.000071       0.000366
  85       0.000530       0.000055       0.000775
  86       0.000219       0.000008       0.000242
  87       0.000630       0.000123       0.000647
  88       0.000245      -0.000036       0.000282
  89       0.000739       0.000027       0.000807
  90       0.000277       0.000054       0.000274
  91       0.000721      -0.000019       0.000670
  92       0.000202       0.000021       0.000260
  93       0.000595      -0.000170       0.000629
  94       0.000016      -0.000070      -0.000529
  95      -0.000023      -0.000152       0.000107
  96      -0.000279       0.000106      -0.000536
  97       0.000189       0.000050       0.000171
  98      -0.000572       0.000019      -0.000293
  99      -0.000046      -0.000237      -0.000221
 100       0.000229       0.000105       0.000407
 101       0.000314      -0.000327       0.000240
 102       0.000321       0.000088       0.000456
 103      -0.001477      -0.001980      -0.002790
 104      -0.001782      -0.001493      -0.003197
 105       0.000577       0.000343       0.000923
 106       0.000278       0.000099       0.000357
 107       0.000264       0.000111       0.000441
 108       0.000175       0.000058       0.000194
 109       0.000650       0.000140       0.000819
 110       0.000268       0.000150       0.000441
 111       0.000358      -0.000050       0.000363
 112       0.000095       0.000116       0.000220
 113      -0.001122       0.000186      -0.000548
 114       0.000381       0.000409       0.000583
 115       0.000244       0.000079       0.000358
 116       0.000457       0.000189       0.000561
 117      -0.000721       0.000137      -0.001403
 118       0.000293       0.000358       0.000601
 119       0.000328       0.000201       0.000445
 120       0.000248       0.000361       0.000835
 121       0.000208       0.000070       0.000301
 122       0.000052       0.000062       0.000137
 123       0.000050       0.000057       0.000141
 124       0.000052       0.000074       0.000111
 125       0.000258       0.000079       0.000275
 126       0.000033       0.000010       0.000152
 127       0.000060       0.000110       0.000116
 128       0.000061       0.000066       0.000095
 129       0.000256       0.000047       0.000365
 130       0.000105       0.000120       0.000130
 131       0.000258       0.000053       0.000276
 132       0.000229      -0.000027       0.000253
 133       0.000344       0.000054       0.000511
 134       0.000108       0.000068       0.000132
 135       0.000244       0.000073       0.000278
 136       0.000158      -0.000002       0.000216
---------------------------------------------------
 Number of fixed atoms: 0
 Gradient time:  CPU 1856.08 s  wall 651.80 s
 Geometry Optimization Parameters
   NAtoms,    NIC,     NZ,  NCons,   NDum,   NFix, NCnnct, MaxDiis
      136    1088     136       0       0       0       0       0


** GEOMETRY OPTIMIZATION IN DELOCALIZED INTERNAL COORDINATES **
   Searching for a Minimum

   Optimization Cycle:   1

                       Coordinates (Angstroms)
     ATOM                X               Y               Z
      1  N         0.0000000000    0.0000000000    0.0000000000
      2  C         0.0000000000    0.0000000000    1.3791240000
      3  C         1.3103457695    0.0000000000   -0.4415189494
      4  C         1.8213050063   -0.0591221179   -1.7315433281
      5  H         1.1728350049   -0.0823323041   -2.5971931018
      6  C         3.1951818991   -0.0999408802   -1.8761873374
      7  H         3.6093772643   -0.1478477191   -2.8765655502
      8  C        -1.0678209002    0.0036031031    2.2708917729
      9  H        -2.0937727642    0.0135943053    1.9277438463
     10  C        -0.7794275241   -0.0077655135    3.6217280956
     11  H        -1.6010013365   -0.0097857370    4.3289598767
     12  C         1.3240478729    0.0032441165    1.8387847162
     13  C         1.5828225834   -0.0088269661    3.2074467846
     14  H         2.6058312937   -0.0133515708    3.5665194633
     15  C         0.5358183097   -0.0192406106    4.1122323584
     16  C         2.1630501145    0.0049598654    0.6719774110
     17  C         3.5415991170   -0.0361498281    0.4957286554
     18  H         4.1982610420   -0.0380759844    1.3587311608
     19  C         4.0726296308   -0.0881652671   -0.7804802676
     20  C        -1.1418731949   -0.0348599728   -0.8203267910
     21  C        -1.3509487759    0.9791397041   -1.7413683307
     22  H        -0.6488907422    1.8032227332   -1.7896764870
     23  C        -2.4472321667    0.9403873365   -2.5901252872
     24  C        -2.0491666911   -1.0789617567   -0.7175733942
     25  H        -1.8709449831   -1.8702909653    0.0013678304
     26  C        -3.1642855564   -1.1218386682   -1.5460335139
     27  C        -3.3601772067   -0.1179667349   -2.5014997448
     28  C         5.5570101314   -0.1479770670   -1.0011102942
     29  H         6.1010250978   -0.0854801471   -0.0591279238
     30  H         5.9041901540    0.6704722500   -1.6337875736
     31  H         5.8525705566   -1.0796105919   -1.4870961270
     32  C        -2.6510116345    2.0318885354   -3.6021216091
     33  H        -1.8933038686    2.8093710340   -3.5123112598
     34  H        -3.6259562245    2.5096201487   -3.4853085219
     35  H        -2.6018176560    1.6431373058   -4.6220133289
     36  C         0.7843810907   -0.0428827791    5.5937709173
     37  H         1.8500833528   -0.0619523569    5.8195096490
     38  H         0.3365772973   -0.9215188699    6.0615024403
     39  H         0.3621748546    0.8348470870    6.0864412671
     40  C        -4.1438835570   -2.2567954662   -1.4354222434
     41  H        -3.8477055028   -2.9761316001   -0.6724836338
     42  H        -5.1425505231   -1.8982883209   -1.1771476764
     43  H        -4.2358383396   -2.8004281919   -2.3782660748
     44  B        -4.5409757510   -0.1647005813   -3.5334591926
     45  C        -5.9027747445    0.5071520823   -3.2310632789
     46  C        -6.2083600545    0.9206505735   -1.9346615874
     47  H        -5.4780210722    0.7947667261   -1.1419708104
     48  C        -7.4445089737    1.4751940062   -1.6675540624
     49  C        -8.3840655698    1.6727310982   -2.7040826588
     50  C        -8.0651012783    1.3126724012   -4.0021528787
     51  H        -8.7697880785    1.4901879552   -4.8066775487
     52  C        -6.8349473764    0.7058701714   -4.2752623755
     53  C        -8.0394131326    1.9189783397   -0.4104853057
     54  C        -7.6315785209    1.9466710128    0.8974258597
     55  H        -6.6497867889    1.6034516089    1.2000576687
     56  C        -9.3305803867    2.3740330668   -0.7296376587
     57  C       -10.2382253517    2.8507525355    0.2097199567
     58  C        -9.5925797328    2.2503909657   -2.1072803642
     59  C       -10.8256402134    2.6287111778   -2.5663525384
     60  H       -11.0954805910    2.5518156861   -3.6119397946
     61  C        -8.5309315873    2.4345778239    1.8737917944
     62  H        -8.2112671282    2.4565769551    2.9074768659
     63  C        -9.7941701933    2.8743913901    1.5544987649
     64  H       -10.4520981115    3.2345491333    2.3358556182
     65  C       -11.5021328531    3.2392970780   -0.2938201051
     66  H       -12.2607958446    3.6203910004    0.3786506015
     67  C       -11.7710081073    3.1262340302   -1.6375299305
     68  H       -12.7446218825    3.4237633502   -2.0038051050
     69  C        -4.3073680485   -0.8434861624   -4.9091329900
     70  C        -3.1729274360   -1.6265310010   -5.1163393754
     71  H        -2.4560474046   -1.7685741933   -4.3146306719
     72  C        -2.9647527654   -2.2156856774   -6.3468879867
     73  C        -3.8646700599   -2.0018493171   -7.4152744862
     74  C        -4.9748448600   -1.1956962640   -7.2253965954
     75  H        -5.6569304243   -0.9961723874   -8.0442503957
     76  C        -5.2185139644   -0.6286528614   -5.9693697533
     77  C        -1.8865027880   -3.0816324120   -6.8102647092
     78  C        -0.7624203720   -3.6177139491   -6.2377865457
     79  H        -0.4985386349   -3.4294853754   -5.2040958334
     80  C        -2.1680238508   -3.3682382563   -8.1563582002
     81  C        -1.3671943288   -4.1727258059   -8.9592595949
     82  C        -3.3556013805   -2.7394381638   -8.5775721817
     83  C        -3.7571170407   -2.9272875594   -9.8730018246
     84  H        -4.6587713066   -2.4734648177  -10.2641963216
     85  C         0.0701454432   -4.4405570489   -7.0308039518
     86  H         0.9581405181   -4.8654673325   -6.5810838600
     87  C        -0.2110723012   -4.7164803367   -8.3483876190
     88  H         0.4550042901   -5.3523452796   -8.9186082076
     89  C        -1.8070160257   -4.3483481676  -10.2919050872
     90  H        -1.2335832349   -4.9607556428  -10.9768446596
     91  C        -2.9637496732   -3.7398133852  -10.7187580337
     92  H        -3.2847025835   -3.8846162456  -11.7417664802
     93  B        -6.4522214051    0.2825250077   -5.7243026391
     94  C        -7.2606047618    0.8848088067   -6.9235016209
     95  C        -8.4075304057    0.2826768750   -7.4462268904
     96  C        -9.1322396882    0.9276773496   -8.4428105209
     97  H       -10.0457070762    0.4865466520   -8.8242004186
     98  C        -8.7077432292    2.1530588661   -8.9336851684
     99  C        -7.5459514645    2.7327936841   -8.4424401788
    100  H        -7.2094660885    3.6800685978   -8.8470008019
    101  C        -6.8248935164    2.1145345339   -7.4323689873
    102  N        -9.4571136360    2.8258695216   -9.9168609665
    103  C        -9.9583440285    4.1041544072   -9.7905127831
    104  C        -9.6871673893    2.3920131868  -11.2060957455
    105  C        -9.2994852065    1.2027557385  -11.8086010978
[...]
  0.274   0.276   0.277   0.279   0.283   0.287   0.288   0.290
  0.292   0.297   0.299   0.303   0.305   0.308   0.313   0.314
  0.317   0.317   0.318   0.319   0.324   0.325   0.327   0.328
  0.331   0.334   0.342   0.344   0.354   0.359   0.360   0.367
  0.368   0.371   0.375   0.376   0.378   0.385   0.387   0.390
  0.392   0.395   0.398   0.408   0.411   0.411   0.415   0.417
  0.420   0.424   0.430   0.432   0.436   0.447   0.448   0.449
  0.455   0.457   0.463   0.463   0.464   0.468   0.469   0.473
  0.480   0.480   0.483   0.487   0.489   0.490   0.493   0.494
  0.498   0.498   0.499   0.505   0.509   0.510   0.510   0.511
  0.513   0.516   0.518   0.519   0.520   0.522   0.524   0.525
  0.525   0.526   0.528   0.530   0.532   0.533   0.534   0.539
  0.542   0.544   0.545   0.546   0.549   0.551   0.553   0.553
  0.555   0.557   0.558   0.559   0.562   0.568   0.569   0.573
  0.574   0.576   0.578   0.578   0.580   0.582   0.583   0.584
  0.585   0.586   0.587   0.587   0.588   0.590   0.590   0.591
  0.592   0.593   0.594   0.596   0.598   0.600   0.602   0.606
  0.607   0.609   0.610   0.612   0.613   0.615   0.616   0.617
  0.619   0.620   0.621   0.622   0.623   0.625   0.627   0.628
  0.629   0.632   0.634   0.635   0.638   0.638   0.640   0.642
  0.643   0.645   0.646   0.649   0.650   0.652   0.653   0.655
  0.655   0.659   0.659   0.666   0.670   0.676   0.677   0.678
  0.680   0.681   0.683   0.687   0.691   0.691   0.693   0.694
  0.696   0.697   0.700   0.701   0.704   0.709   0.711   0.714
  0.717   0.722   0.722   0.724   0.726   0.728   0.729   0.729
  0.731   0.733   0.735   0.739   0.741   0.742   0.744   0.749
  0.753   0.754   0.756   0.757   0.760   0.761   0.764   0.766
  0.770   0.771   0.774   0.774   0.778   0.779   0.779   0.781
  0.782   0.784   0.788   0.789   0.797   0.800   0.802   0.803
  0.808   0.811   0.814   0.816   0.821   0.824   0.827   0.830
  0.834   0.835   0.839   0.849   0.853   0.855   0.857   0.862
  0.871   0.873   0.876   0.878   0.879   0.900   0.902   0.905
  0.905   0.910   0.912   0.915   0.921   0.924   0.927   0.934
  0.939   0.940   0.945   0.945   0.946   0.951   0.953   0.957
  0.960   0.961   0.963   0.964   0.967   0.968   0.972   0.978
  0.981   0.982   0.983   0.985   0.988   0.992   0.994   0.996
  0.997   0.999   1.000   1.007   1.009   1.012   1.015   1.017
  1.017   1.018   1.020   1.021   1.022   1.024   1.028   1.029
  1.030   1.035   1.037   1.039   1.041   1.042   1.045   1.048
  1.052   1.054   1.055   1.056   1.057   1.057   1.059   1.060
  1.061   1.062   1.067   1.068   1.069   1.070   1.071   1.072
  1.077   1.080   1.082   1.083   1.083   1.086   1.087   1.092
  1.094   1.095   1.098   1.106   1.107   1.111   1.112   1.114
  1.116   1.118   1.121   1.123   1.126   1.132   1.133   1.137
  1.137   1.139   1.144   1.147   1.147   1.148   1.149   1.151
  1.156   1.157   1.160   1.163   1.164   1.171   1.175   1.180
  1.184   1.188   1.190   1.197   1.197   1.199   1.203   1.207
  1.209   1.213   1.221   1.229   1.232   1.236   1.241   1.243
  1.245   1.250   1.256   1.261   1.265   1.268   1.270   1.276
  1.279   1.280   1.283   1.293   1.295   1.299   1.301   1.302
  1.306   1.307   1.309   1.315   1.317   1.324   1.326   1.329
  1.330   1.332   1.333   1.338   1.339   1.348   1.350   1.350
  1.357   1.359   1.361   1.365   1.375   1.376   1.378   1.379
  1.381   1.382   1.386   1.387   1.394   1.397   1.399   1.401
  1.405   1.408   1.412   1.414   1.421   1.428   1.434   1.436
  1.438   1.440   1.441   1.442   1.449   1.452   1.453   1.455
  1.457   1.461   1.465   1.474   1.481   1.486   1.492   1.502
  1.503   1.506   1.507   1.510   1.511   1.514   1.514   1.515
  1.519   1.520   1.522   1.526   1.527   1.529   1.531   1.533
  1.537   1.540   1.541   1.542   1.543   1.546   1.548   1.551
  1.554   1.555   1.557   1.560   1.563   1.564   1.566   1.569
  1.573   1.573   1.574   1.576   1.578   1.580   1.580   1.588
  1.592   1.599   1.603   1.608   1.611   1.617   1.621   1.630
  1.637   1.644   1.645   1.650   1.658   1.666   1.681   1.688
  1.696   1.717   1.732   1.738   1.746   1.747   1.762   1.779
  1.780   1.794   1.798   1.803   1.804   1.806   1.807   1.810
  1.811   1.814   1.814   1.816   1.827   1.828   1.832   1.834
  1.840   1.841   1.845   1.847   1.858   1.859   1.876   1.885
  1.886   1.888   1.892   1.900   1.901   1.903   1.904   1.906
  1.907   1.914   1.915   1.917   1.918   1.919   1.923   1.925
  1.927   1.929   1.932   1.936   1.939   1.940   1.941   1.942
  1.945   1.947   1.948   1.949   1.950   1.958   1.959   1.961
  1.965   1.965   1.971   1.976   1.980   1.981   1.982   1.985
  1.985   1.989   1.992   1.997   2.005   2.013   2.025   2.027
  2.030   2.037   2.041   2.045   2.058   2.062   2.066   2.067
  2.069   2.081   2.082   2.083   2.084   2.087   2.094   2.097
  2.108   2.108   2.117   2.126   2.128   2.129   2.135   2.136
  2.138   2.143   2.145   2.147   2.152   2.154   2.155   2.164
  2.167   2.169   2.178   2.182   2.184   2.186   2.187   2.190
  2.198   2.200   2.201   2.214   2.215   2.218   2.220   2.221
  2.225   2.228   2.229   2.238   2.239   2.242   2.245   2.247
  2.255   2.256   2.257   2.258   2.266   2.267   2.271   2.274
  2.275   2.276   2.278   2.283   2.285   2.286   2.288   2.291
  2.301   2.302   2.309   2.312   2.318   2.319   2.320   2.327
  2.335   2.336   2.339   2.341   2.342   2.344   2.345   2.346
  2.347   2.348   2.351   2.353   2.354   2.356   2.356   2.367
  2.369   2.373   2.377   2.380   2.381   2.386   2.388   2.391
  2.392   2.394   2.402   2.405   2.408   2.409   2.410   2.411
  2.413   2.414   2.416   2.419   2.422   2.430   2.434   2.435
  2.444   2.447   2.451   2.452   2.456   2.458   2.465   2.475
  2.478   2.478   2.481   2.489   2.490   2.490   2.491   2.492
  2.494   2.498   2.500   2.502   2.509   2.515   2.516   2.534
  2.547   2.552   2.565   2.576   2.584   2.592   2.610   2.626
  2.634   2.637   2.639   2.639   2.640   2.660   2.661   2.663
  2.668   2.681   2.683   2.685   2.697   2.703   2.706   2.715
  2.719   2.722   2.725   2.727   2.728   2.732   2.734   2.738
  2.744   2.745   2.750   2.752   2.763   2.767   2.774   2.778
  2.783   2.784   2.789   2.789   2.796   2.799   2.799   2.801
  2.803   2.805   2.807   2.808   2.810   2.815   2.818   2.818
  2.834   2.837   2.842   2.843   2.845   2.850   2.865   2.867
  2.878   2.888   2.891   2.897   2.899   2.900   2.903   2.905
  2.929   2.930   2.934   2.937   2.938   2.948   2.951   2.952
  2.953   2.957   2.962   2.976   2.980   2.992   3.002   3.004
  3.017   3.034   3.044   3.051   3.056   3.061   3.064   3.070
  3.079   3.084   3.111   3.139   3.143   3.229   3.250   3.252
  3.253   3.281   3.344   3.352   3.399   3.436   3.443   3.447
  3.457   3.466   3.474   3.487   3.490   3.492   3.560   3.573
  3.630   3.630   3.664   3.677   9.579   9.719  13.137  13.171
 13.236  13.238  13.429  13.435  13.436  13.491  13.507  13.521
 13.523  13.540  13.681  13.683  13.699  13.703  13.714  13.721
 13.726  13.772  13.774  13.786  13.789  13.801  13.851  13.856
 13.882  13.890  13.897  13.897  13.906  13.918  13.937  13.938
 13.940  13.994  14.000  14.003  14.005  14.007  14.029  14.040
 14.117  14.136  14.139  14.157  14.158  14.188  14.189  14.192
 14.214  14.237  14.243  14.245  14.245  14.256  14.274  14.275
 14.303  14.307  14.329  14.330  14.331  14.339  14.509  14.513
 14.566  14.568  14.578  14.578  14.582  14.582  14.602  14.604
 14.616  14.616  19.581  19.595
 --------------------------------------------------------------
 
          Ground-State Mulliken Net Atomic Charges

     Atom                 Charge (a.u.)
  ----------------------------------------
      1 N                    -0.720327
      2 C                     0.319498
      3 C                     0.310754
      4 C                    -0.263205
      5 H                     0.228377
      6 C                    -0.279657
      7 H                     0.205809
      8 C                    -0.263469
      9 H                     0.229850
     10 C                    -0.279860
     11 H                     0.207664
     12 C                     0.109837
     13 C                    -0.405957
     14 H                     0.197169
     15 C                     0.122202
     16 C                     0.133555
     17 C                    -0.408689
     18 H                     0.196840
     19 C                     0.123702
     20 C                     0.290414
     21 C                    -0.353689
     22 H                     0.230125
     23 C                     0.053722
     24 C                    -0.328051
     25 H                     0.236316
     26 C                     0.047585
     27 C                    -0.209588
     28 C                    -0.708670
     29 H                     0.225774
     30 H                     0.228809
     31 H                     0.227884
     32 C                    -0.759435
     33 H                     0.240346
     34 H                     0.245658
     35 H                     0.246565
     36 C                    -0.708701
     37 H                     0.225513
     38 H                     0.228557
     39 H                     0.229076
     40 C                    -0.763590
     41 H                     0.243056
     42 H                     0.247767
     43 H                     0.248467
     44 B                     0.706567
     45 C                    -0.154692
     46 C                    -0.394958
     47 H                     0.230096
     48 C                     0.111381
     49 C                     0.084827
     50 C                    -0.382630
     51 H                     0.231834
     52 C                    -0.153587
     53 C                     0.196210
     54 C                    -0.384854
     55 H                     0.219473
     56 C                    -0.060342
     57 C                     0.251500
     58 C                     0.195174
     59 C                    -0.374672
     60 H                     0.221090
     61 C                    -0.202954
     62 H                     0.228211
     63 C                    -0.336010
     64 H                     0.222404
     65 C                    -0.330967
     66 H                     0.222073
     67 C                    -0.206488
     68 H                     0.229367
     69 C                    -0.154450
     70 C                    -0.390169
     71 H                     0.232412
     72 C                     0.109760
     73 C                     0.085897
     74 C                    -0.381470
     75 H                     0.232483
     76 C                    -0.153242
     77 C                     0.196733
     78 C                    -0.383990
     79 H                     0.221466
     80 C                    -0.061048
     81 C                     0.250376
     82 C                     0.195909
     83 C                    -0.376733
     84 H                     0.220890
     85 C                    -0.203408
     86 H                     0.228372
     87 C                    -0.334968
     88 H                     0.222160
     89 C                    -0.331103
     90 H                     0.221937
     91 C                    -0.206141
     92 H                     0.229234
     93 B                     0.703875
     94 C                    -0.218403
     95 C                     0.050081
     96 C                    -0.357829
     97 H                     0.240086
     98 C                     0.329380
     99 C                    -0.357860
    100 H                     0.234549
    101 C                     0.059081
    102 N                    -0.740956
    103 C                     0.324165
    104 C                     0.321237
    105 C                    -0.263994
    106 H                     0.232920
    107 C                    -0.278693
    108 H                     0.207817
    109 C                    -0.265548
    110 H                     0.230948
    111 C                    -0.279075
    112 H                     0.207491
    113 C                     0.113708
    114 C                    -0.403140
    115 H                     0.196694
    116 C                     0.121381
    117 C                     0.113111
    118 C                    -0.404007
    119 H                     0.196625
    120 C                     0.121578
    121 C                    -0.708358
    122 H                     0.225524
    123 H                     0.228100
    124 H                     0.229476
    125 C                    -0.708125
    126 H                     0.225288
    127 H                     0.226845
    128 H                     0.230525
    129 C                    -0.764208
    130 H                     0.242597
    131 H                     0.247949
    132 H                     0.249325
    133 C                    -0.759000
    134 H                     0.240212
    135 H                     0.246659
    136 H                     0.245001
  ----------------------------------------
  Sum of atomic charges =    -0.000000

 -----------------------------------------------------------------
                    Cartesian Multipole Moments
 -----------------------------------------------------------------
    Charge (ESU x 10^10)
                -0.0000
    Dipole Moment (Debye)
         X      -0.7153      Y      -0.5480      Z       0.0330
       Tot       0.9017
    Quadrupole Moments (Debye-Ang)
        XX    -429.3313     XY     -21.5687     YY    -445.9144
        XZ     -25.9198     YZ      18.5049     ZZ    -432.9503
    Octopole Moments (Debye-Ang^2)
       XXX    6466.5444    XXY    -149.9619    XYY    2186.5661
       YYY   -1129.9652    XXZ    2263.5986    XYZ     -39.7479
       YYZ    2136.6280    XZZ    2297.2896    YZZ    -678.8121
       ZZZ    6273.8497
    Hexadecapole Moments (Debye-Ang^3)
      XXXX -122597.6030   XXXY   13263.8276   XXYY  -22452.6907
      XYYY   17080.9183   YYYY  -18057.7195   XXXZ  -48001.0402
      XXYZ    2715.3517   XYYZ  -15705.3409   YYYZ    7952.7311
      XXZZ  -41793.3368   XYZZ    6314.3283   YYZZ  -24075.2244
      XZZZ  -47901.1690   YZZZ   12269.1076   ZZZZ -124959.9811
 -----------------------------------------------------------------
Archival summary:
1\1\ctcp043\OPT\ProcedureUnspecified\BasisUnspecified\276256\mewes1\WedDec1912:19:262018WedDec1912:19:262018\0\\#,OPT,ProcedureUnspecified,BasisUnspecified,\\0,1\N\C,1,1.3818\C,1,1.38264,2,108.404\C,3,1.3887,1,129.99,2,177.008,0\H,4,1.08189,3,121.58,1,1.46448,0\C,4,1.38213,3,117.706,1,-177.879,0\H,6,1.0838,4,118.604,3,179.875,0\C,2,1.3911,1,129.855,3,179.585,0\H,8,1.08191,2,121.688,1,0.0672193,0\C,8,1.38145,2,117.848,1,179.95,0\H,10,1.084,8,118.6,2,-179.742,0\C,2,1.40205,1,109.284,3,0.295848,0\C,12,1.3928,2,119.974,1,-179.795,0\H,13,1.08424,12,120.036,2,179.658,0\C,13,1.38372,12,120.089,2,-0.151082,0\C,6,1.40349,4,122.576,3,0.241316,0\C,16,1.38367,6,118.754,4,0.316702,0\H,17,1.0843,16,120.028,6,179.04,0\C,17,1.39079,16,119.991,6,-0.328844,0\C,1,1.40825,2,125.008,3,172.99,0\C,20,1.38649,1,120.686,2,126.553,0\H,21,1.08379,20,119.53,1,-0.359466,0\C,20,1.38737,1,119.511,2,-52.7276,0\H,23,1.08358,20,119.286,1,-2.14428,0\C,23,1.38721,20,120.626,1,177.799,0\C,21,1.39039,20,120.249,1,-179.071,0\C,26,1.39894,21,120.136,20,1.1131,0\C,16,1.50204,6,120.153,4,-179.512,0\H,28,1.08965,16,111.423,6,-171.889,0\H,28,1.09111,16,111.675,6,-51.7268,0\H,28,1.09174,16,111.551,6,68.191,0\C,26,1.50211,21,120.207,20,179.602,0\H,32,1.08935,26,111.938,21,2.66942,0\H,32,1.09201,26,111.295,21,123.074,0\H,32,1.09235,26,111.272,21,-117.639,0\C,15,1.50238,13,121.243,12,179.363,0\H,36,1.08953,15,111.451,13,2.76908,0\H,36,1.09134,15,111.632,13,122.881,0\H,36,1.09155,15,111.571,13,-117.239,0\C,25,1.50284,23,119.817,20,-178.476,0\H,40,1.08954,25,111.705,23,-1.37776,0\H,40,1.09178,25,111.615,23,-121.711,0\H,40,1.0924,25,111.312,23,118.667,0\B,27,1.57371,26,121.662,21,177.057,0\C,44,1.55069,27,119.453,26,-89.8842,0\C,45,1.39456,44,119.663,27,2.69464,0\H,46,1.08474,45,119.851,44,2.7784,0\C,46,1.38063,45,119.886,44,-175.538,0\C,48,1.41212,46,120.632,45,-0.290477,0\C,49,1.38497,48,119.795,46,-0.549424,0\H,50,1.08432,49,120.244,48,179.28,0\C,50,1.3996,49,120.104,48,0.8234,0\C,48,1.45998,46,130.636,45,175.933,0\C,53,1.37071,48,135.033,46,1.36014,0\H,54,1.08313,53,121.975,48,2.06934,0\C,53,1.40541,48,106.012,46,-176.341,0\C,56,1.39071,53,123.81,48,177.531,0\C,56,1.40845,53,111.452,48,-0.318886,0\C,58,1.3698,56,118.111,53,178.136,0\H,59,1.08277,58,121.932,56,-179.175,0\C,54,1.41421,53,118.493,48,-177.491,0\H,61,1.08225,54,118.601,53,179.98,0\C,61,1.3751,54,122.261,53,0.418678,0\H,63,1.08315,61,119.787,54,179.406,0\C,57,1.4146,56,115.949,53,-178.15,0\H,65,1.08311,57,120.094,56,179.885,0\C,65,1.37502,57,119.984,56,0.37561,0\H,67,1.08199,65,118.932,57,179.561,0\C,44,1.55132,27,120.757,26,94.292,0\C,69,1.39371,44,119.512,27,-2.31041,0\H,70,1.08491,69,119.822,44,-2.10633,0\C,70,1.38077,69,119.886,44,176.228,0\C,72,1.41193,70,120.824,69,0.733816,0\C,73,1.386,72,119.615,70,-0.114595,0\H,74,1.08485,73,120.469,72,-179.089,0\C,74,1.39968,73,120.077,72,-0.610161,0\C,72,1.45825,70,130.377,69,-176.176,0\C,77,1.37019,72,134.816,70,-0.670486,0\H,78,1.08322,77,121.959,72,-1.86574,0\C,77,1.40516,72,106.049,70,177.071,0\C,80,1.38994,77,123.718,72,-177.827,0\C,80,1.40879,77,111.399,72,0.251411,0\C,82,1.36936,80,118.053,77,-178.55,0\H,83,1.08269,82,121.929,80,179.533,0\C,78,1.4138,77,118.398,72,177.647,0\H,85,1.08222,78,118.631,77,-179.916,0\C,85,1.3753,78,122.224,77,-0.328535,0\H,87,1.08307,85,119.744,78,-179.514,0\C,81,1.41461,80,115.835,77,178.452,0\H,89,1.08302,81,120.107,80,-179.93,0\C,89,1.37519,81,119.991,80,-0.309048,0\H,91,1.08195,89,118.902,81,-179.728,0\B,76,1.55572,74,120.599,73,-175.675,0\C,93,1.57094,76,120.841,74,1.37166,0\C,94,1.39814,93,121.246,76,-95.6643,0\C,95,1.39148,94,119.893,93,-176.844,0\H,96,1.0836,95,120.299,94,-179.54,0\C,96,1.38559,95,120.348,94,0.962992,0\C,98,1.38863,96,119.848,95,-1.50649,0\H,99,1.08396,98,119.523,96,179.291,0\C,99,1.3873,98,120.532,96,0.668881,0\N,98,1.41513,96,120.553,95,175.512,0\C,102,1.38276,98,124.748,96,129.581,0\C,102,1.38469,98,123.06,96,-76.7675,0\C,104,1.3887,102,128.856,98,17.4379,0\H,105,1.08217,104,121.395,102,2.84682,0\C,105,1.38071,104,117.633,102,-176.131,0\H,107,1.08396,105,118.805,104,179.587,0\C,103,1.38878,102,128.811,98,-19.6491,0\H,109,1.08227,103,121.413,102,-1.59453,0\C,109,1.38067,103,117.593,102,177.481,0\H,111,1.08389,109,118.821,103,-179.314,0\C,104,1.40111,102,109.54,98,-158.844,0\C,113,1.39187,104,119.506,102,176.877,0\H,114,1.08385,113,120.041,104,-178.924,0\C,114,1.38457,113,120.063,104,-0.351334,0\C,103,1.40141,102,109.615,98,158.57,0\C,117,1.39191,103,119.5,102,-178.079,0\H,118,1.08383,117,120.072,103,179.107,0\C,118,1.38447,117,120.012,103,0.377588,0\C,120,1.50185,118,121.242,117,178.504,0\H,121,1.08943,120,111.564,118,0.675792,0\H,121,1.09136,120,111.635,118,120.919,0\H,121,1.09158,120,111.434,118,-119.316,0\C,116,1.50199,114,121.296,113,-178.531,0\H,125,1.0894,116,111.551,114,-2.53054,0\H,125,1.09124,116,111.669,114,-122.774,0\H,125,1.09162,116,111.378,114,117.442,0\C,95,1.50284,94,119.614,93,2.76623,0\H,129,1.08932,95,111.919,94,177.642,0\H,129,1.09213,95,111.391,94,57.2031,0\H,129,1.09247,95,111.224,94,-62.0546,0\C,101,1.50368,99,120.107,98,179.048,0\H,133,1.08937,101,111.729,99,-0.167257,0\H,133,1.09198,101,111.524,99,120.245,0\H,133,1.09245,101,111.404,99,-120.266,0\\\@

 Total job time:  90165.13s(wall), 336184.78s(cpu) 
 Wed Dec 19 12:19:27 2018

        *************************************************************
        *                                                           *
        *  Thank you very much for using Q-Chem.  Have a nice day.  *
        *                                                           *
        *************************************************************


0 sent ACK to 0 
now end server 0 ... 
