mFile = /cm/shared/apps/q-chem/intel/QCHEM_5.0.1_Trunk/bin/mpi/machines
Process 0 of 1 is on ctcp034 - thread support 0
initial socket setup ...start
initial socket setup ...done 
now start server 0 ... 
ctcp034.cm.cluster 10.141.0
Q-Chem Developer Version! Running on 10.141.0.*
                  Welcome to Q-Chem
     A Quantum Leap Into The Future Of Chemistry


 Q-Chem 5.0, Q-Chem, Inc., Pleasanton, CA (2017)

 Yihan Shao,  Zhengting Gan,  E. Epifanovsky,  A. T. B. Gilbert,  M. Wormit,  
 J. Kussmann,  A. W. Lange,  A. Behn,  Jia Deng,  Xintian Feng,  D. Ghosh,  
 M. Goldey,  P. R. Horn,  L. D. Jacobson,  I. Kaliman,  T. Kus,  A. Landau,  
 Jie Liu,  E. I. Proynov,  R. M. Richard,  R. P. Steele,  E. J. Sundstrom,  
 H. L. Woodcock III,  P. M. Zimmerman,  D. Zuev,  B. Albrecht,  E. Alguire,  
 S. A. Baeppler,  Z. Benda,  Y. A. Bernard,  E. J. Berquist,  K. B. Bravaya,  
 D. Casanova,  Chun-Min Chang,  Yunqing Chen,  A. Chien,  K. D. Closser,  
 M. P. Coons,  S. Dasgupta,  M. Diedenhofen,  Hainam Do,  R. G. Edgar,  
 Po-Tung Fang,  S. Fatehi,  Qingguo Feng,  Qinghui Ge,  A. Ghysels,  
 J. Gomes,  J. Gonthier,  A. Gunina,  M. W. D. Hanson-Heine,  
 P. H. P. Harbach,  A. W. Hauser,  J. E. Herr,  E. G. Hohenstein,  
 Z. C. Holden,  Kerwin Hui,  T.-C. Jagau,  Hyunjun Ji,  B. Kaduk,  
 K. Khistyaev,  Jaehoon Kim,  P. Klunzinger,  K. Koh,  D. Kosenkov,  
 T. Kowalczyk,  C. M. Krauter,  A. Kunitsa,  Ka Un Lao,  A. Laurent,  
 K. V. Lawler,  Joonho Lee,  D. Lefrancois,  S. Lehtola,  D. S. Levine,  
 Yi-Pei Li,  You-Sheng Lin,  Fenglai Liu,  E. Livshits,  A. Luenser,  
 P. Manohar,  E. Mansoor,  S. F. Manzer,  Shan-Ping Mao,  Yuezhi Mao,  
 N. Mardirossian,  A. V. Marenich,  L. A. Martinez-Martinez,  S. A. Maurer,  
 N. J. Mayhall,  S. C. McKenzie,  J.-M. Mewes,  A. F. Morrison,  K. Nanda,  
 T. S. Nguyen-Beck,  R. Olivares-Amaya,  J. A. Parkhill,  T. M. Perrine,  
 F. Plasser,  S. Prager,  A. Prociuk,  D. R. Rehn,  F. Rob,  M. Schneider,  
 N. Sergueev,  S. M. Sharada,  S. Sharma,  D. W. Small,  T. Stauch,  
 T. Stein,  Yu-Chuan Su,  A. J. W. Thom,  T. Tsuchimochi,  L. Vogt,  
 O. Vydrov,  M. A. Watson,  J. Wenzel,  M. de Wergifosse,  T. A. Wesolowski,  
 A. White,  J. Witte,  A. Yamada,  Jun Yang,  K. Yao,  S. Yeganeh,  
 S. R. Yost,  Zhi-Qiang You,  A. Zech,  Igor Ying Zhang,  Xing Zhang,  
 Yan Zhao,  Ying Zhu,  B. R. Brooks,  G. K. L. Chan,  C. J. Cramer,  
 M. S. Gordon,  W. J. Hehre,  A. Klamt,  M. W. Schmidt,  C. D. Sherrill,  
 D. G. Truhlar,  A. Aspuru-Guzik,  R. Baer,  A. T. Bell,  N. A. Besley,  
 Jeng-Da Chai,  A. Dreuw,  B. D. Dunietz,  T. R. Furlani,  Chao-Ping Hsu,  
 Yousung Jung,  Jing Kong,  D. S. Lambrecht,  WanZhen Liang,  C. Ochsenfeld,  
 V. A. Rassolov,  L. V. Slipchenko,  J. E. Subotnik,  T. Van Voorhis,  
 J. M. Herbert,  A. I. Krylov,  P. M. W. Gill,  M. Head-Gordon

 Contributors to earlier versions of Q-Chem not listed above: 
 R. D. Adamson,  B. Austin,  J. Baker,  G. J. O. Beran,  K. Brandhorst,  
 S. T. Brown,  E. F. C. Byrd,  A. K. Chakraborty,  C.-L. Cheng,  
 Siu Hung Chien,  D. M. Chipman,  D. L. Crittenden,  H. Dachsel,  
 R. A. DiStasio Jr.,  R. J. Doerksen,  A. D. Dutoi,  L. Fusti-Molnar,  
 W. A. Goddard III,  A. Golubeva-Zadorozhnaya,  S. R. Gwaltney,  G. Hawkins,  
 A. Heyden,  S. Hirata,  G. Kedziora,  F. J. Keil,  C. Kelley,  Jihan Kim,  
 R. A. King,  R. Z. Khaliullin,  P. P. Korambath,  W. Kurlancheek,  
 A. M. Lee,  M. S. Lee,  S. V. Levchenko,  Ching Yeh Lin,  D. Liotard,  
 R. C. Lochan,  I. Lotan,  P. E. Maslen,  N. Nair,  D. P. O'Neill,  
 D. Neuhauser,  E. Neuscamman,  C. M. Oana,  R. Olson,  B. Peters,  
 R. Peverati,  P. A. Pieniazek,  Y. M. Rhee,  J. Ritchie,  M. A. Rohrdanz,  
 E. Rosta,  N. J. Russ,  H. F. Schaefer III,  N. E. Schultz,  N. Shenvi,  
 A. C. Simmonett,  A. Sodt,  D. Stuck,  K. S. Thanthiriwatte,  V. Vanovschi,  
 Tao Wang,  A. Warshel,  C. F. Williams,  Q. Wu,  X. Xu,  W. Zhang

 Please cite Q-Chem as follows:
 Y. Shao et al., Mol. Phys. 113, 184-215 (2015)
 DOI: 10.1080/00268976.2014.952696

 Q-Chem 5.0.1 for Intel X86 EM64T Linux

 Parts of Q-Chem use Armadillo 5.200.1 (Boston Tea Smuggler).
 http://arma.sourceforge.net/

 Q-Chem begins on Wed Oct 24 12:38:14 2018  

Host: ctcp034
0

     Scratch files written to /scratch/mewes/138276/qchem23099//
 Parallel job on  1  processors
The previous job contains 0 fragments, simply inherited here
Symmetry turned off for PCM/SM12/SMD calculation

Checking the input file for inconsistencies... 	...done.

--------------------------------------------------------------
User input:
--------------------------------------------------------------
$rem
threads 4
jobtype	opt
method PBEh-3c
basis def2-mSVP
mem_static	1024
mem_total	4000
sym_ignore	true
scf_convergence	9
solvent_method	pcm
$end

$molecule
read gsopt.mol
$end

$solvent
dielectric	4.33 
$end

$pcm
theory iefpcm
$end
--------------------------------------------------------------
 Adding empirical dispersion correction 
 ----------------------------------------------------------------
 Doing -D3(BJ) with
 s6 =   1.00000
 s8 =   0.00000
 a1 =   0.48600
 a2 =   4.50000
 -D3 energy including 3body term =     -0.1321385280 hartrees
 ----------------------------------------------------------------
 Adding gCP correction 
 ----------------------------------------------------------------
 gCP energy =      0.1765845379 hartrees
 ----------------------------------------------------------------
             Standard Nuclear Orientation (Angstroms)
    I     Atom           X                Y                Z
 ----------------------------------------------------------------
    1      S       0.0000000000     0.0000000000     0.0000000000
    2      C       0.0000000000     0.0000000000     1.7564610000
    3      C       1.2035822048     0.0000000000     2.4437623199
    4      H       2.1260978772     0.1122082158     1.8886905888
    5      C       1.2303078844    -0.1661018897     3.8196144596
    6      H       2.1739462407    -0.1830443328     4.3474843641
    7      C       0.0341426938    -0.3106638820     4.5000448694
    8      H       0.0290208584    -0.4389000566     5.5752637023
    9      C      -1.1751569281    -0.2708919414     3.8233649158
   10      H      -2.0895239084    -0.3718397405     4.3898288638
   11      C      -1.2146807071    -0.1112261730     2.4368614877
   12      N      -2.4264792709    -0.0700562516     1.7285021453
   13      C      -2.5700968182     0.7189356993     0.5786226049
   14      C      -3.7816445260     1.3196157765     0.2425681474
   15      H      -4.6546099090     1.1672648000     0.8612743638
   16      C      -3.8890183582     2.1047755663    -0.8948536686
   17      H      -4.8451209088     2.5501994358    -1.1358901862
   18      C      -2.7897923231     2.3318020382    -1.7041811430
   19      H      -2.8691095160     2.9573488980    -2.5824674642
   20      C      -1.5802012290     1.7376889889    -1.3790962035
   21      H      -0.7077371589     1.8936336640    -2.0005520397
   22      C      -1.4770486085     0.9161336488    -0.2686922151
   23      C      -3.5917284605    -0.4430171693     2.4534119163
   24      C      -4.0348736687    -1.7505762146     2.3838083194
   25      H      -3.5304061748    -2.4432195117     1.7206345822
   26      C      -4.2219488101     0.4586606266     3.3001024273
   27      H      -3.8610022728     1.4797378471     3.3564072197
   28      C      -5.2639517919     0.0462345837     4.1181450126
   29      C      -5.0740209979    -2.1870467379     3.2004436402
   30      C      -5.6789659331    -1.2929197131     4.0897776621
   31      C      -5.8953693013     1.0132974324     5.0823575816
   32      H      -5.4323670936     1.9975461188     5.0246752059
   33      H      -6.9622683205     1.1384042814     4.8895289510
   34      H      -5.7986692672     0.6681183960     6.1148900529
   35      C      -5.5296554256    -3.6213166615     3.1319249430
   36      H      -4.7168239738    -4.2462743359     2.7547907600
   37      H      -5.7466551449    -3.9932188569     4.1382542568
   38      C      -6.7611258574    -3.8068918502     2.2483779017
   39      H      -7.6176260788    -3.2575946817     2.6389139510
   40      H      -6.5728304293    -3.4535494598     1.2343578978
   41      H      -7.0436834311    -4.8584373680     2.1903814039
   42      B      -6.6681021896    -1.7916370817     5.2051585174
   43      C      -8.2090146706    -1.6320910161     5.1018653088
   44      C      -8.7959696618    -1.0540576202     3.9713181145
   45      H      -8.1652693429    -0.7284426832     3.1510182065
   46      C     -10.1704531200    -0.8965805300     3.9040227087
   47      C     -10.9764119957    -1.3235437641     4.9817143277
   48      C     -10.4091367072    -1.9034178373     6.0995361621
   49      H     -11.0348294079    -2.2311773962     6.9226441270
   50      C      -9.0260401296    -2.0630424890     6.1752035517
   51      C     -12.3700179394    -1.0330022318     4.6657411047
   52      C     -13.5646110709    -1.2041698356     5.3140103337
   53      H     -13.6246297321    -1.6512865018     6.2990421490
   54      C     -12.3640125582    -0.4386064548     3.3917206761
   55      C     -13.5082946826    -0.0070238940     2.7326022041
   56      C     -11.0557731922    -0.3307095513     2.8818081995
   57      C     -10.8874088714     0.2361919170     1.6469132032
   58      H      -9.9084882482     0.3499806232     1.1985523127
   59      C     -14.7463360194    -0.7751888010     4.6668158853
   60      H     -15.6923458534    -0.9072904586     5.1754499573
   61      C     -14.7327568670    -0.1963059310     3.4190776182
   62      H     -15.6634774674     0.1174182674     2.9628246071
   63      C     -13.3050679523     0.5725168498     1.4577241861
   64      H     -14.1504048056     0.9309170415     0.8835207215
   65      C     -12.0331920537     0.6832873841     0.9460221117
   66      H     -11.8979458203     1.1299666762    -0.0299993761
   67      B      -8.3954000294    -2.7071987277     7.4419660882
   68      C      -6.8567745897    -2.8402682874     7.5529393645
   69      C      -6.2833180034    -3.3749418502     8.7084898171
   70      H      -6.9200994730    -3.7095423728     9.5208444654
   71      C      -4.9090595153    -3.4693040931     8.8152725034
   72      C      -4.0813539940    -3.0390373894     7.7552565038
   73      C      -4.6419787985    -2.5122982279     6.6069638521
   74      H      -4.0028049664    -2.1790149040     5.7982462907
   75      C      -6.0310413212    -2.4051793946     6.4895569560
   76      C      -4.0555552695    -3.9567966959     9.8982216895
   77      C      -4.2681385667    -4.4784175627    11.1477273410
   78      H      -5.2640125280    -4.6183756026    11.5502053377
   79      C      -2.7318622483    -3.8039624932     9.4468219897
   80      C      -1.6101430255    -4.1527082117    10.1909744176
   81      C      -2.6886193453    -3.2566714761     8.1515244362
   82      C      -1.4647127634    -3.0559702164     7.5695623213
   83      H      -1.3639247906    -2.6490807469     6.5707627161
   84      C      -3.1457617280    -4.8406115593    11.9290243707
   85      H      -3.3135993448    -5.2511776182    12.9162362962
   86      C      -1.8554562351    -4.6886235769    11.4785522303
   87      H      -1.0266840983    -4.9801202003    12.1121425639
   88      C      -0.3586695487    -3.9308452284     9.5690768988
   89      H       0.5572068358    -4.1800548468    10.0908555314
   90      C      -0.3035254804    -3.4020107959     8.3008141823
   91      H       0.6625529212    -3.2445524281     7.8397289618
   92      C      -9.3311716030    -3.2370965854     8.5902083561
   93      C      -9.7703615331    -2.3941562629     9.6130001301
   94      C     -10.6536445184    -2.8759058492    10.5760640991
   95      H     -11.0148120963    -2.2268438860    11.3661685058
   96      C     -11.0966952719    -4.1821225692    10.5331960350
   97      C     -10.6424823864    -5.0326121438     9.5326758712
   98      H     -10.9901914204    -6.0598725697     9.5104202473
   99      C      -9.7663569824    -4.5719665966     8.5617283041
  100      N     -12.0238542627    -4.6283526907    11.5176446674
  101      C     -11.5264516523    -5.3453304316    12.6159539168
  102      C     -10.2316991840    -5.8614159031    12.6372159100
  103      H      -9.5699237147    -5.7026984981    11.7983009496
  104      C      -9.7662938606    -6.5673956752    13.7364929170
  105      H      -8.7521179607    -6.9443517807    13.7268673999
  106      C     -10.5857995906    -6.8036906126    14.8257564890
  107      H     -10.2285370927    -7.3663427721    15.6773388690
  108      C     -11.8768230779    -6.3000745005    14.8146448954
  109      H     -12.5363406941    -6.4644332793    15.6574448719
  110      C     -12.3321848254    -5.5546069778    13.7394038012
  111      C     -13.3810871314    -4.6894621752    11.1654690035
  112      C     -13.8087482669    -4.6074819193     9.8415243371
  113      H     -13.0898948866    -4.4748556108     9.0462958021
  114      C     -15.1569846507    -4.6834369646     9.5255897395
  115      H     -15.4572541435    -4.6091939637     8.4887643304
  116      C     -16.1073916451    -4.8704864744    10.5135347833
  117      H     -17.1574295338    -4.9455596626    10.2664466822
  118      C     -15.6945559115    -4.9563175929    11.8334844673
  119      H     -16.4181209032    -5.0979290605    12.6263890337
  120      C     -14.3536695354    -4.8382059584    12.1600154337
  121      C      -9.2941844726    -5.4968952079     7.4756406788
  122      H      -9.7400654005    -6.4862875235     7.5701085481
  123      H      -8.2095888193    -5.6206988417     7.5006433713
  124      H      -9.5507249541    -5.1149877788     6.4849686134
  125      C      -9.2866279639    -0.9716899473     9.7271034764
  126      H     -10.1336412534    -0.3145962488     9.9418867657
  127      H      -8.8793548009    -0.6252448495     8.7731288897
  128      C      -8.2311319964    -0.8087394430    10.8181421496
  129      H      -7.3495305240    -1.4139381784    10.6066810495
  130      H      -7.9099059754     0.2297961275    10.8999956579
  131      H      -8.6185889931    -1.1154509264    11.7903170691
  132      S     -13.8860196754    -4.7424002892    13.8520802475
 ----------------------------------------------------------------
 Nuclear Repulsion Energy = 12496.7290236005 hartrees
 There are      276 alpha and      276 beta electrons
 Requested basis set is def2-mSVP
 There are 666 shells and 1310 basis functions

 Total QAlloc Memory Limit   4000 MB
 Mega-Array Size      1001 MB
 MEM_STATIC part      1024 MB
 Discretize the solute cavity surface with Lebedev spheres
	Using 302 Lebedev grid points for each H atom
	Using 302 Lebedev grid points for other atoms
	Atomic van der Waals radii will be scaled by 1.20
 Remove points where switching function is < 1.0e-08
 Keep 13744 surface tesserae and discard 26120 interior tesserae
 Molecular Surface Area = 1055.154 Angst**2
 A cutoff of  1.0D-12 yielded  65062 shell pairs
 There are    259338 function pairs (    285589 Cartesian)
 
 -------------------------------------------------------
 OpenMP Integral Computing Module                       
 Release: version 1.0, May 2013, Q-Chem Inc. Pittsburgh 
 -------------------------------------------------------
 Integral Job Info:
 Integral job number is                      11
 Integral operator is                         1
 short-range coefficients                     0
 long-range coefficients              100000000
 Omega coefficients                           0
 if combine SR and LR in K                    0
 Integral screening is                        0
 Integral computing path is                   2
 max size of driver memory is            800000
 size of driver memory is                593474
 size of scratch memory is              7590872
 max col of scratch BK array               1296
 max len of scratch array in speh3          155
 max len of scratch index in speh4           18
 max int batch size is                      520
 min int batch size is                       52
 fixed nKL is                                52
 max L of basis functions is                  2
 order of int derivative is                   0
 number of shells is                        666
 number of basis is                        1390
 number of cartesian basis is              1390
 number of contracted shell pairs         65062
 number of primitive shell pairs         135411
 maxK2 (contraction) of shell pair           25
 max number of K2 of shell pair               1
 max number of CS2 of shell pair          15417
 max number of PS2 of shell pair          23585
 mem total for path MDJ                  683688
 -------------------------------------------------------
 Smallest overlap matrix eigenvalue = 1.93E-04

 Scale SEOQF with 1.000000e-03/1.000000e-02/1.000000e-02

 Standard Electronic Orientation quadrupole field applied
 Nucleus-field energy     =    -0.0000003118 hartrees
 Guess from superposition of atomic densities
 Warning:  Energy on first SCF cycle will be non-variational
 A restricted hybrid HF-DFT SCF calculation will be
 performed using Pulay DIIS extrapolation
 Polarizable Continuum solvation model will be applied
 Exchange:     0.4200 Hartree-Fock + 0.5800 PBEh-3c
 Correlation:  1.0000 PBEh-3c
 Using SG-1 standard quadrature grid
 Dispersion:   Grimme D3
 SCF converges when DIIS error is below 1.0E-09
 using 4 threads for integral computing
 -------------------------------------------------------
 OpenMP Integral computing Module                
 Release: version 1.0, May 2013, Q-Chem Inc. Pittsburgh 
 -------------------------------------------------------
 ---------------------------------------
  Cycle       Energy         DIIS Error
 ---------------------------------------
    1   -3827.1953219005      2.33E-02
 Using non-symmetric K matrix
