mFile = /cm/shared/apps/q-chem/intel/QCHEM_5.0.1_Trunk/bin/mpi/machines
Process 0 of 1 is on ctcp041 - thread support 0
initial socket setup ...start
initial socket setup ...done 
now start server 0 ... 
ctcp041.cm.cluster 10.141.0
Q-Chem Developer Version! Running on 10.141.0.*
                  Welcome to Q-Chem
     A Quantum Leap Into The Future Of Chemistry


 Q-Chem 5.0, Q-Chem, Inc., Pleasanton, CA (2017)

 Yihan Shao,  Zhengting Gan,  E. Epifanovsky,  A. T. B. Gilbert,  M. Wormit,  
 J. Kussmann,  A. W. Lange,  A. Behn,  Jia Deng,  Xintian Feng,  D. Ghosh,  
 M. Goldey,  P. R. Horn,  L. D. Jacobson,  I. Kaliman,  T. Kus,  A. Landau,  
 Jie Liu,  E. I. Proynov,  R. M. Richard,  R. P. Steele,  E. J. Sundstrom,  
 H. L. Woodcock III,  P. M. Zimmerman,  D. Zuev,  B. Albrecht,  E. Alguire,  
 S. A. Baeppler,  Z. Benda,  Y. A. Bernard,  E. J. Berquist,  K. B. Bravaya,  
 D. Casanova,  Chun-Min Chang,  Yunqing Chen,  A. Chien,  K. D. Closser,  
 M. P. Coons,  S. Dasgupta,  M. Diedenhofen,  Hainam Do,  R. G. Edgar,  
 Po-Tung Fang,  S. Fatehi,  Qingguo Feng,  Qinghui Ge,  A. Ghysels,  
 J. Gomes,  J. Gonthier,  A. Gunina,  M. W. D. Hanson-Heine,  
 P. H. P. Harbach,  A. W. Hauser,  J. E. Herr,  E. G. Hohenstein,  
 Z. C. Holden,  Kerwin Hui,  T.-C. Jagau,  Hyunjun Ji,  B. Kaduk,  
 K. Khistyaev,  Jaehoon Kim,  P. Klunzinger,  K. Koh,  D. Kosenkov,  
 T. Kowalczyk,  C. M. Krauter,  A. Kunitsa,  Ka Un Lao,  A. Laurent,  
 K. V. Lawler,  Joonho Lee,  D. Lefrancois,  S. Lehtola,  D. S. Levine,  
 Yi-Pei Li,  You-Sheng Lin,  Fenglai Liu,  E. Livshits,  A. Luenser,  
 P. Manohar,  E. Mansoor,  S. F. Manzer,  Shan-Ping Mao,  Yuezhi Mao,  
 N. Mardirossian,  A. V. Marenich,  L. A. Martinez-Martinez,  S. A. Maurer,  
 N. J. Mayhall,  S. C. McKenzie,  J.-M. Mewes,  A. F. Morrison,  K. Nanda,  
 T. S. Nguyen-Beck,  R. Olivares-Amaya,  J. A. Parkhill,  T. M. Perrine,  
 F. Plasser,  S. Prager,  A. Prociuk,  D. R. Rehn,  F. Rob,  M. Schneider,  
 N. Sergueev,  S. M. Sharada,  S. Sharma,  D. W. Small,  T. Stauch,  
 T. Stein,  Yu-Chuan Su,  A. J. W. Thom,  T. Tsuchimochi,  L. Vogt,  
 O. Vydrov,  M. A. Watson,  J. Wenzel,  M. de Wergifosse,  T. A. Wesolowski,  
 A. White,  J. Witte,  A. Yamada,  Jun Yang,  K. Yao,  S. Yeganeh,  
 S. R. Yost,  Zhi-Qiang You,  A. Zech,  Igor Ying Zhang,  Xing Zhang,  
 Yan Zhao,  Ying Zhu,  B. R. Brooks,  G. K. L. Chan,  C. J. Cramer,  
 M. S. Gordon,  W. J. Hehre,  A. Klamt,  M. W. Schmidt,  C. D. Sherrill,  
 D. G. Truhlar,  A. Aspuru-Guzik,  R. Baer,  A. T. Bell,  N. A. Besley,  
 Jeng-Da Chai,  A. Dreuw,  B. D. Dunietz,  T. R. Furlani,  Chao-Ping Hsu,  
 Yousung Jung,  Jing Kong,  D. S. Lambrecht,  WanZhen Liang,  C. Ochsenfeld,  
 V. A. Rassolov,  L. V. Slipchenko,  J. E. Subotnik,  T. Van Voorhis,  
 J. M. Herbert,  A. I. Krylov,  P. M. W. Gill,  M. Head-Gordon

 Contributors to earlier versions of Q-Chem not listed above: 
 R. D. Adamson,  B. Austin,  J. Baker,  G. J. O. Beran,  K. Brandhorst,  
 S. T. Brown,  E. F. C. Byrd,  A. K. Chakraborty,  C.-L. Cheng,  
 Siu Hung Chien,  D. M. Chipman,  D. L. Crittenden,  H. Dachsel,  
 R. A. DiStasio Jr.,  R. J. Doerksen,  A. D. Dutoi,  L. Fusti-Molnar,  
 W. A. Goddard III,  A. Golubeva-Zadorozhnaya,  S. R. Gwaltney,  G. Hawkins,  
 A. Heyden,  S. Hirata,  G. Kedziora,  F. J. Keil,  C. Kelley,  Jihan Kim,  
 R. A. King,  R. Z. Khaliullin,  P. P. Korambath,  W. Kurlancheek,  
 A. M. Lee,  M. S. Lee,  S. V. Levchenko,  Ching Yeh Lin,  D. Liotard,  
 R. C. Lochan,  I. Lotan,  P. E. Maslen,  N. Nair,  D. P. O'Neill,  
 D. Neuhauser,  E. Neuscamman,  C. M. Oana,  R. Olson,  B. Peters,  
 R. Peverati,  P. A. Pieniazek,  Y. M. Rhee,  J. Ritchie,  M. A. Rohrdanz,  
 E. Rosta,  N. J. Russ,  H. F. Schaefer III,  N. E. Schultz,  N. Shenvi,  
 A. C. Simmonett,  A. Sodt,  D. Stuck,  K. S. Thanthiriwatte,  V. Vanovschi,  
 Tao Wang,  A. Warshel,  C. F. Williams,  Q. Wu,  X. Xu,  W. Zhang

 Please cite Q-Chem as follows:
 Y. Shao et al., Mol. Phys. 113, 184-215 (2015)
 DOI: 10.1080/00268976.2014.952696

 Q-Chem 5.0.1 for Intel X86 EM64T Linux

 Parts of Q-Chem use Armadillo 5.200.1 (Boston Tea Smuggler).
 http://arma.sourceforge.net/

 Q-Chem begins on Wed Oct 24 12:38:13 2018  

Host: 32512

     Scratch files written to /scratch/mewes/138275/qchem21404//
 Parallel job on  1  processors
The previous job contains 0 fragments, simply inherited here
Symmetry turned off for PCM/SM12/SMD calculation

Checking the input file for inconsistencies... 	...done.

--------------------------------------------------------------
User input:
--------------------------------------------------------------
$rem
threads 4
jobtype	opt
method PBEh-3c
basis def2-mSVP
mem_static	1024
mem_total	4000
sym_ignore	true
scf_convergence	9
solvent_method	pcm
$end

$molecule
read gsopt.mol
$end

$solvent
dielectric	8.93 
$end

$pcm
theory iefpcm
$end
--------------------------------------------------------------
 Adding empirical dispersion correction 
 ----------------------------------------------------------------
 Doing -D3(BJ) with
 s6 =   1.00000
 s8 =   0.00000
 a1 =   0.48600
 a2 =   4.50000
 -D3 energy including 3body term =     -0.1321385280 hartrees
 ----------------------------------------------------------------
 Adding gCP correction 
 ----------------------------------------------------------------
 gCP energy =      0.1765845379 hartrees
 ----------------------------------------------------------------
             Standard Nuclear Orientation (Angstroms)
    I     Atom           X                Y                Z
 ----------------------------------------------------------------
    1      S       0.0000000000     0.0000000000     0.0000000000
    2      C       0.0000000000     0.0000000000     1.7564610000
    3      C       1.2035822048     0.0000000000     2.4437623199
    4      H       2.1260978772     0.1122082158     1.8886905888
    5      C       1.2303078844    -0.1661018897     3.8196144596
    6      H       2.1739462407    -0.1830443328     4.3474843641
    7      C       0.0341426938    -0.3106638820     4.5000448694
    8      H       0.0290208584    -0.4389000566     5.5752637023
    9      C      -1.1751569281    -0.2708919414     3.8233649158
   10      H      -2.0895239084    -0.3718397405     4.3898288638
   11      C      -1.2146807071    -0.1112261730     2.4368614877
   12      N      -2.4264792709    -0.0700562516     1.7285021453
   13      C      -2.5700968182     0.7189356993     0.5786226049
   14      C      -3.7816445260     1.3196157765     0.2425681474
   15      H      -4.6546099090     1.1672648000     0.8612743638
   16      C      -3.8890183582     2.1047755663    -0.8948536686
   17      H      -4.8451209088     2.5501994358    -1.1358901862
   18      C      -2.7897923231     2.3318020382    -1.7041811430
   19      H      -2.8691095160     2.9573488980    -2.5824674642
   20      C      -1.5802012290     1.7376889889    -1.3790962035
   21      H      -0.7077371589     1.8936336640    -2.0005520397
   22      C      -1.4770486085     0.9161336488    -0.2686922151
   23      C      -3.5917284605    -0.4430171693     2.4534119163
   24      C      -4.0348736687    -1.7505762146     2.3838083194
   25      H      -3.5304061748    -2.4432195117     1.7206345822
   26      C      -4.2219488101     0.4586606266     3.3001024273
   27      H      -3.8610022728     1.4797378471     3.3564072197
   28      C      -5.2639517919     0.0462345837     4.1181450126
   29      C      -5.0740209979    -2.1870467379     3.2004436402
   30      C      -5.6789659331    -1.2929197131     4.0897776621
   31      C      -5.8953693013     1.0132974324     5.0823575816
   32      H      -5.4323670936     1.9975461188     5.0246752059
   33      H      -6.9622683205     1.1384042814     4.8895289510
   34      H      -5.7986692672     0.6681183960     6.1148900529
   35      C      -5.5296554256    -3.6213166615     3.1319249430
   36      H      -4.7168239738    -4.2462743359     2.7547907600
   37      H      -5.7466551449    -3.9932188569     4.1382542568
   38      C      -6.7611258574    -3.8068918502     2.2483779017
   39      H      -7.6176260788    -3.2575946817     2.6389139510
   40      H      -6.5728304293    -3.4535494598     1.2343578978
   41      H      -7.0436834311    -4.8584373680     2.1903814039
   42      B      -6.6681021896    -1.7916370817     5.2051585174
   43      C      -8.2090146706    -1.6320910161     5.1018653088
   44      C      -8.7959696618    -1.0540576202     3.9713181145
   45      H      -8.1652693429    -0.7284426832     3.1510182065
   46      C     -10.1704531200    -0.8965805300     3.9040227087
   47      C     -10.9764119957    -1.3235437641     4.9817143277
   48      C     -10.4091367072    -1.9034178373     6.0995361621
   49      H     -11.0348294079    -2.2311773962     6.9226441270
   50      C      -9.0260401296    -2.0630424890     6.1752035517
   51      C     -12.3700179394    -1.0330022318     4.6657411047
   52      C     -13.5646110709    -1.2041698356     5.3140103337
   53      H     -13.6246297321    -1.6512865018     6.2990421490
   54      C     -12.3640125582    -0.4386064548     3.3917206761
   55      C     -13.5082946826    -0.0070238940     2.7326022041
   56      C     -11.0557731922    -0.3307095513     2.8818081995
   57      C     -10.8874088714     0.2361919170     1.6469132032
   58      H      -9.9084882482     0.3499806232     1.1985523127
   59      C     -14.7463360194    -0.7751888010     4.6668158853
   60      H     -15.6923458534    -0.9072904586     5.1754499573
   61      C     -14.7327568670    -0.1963059310     3.4190776182
   62      H     -15.6634774674     0.1174182674     2.9628246071
   63      C     -13.3050679523     0.5725168498     1.4577241861
   64      H     -14.1504048056     0.9309170415     0.8835207215
   65      C     -12.0331920537     0.6832873841     0.9460221117
   66      H     -11.8979458203     1.1299666762    -0.0299993761
   67      B      -8.3954000294    -2.7071987277     7.4419660882
   68      C      -6.8567745897    -2.8402682874     7.5529393645
   69      C      -6.2833180034    -3.3749418502     8.7084898171
   70      H      -6.9200994730    -3.7095423728     9.5208444654
   71      C      -4.9090595153    -3.4693040931     8.8152725034
   72      C      -4.0813539940    -3.0390373894     7.7552565038
   73      C      -4.6419787985    -2.5122982279     6.6069638521
   74      H      -4.0028049664    -2.1790149040     5.7982462907
   75      C      -6.0310413212    -2.4051793946     6.4895569560
   76      C      -4.0555552695    -3.9567966959     9.8982216895
   77      C      -4.2681385667    -4.4784175627    11.1477273410
   78      H      -5.2640125280    -4.6183756026    11.5502053377
   79      C      -2.7318622483    -3.8039624932     9.4468219897
   80      C      -1.6101430255    -4.1527082117    10.1909744176
   81      C      -2.6886193453    -3.2566714761     8.1515244362
   82      C      -1.4647127634    -3.0559702164     7.5695623213
   83      H      -1.3639247906    -2.6490807469     6.5707627161
   84      C      -3.1457617280    -4.8406115593    11.9290243707
   85      H      -3.3135993448    -5.2511776182    12.9162362962
   86      C      -1.8554562351    -4.6886235769    11.4785522303
   87      H      -1.0266840983    -4.9801202003    12.1121425639
   88      C      -0.3586695487    -3.9308452284     9.5690768988
   89      H       0.5572068358    -4.1800548468    10.0908555314
   90      C      -0.3035254804    -3.4020107959     8.3008141823
   91      H       0.6625529212    -3.2445524281     7.8397289618
   92      C      -9.3311716030    -3.2370965854     8.5902083561
   93      C      -9.7703615331    -2.3941562629     9.6130001301
   94      C     -10.6536445184    -2.8759058492    10.5760640991
   95      H     -11.0148120963    -2.2268438860    11.3661685058
   96      C     -11.0966952719    -4.1821225692    10.5331960350
   97      C     -10.6424823864    -5.0326121438     9.5326758712
   98      H     -10.9901914204    -6.0598725697     9.5104202473
   99      C      -9.7663569824    -4.5719665966     8.5617283041
  100      N     -12.0238542627    -4.6283526907    11.5176446674
  101      C     -11.5264516523    -5.3453304316    12.6159539168
  102      C     -10.2316991840    -5.8614159031    12.6372159100
  103      H      -9.5699237147    -5.7026984981    11.7983009496
  104      C      -9.7662938606    -6.5673956752    13.7364929170
  105      H      -8.7521179607    -6.9443517807    13.7268673999
  106      C     -10.5857995906    -6.8036906126    14.8257564890
  107      H     -10.2285370927    -7.3663427721    15.6773388690
  108      C     -11.8768230779    -6.3000745005    14.8146448954
  109      H     -12.5363406941    -6.4644332793    15.6574448719
  110      C     -12.3321848254    -5.5546069778    13.7394038012
  111      C     -13.3810871314    -4.6894621752    11.1654690035
  112      C     -13.8087482669    -4.6074819193     9.8415243371
  113      H     -13.0898948866    -4.4748556108     9.0462958021
  114      C     -15.1569846507    -4.6834369646     9.5255897395
  115      H     -15.4572541435    -4.6091939637     8.4887643304
  116      C     -16.1073916451    -4.8704864744    10.5135347833
  117      H     -17.1574295338    -4.9455596626    10.2664466822
  118      C     -15.6945559115    -4.9563175929    11.8334844673
  119      H     -16.4181209032    -5.0979290605    12.6263890337
  120      C     -14.3536695354    -4.8382059584    12.1600154337
  121      C      -9.2941844726    -5.4968952079     7.4756406788
  122      H      -9.7400654005    -6.4862875235     7.5701085481
  123      H      -8.2095888193    -5.6206988417     7.5006433713
  124      H      -9.5507249541    -5.1149877788     6.4849686134
  125      C      -9.2866279639    -0.9716899473     9.7271034764
  126      H     -10.1336412534    -0.3145962488     9.9418867657
  127      H      -8.8793548009    -0.6252448495     8.7731288897
  128      C      -8.2311319964    -0.8087394430    10.8181421496
  129      H      -7.3495305240    -1.4139381784    10.6066810495
  130      H      -7.9099059754     0.2297961275    10.8999956579
  131      H      -8.6185889931    -1.1154509264    11.7903170691
  132      S     -13.8860196754    -4.7424002892    13.8520802475
 ----------------------------------------------------------------
 Nuclear Repulsion Energy = 12496.7290236005 hartrees
 There are      276 alpha and      276 beta electrons
 Requested basis set is def2-mSVP
 There are 666 shells and 1310 basis functions

 Total QAlloc Memory Limit   4000 MB
 Mega-Array Size      1001 MB
 MEM_STATIC part      1024 MB
 Discretize the solute cavity surface with Lebedev spheres
	Using 302 Lebedev grid points for each H atom
	Using 302 Lebedev grid points for other atoms
	Atomic van der Waals radii will be scaled by 1.20
 Remove points where switching function is < 1.0e-08
 Keep 13744 surface tesserae and discard 26120 interior tesserae
 Molecular Surface Area = 1055.154 Angst**2
 A cutoff of  1.0D-12 yielded  65062 shell pairs
 There are    259338 function pairs (    285589 Cartesian)
 
 -------------------------------------------------------
 OpenMP Integral Computing Module                       
 Release: version 1.0, May 2013, Q-Chem Inc. Pittsburgh 
 -------------------------------------------------------
 Integral Job Info:
 Integral job number is                      11
 Integral operator is                         1
 short-range coefficients                     0
 long-range coefficients              100000000
 Omega coefficients                           0
 if combine SR and LR in K                    0
 Integral screening is                        0
 Integral computing path is                   2
 max size of driver memory is            800000
 size of driver memory is                593474
 size of scratch memory is              7590872
 max col of scratch BK array               1296
 max len of scratch array in speh3          155
 max len of scratch index in speh4           18
 max int batch size is                      520
 min int batch size is                       52
 fixed nKL is                                52
 max L of basis functions is                  2
 order of int derivative is                   0
 number of shells is                        666
 number of basis is                        1390
 number of cartesian basis is              1390
 number of contracted shell pairs         65062
 number of primitive shell pairs         135411
 maxK2 (contraction) of shell pair           25
 max number of K2 of shell pair               1
 max number of CS2 of shell pair          15417
 max number of PS2 of shell pair          23585
 mem total for path MDJ                  683688
 -------------------------------------------------------
 Smallest overlap matrix eigenvalue = 1.93E-04

 Scale SEOQF with 1.000000e-03/1.000000e-02/1.000000e-02

 Standard Electronic Orientation quadrupole field applied
 Nucleus-field energy     =    -0.0000003118 hartrees
 Guess from superposition of atomic densities
 Warning:  Energy on first SCF cycle will be non-variational
 A restricted hybrid HF-DFT SCF calculation will be
 performed using Pulay DIIS extrapolation
 Polarizable Continuum solvation model will be applied
 Exchange:     0.4200 Hartree-Fock + 0.5800 PBEh-3c
 Correlation:  1.0000 PBEh-3c
 Using SG-1 standard quadrature grid
 Dispersion:   Grimme D3
 SCF converges when DIIS error is below 1.0E-09
 using 4 threads for integral computing
 -------------------------------------------------------
 OpenMP Integral computing Module                
 Release: version 1.0, May 2013, Q-Chem Inc. Pittsburgh 
 -------------------------------------------------------
 ---------------------------------------
  Cycle       Energy         DIIS Error
 ---------------------------------------
    1   -3827.1953219005      2.33E-02
 Using non-symmetric K matrix
    2   -3798.8265427845      1.60E-03
    3   -3799.0044985794      1.42E-03
    4   -3799.4187038698      4.27E-04
    5   -3799.4572118642      1.47E-04
    6   -3799.4620059543      3.56E-05
    7   -3799.4622774161      1.24E-05
    8   -3799.4623127574      3.41E-06
    9   -3799.4623157793      1.21E-06
   10   -3799.4623162104      5.17E-07
   11   -3799.4623162979      1.65E-07
   12   -3799.4623163111      5.55E-08
   13   -3799.4623163142      1.99E-08
   14   -3799.4623163139      6.99E-09
   15   -3799.4623163104      2.41E-09
   16   -3799.4623163076      8.44E-10 Convergence criterion met
 ---------------------------------------

************** Final PCM Free Energy Summary **************
 G_electrostatic  =      -0.03927205 hartree =     -24.64358615 kcal/mol
 G_cavitation     =       0.00000000 hartree =       0.00000000 kcal/mol
 G_dispersion     =       0.00000000 hartree =       0.00000000 kcal/mol
 G_repulsion      =       0.00000000 hartree =       0.00000000 kcal/mol
 --------------------------------------------------
 Non-electrostatic Free Energy =       0.00000000 hartree =       0.00000000 kcal/mol
 Total                         =      -0.03927205 hartree =     -24.64358615 kcal/mol
 --------------------------------------------------
 SCF Energy (H0 + V/2)                       =   -3799.46231631 
 Solute Internal Energy (H0)                 =   -3799.42304425 
 Total Free Energy (H0 + V/2 + non-elec)     =   -3799.46231631 hartree
                                             = -2384198.58819062 kcal/mol
***********************************************************

 SCF time:  CPU 9815.92 s  wall 3934.48 s
 SCF   energy in the final basis set = -3799.46231631
 Total energy in the final basis set = -3799.46231631
 
 --------------------------------------------------------------
 
                    Orbital Energies (a.u.)
 --------------------------------------------------------------
 
 Alpha MOs
 -- Occupied --
-89.602 -89.602 -14.686 -14.686 -10.507 -10.506 -10.506 -10.506
-10.488 -10.488 -10.485 -10.485 -10.485 -10.485 -10.470 -10.469
-10.468 -10.468 -10.467 -10.467 -10.467 -10.466 -10.466 -10.466
-10.465 -10.465 -10.464 -10.463 -10.463 -10.463 -10.463 -10.463
-10.463 -10.462 -10.461 -10.459 -10.459 -10.459 -10.459 -10.459
-10.459 -10.459 -10.459 -10.458 -10.457 -10.457 -10.456 -10.456
-10.452 -10.452 -10.452 -10.452 -10.451 -10.451 -10.451 -10.451
-10.450 -10.450 -10.447 -10.447 -10.447 -10.447 -10.447 -10.447
-10.446 -10.446 -10.442 -10.441 -10.441 -10.440 -10.440 -10.439
-10.434 -10.434 -10.431 -10.431 -10.424 -10.423  -8.242  -8.241
 -6.958  -6.956  -6.133  -6.132  -6.129  -6.129  -6.124  -6.124
 -1.096  -1.094  -1.021  -1.021  -0.979  -0.979  -0.973  -0.973
 -0.968  -0.965  -0.956  -0.955  -0.936  -0.936  -0.914  -0.906
 -0.906  -0.906  -0.890  -0.889  -0.868  -0.863  -0.861  -0.861
 -0.859  -0.857  -0.849  -0.849  -0.849  -0.848  -0.828  -0.824
 -0.824  -0.819  -0.816  -0.811  -0.810  -0.809  -0.776  -0.775
 -0.770  -0.769  -0.739  -0.735  -0.729  -0.724  -0.724  -0.721
 -0.715  -0.714  -0.714  -0.713  -0.691  -0.685  -0.684  -0.683
 -0.682  -0.670  -0.661  -0.654  -0.652  -0.651  -0.647  -0.645
 -0.637  -0.637  -0.621  -0.621  -0.600  -0.598  -0.592  -0.591
 -0.591  -0.590  -0.586  -0.578  -0.577  -0.563  -0.562  -0.559
 -0.554  -0.548  -0.548  -0.546  -0.541  -0.540  -0.531  -0.531
 -0.529  -0.529  -0.528  -0.522  -0.516  -0.513  -0.506  -0.506
 -0.505  -0.502  -0.502  -0.500  -0.499  -0.497  -0.496  -0.495
 -0.493  -0.491  -0.490  -0.487  -0.487  -0.486  -0.483  -0.482
 -0.480  -0.480  -0.478  -0.477  -0.473  -0.470  -0.469  -0.467
 -0.462  -0.457  -0.453  -0.450  -0.449  -0.449  -0.444  -0.442
 -0.441  -0.437  -0.436  -0.436  -0.433  -0.431  -0.431  -0.430
 -0.426  -0.425  -0.423  -0.419  -0.419  -0.416  -0.406  -0.406
 -0.401  -0.400  -0.399  -0.398  -0.398  -0.396  -0.396  -0.394
 -0.393  -0.390  -0.387  -0.386  -0.385  -0.385  -0.383  -0.376
 -0.373  -0.370  -0.364  -0.357  -0.355  -0.352  -0.352  -0.347
 -0.325  -0.319  -0.309  -0.309  -0.304  -0.303  -0.299  -0.298
 -0.288  -0.286  -0.285  -0.284  -0.283  -0.273  -0.273  -0.266
 -0.263  -0.260  -0.230  -0.230
 -- Virtual --
 -0.098  -0.063  -0.043  -0.034  -0.009  -0.007  -0.006   0.003
  0.005   0.006   0.007   0.008   0.010   0.011   0.013   0.022
  0.024   0.036   0.036   0.040   0.064   0.076   0.076   0.078
  0.081   0.088   0.112   0.116   0.119   0.120   0.136   0.146
  0.149   0.151   0.154   0.156   0.159   0.159   0.161   0.165
  0.167   0.170   0.173   0.174   0.175   0.178   0.181   0.184
  0.185   0.187   0.188   0.188   0.189   0.190   0.194   0.194
  0.197   0.199   0.201   0.202   0.205   0.208   0.208   0.209
  0.210   0.214   0.215   0.217   0.219   0.220   0.221   0.222
  0.223   0.226   0.226   0.227   0.228   0.229   0.233   0.235
  0.238   0.240   0.241   0.242   0.243   0.246   0.248   0.248
  0.250   0.250   0.251   0.254   0.256   0.258   0.261   0.263
  0.266   0.267   0.270   0.271   0.275   0.276   0.279   0.282
  0.284   0.285   0.286   0.288   0.292   0.293   0.296   0.298
  0.299   0.303   0.306   0.309   0.310   0.311   0.314   0.316
  0.317   0.320   0.321   0.322   0.324   0.326   0.332   0.333
  0.339   0.341   0.341   0.344   0.347   0.349   0.352   0.357
  0.362   0.366   0.370   0.372   0.373   0.378   0.382   0.384
  0.389   0.398   0.401   0.409   0.410   0.413   0.416   0.417
  0.421   0.423   0.424   0.430   0.435   0.438   0.442   0.444
  0.450   0.456   0.457   0.462   0.463   0.465   0.469   0.479
  0.481   0.484   0.488   0.490   0.491   0.493   0.495   0.500
  0.502   0.503   0.508   0.511   0.512   0.513   0.518   0.520
  0.522   0.522   0.524   0.526   0.527   0.527   0.528   0.531
  0.532   0.533   0.535   0.537   0.537   0.541   0.543   0.544
  0.545   0.547   0.548   0.551   0.551   0.554   0.556   0.557
  0.558   0.560   0.561   0.562   0.564   0.569   0.570   0.571
  0.573   0.574   0.575   0.578   0.579   0.580   0.583   0.584
  0.586   0.587   0.588   0.589   0.590   0.593   0.595   0.596
  0.597   0.600   0.600   0.602   0.603   0.604   0.606   0.607
  0.609   0.611   0.613   0.614   0.615   0.615   0.616   0.617
  0.620   0.620   0.621   0.621   0.622   0.623   0.624   0.626
  0.627   0.629   0.630   0.631   0.633   0.636   0.636   0.639
  0.642   0.643   0.644   0.644   0.648   0.650   0.651   0.652
  0.652   0.654   0.656   0.659   0.661   0.664   0.666   0.667
  0.672   0.676   0.680   0.682   0.683   0.687   0.688   0.693
  0.695   0.697   0.699   0.700   0.701   0.707   0.709   0.711
  0.712   0.713   0.714   0.720   0.725   0.727   0.727   0.729
  0.731   0.733   0.735   0.736   0.738   0.742   0.745   0.747
  0.750   0.752   0.754   0.757   0.761   0.763   0.766   0.768
  0.771   0.773   0.775   0.777   0.777   0.782   0.787   0.789
  0.790   0.791   0.793   0.801   0.804   0.807   0.810   0.811
  0.818   0.819   0.824   0.825   0.827   0.828   0.835   0.837
  0.839   0.844   0.849   0.851   0.854   0.858   0.861   0.870
  0.871   0.878   0.885   0.887   0.889   0.893   0.894   0.900
  0.903   0.905   0.913   0.915   0.915   0.918   0.923   0.925
  0.930   0.935   0.936   0.937   0.938   0.941   0.945   0.946
  0.950   0.952   0.957   0.960   0.962   0.963   0.966   0.970
  0.971   0.975   0.977   0.979   0.981   0.983   0.985   0.986
  0.990   0.992   0.992   0.993   0.996   0.998   1.000   1.001
  1.003   1.003   1.005   1.005   1.008   1.009   1.010   1.016
  1.020   1.020   1.023   1.024   1.027   1.029   1.030   1.032
  1.037   1.039   1.040   1.041   1.044   1.046   1.046   1.048
  1.050   1.053   1.056   1.059   1.061   1.063   1.065   1.068
  1.069   1.072   1.076   1.079   1.082   1.083   1.085   1.087
  1.089   1.090   1.091   1.097   1.100   1.102   1.104   1.106
  1.109   1.111   1.115   1.119   1.122   1.124   1.127   1.130
  1.133   1.137   1.138   1.140   1.141   1.144   1.145   1.151
  1.152   1.155   1.156   1.157   1.162   1.167   1.168   1.170
  1.176   1.179   1.186   1.189   1.191   1.192   1.199   1.203
  1.207   1.209   1.212   1.216   1.219   1.220   1.224   1.230
  1.234   1.238   1.246   1.249   1.251   1.253   1.259   1.262
  1.263   1.264   1.277   1.278   1.283   1.284   1.287   1.288
  1.294   1.296   1.297   1.297   1.301   1.302   1.303   1.310
  1.312   1.320   1.323   1.325   1.326   1.329   1.332   1.335
  1.337   1.341   1.346   1.350   1.354   1.358   1.364   1.368
  1.369   1.372   1.374   1.376   1.380   1.382   1.382   1.388
  1.389   1.393   1.401   1.405   1.409   1.414   1.415   1.427
  1.433   1.433   1.438   1.438   1.439   1.442   1.446   1.452
  1.454   1.459   1.469   1.472   1.476   1.482   1.485   1.492
  1.497   1.497   1.501   1.509   1.509   1.510   1.515   1.516
  1.516   1.517   1.522   1.523   1.526   1.529   1.529   1.531
  1.534   1.534   1.538   1.539   1.540   1.541   1.545   1.546
  1.549   1.553   1.555   1.557   1.557   1.558   1.561   1.569
  1.571   1.574   1.578   1.581   1.584   1.586   1.591   1.593
  1.598   1.602   1.610   1.613   1.619   1.626   1.627   1.636
  1.641   1.642   1.651   1.656   1.657   1.657   1.660   1.664
  1.667   1.677   1.689   1.694   1.702   1.714   1.738   1.746
  1.748   1.750   1.755   1.757   1.765   1.780   1.783   1.795
  1.802   1.804   1.805   1.806   1.806   1.807   1.809   1.810
  1.811   1.812   1.814   1.818   1.830   1.839   1.843   1.845
  1.849   1.851   1.860   1.863   1.872   1.874   1.883   1.889
  1.895   1.902   1.903   1.907   1.909   1.915   1.917   1.917
  1.921   1.924   1.928   1.931   1.936   1.938   1.940   1.946
  1.955   1.958   1.964   1.966   1.968   1.971   1.974   1.975
  1.978   1.978   1.983   1.984   1.986   1.988   1.993   2.006
  2.010   2.011   2.015   2.017   2.019   2.024   2.029   2.032
  2.036   2.043   2.043   2.049   2.053   2.054   2.070   2.071
  2.073   2.076   2.084   2.088   2.089   2.090   2.093   2.109
  2.110   2.111   2.114   2.118   2.123   2.131   2.131   2.134
  2.139   2.149   2.151   2.153   2.155   2.156   2.158   2.164
  2.165   2.178   2.184   2.187   2.194   2.194   2.196   2.198
  2.200   2.201   2.201   2.203   2.204   2.205   2.207   2.218
  2.220   2.230   2.230   2.234   2.235   2.237   2.240   2.248
  2.249   2.249   2.254   2.257   2.258   2.261   2.269   2.273
  2.275   2.277   2.278   2.285   2.286   2.290   2.294   2.296
  2.300   2.302   2.311   2.314   2.318   2.320   2.320   2.324
  2.331   2.336   2.341   2.343   2.347   2.350   2.352   2.353
  2.354   2.355   2.356   2.358   2.359   2.360   2.368   2.370
  2.372   2.375   2.378   2.381   2.384   2.386   2.388   2.391
  2.393   2.404   2.406   2.409   2.411   2.413   2.414   2.418
  2.422   2.429   2.433   2.436   2.443   2.451   2.457   2.459
  2.470   2.473   2.477   2.477   2.487   2.489   2.490   2.493
  2.494   2.498   2.505   2.506   2.510   2.512   2.522   2.531
  2.537   2.548   2.560   2.567   2.573   2.599   2.605   2.606
  2.610   2.624   2.625   2.626   2.641   2.641   2.641   2.642
  2.643   2.666   2.681   2.685   2.688   2.693   2.693   2.698
  2.705   2.706   2.709   2.723   2.724   2.725   2.729   2.730
  2.730   2.731   2.732   2.746   2.747   2.755   2.759   2.760
  2.767   2.768   2.770   2.774   2.774   2.779   2.785   2.787
  2.789   2.790   2.799   2.800   2.801   2.801   2.805   2.807
  2.812   2.812   2.813   2.816   2.818   2.820   2.824   2.826
  2.835   2.838   2.843   2.856   2.861   2.864   2.872   2.880
  2.882   2.886   2.895   2.898   2.901   2.902   2.926   2.930
  2.935   2.941   2.954   2.976   2.980   2.982   2.987   2.994
  2.999   3.002   3.004   3.006   3.008   3.013   3.028   3.042
  3.072   3.077   3.082   3.089   3.117   3.193   3.195   3.228
  3.231   3.232   3.253   3.255   3.300   3.302   3.401   3.438
  3.448   3.474   3.479   3.489   3.492   3.493   3.498   3.500
  3.542   3.550   3.666   3.679   9.578   9.722  13.140  13.173
 13.238  13.238  13.255  13.256  13.469  13.495  13.512  13.526
 13.544  13.560  13.674  13.676  13.677  13.677  13.688  13.693
 13.695  13.698  13.730  13.731  13.731  13.787  13.795  13.799
 13.823  13.835  13.860  13.896  13.913  13.920  13.939  13.997
 14.005  14.019  14.032  14.037  14.046  14.049  14.133  14.139
 14.141  14.143  14.143  14.159  14.161  14.182  14.183  14.193
 14.195  14.196  14.208  14.217  14.224  14.261  14.285  14.289
 14.306  14.310  14.341  14.344  14.512  14.517  14.563  14.564
 14.568  14.571  14.573  14.575  14.584  14.584  14.610  14.616
 19.598  19.600
 --------------------------------------------------------------
 
          Ground-State Mulliken Net Atomic Charges

     Atom                 Charge (a.u.)
  ----------------------------------------
      1 S                     0.122371
      2 C                    -0.200096
      3 C                    -0.268454
      4 H                     0.259982
      5 C                    -0.258753
      6 H                     0.250111
      7 C                    -0.252463
      8 H                     0.252295
      9 C                    -0.312133
     10 H                     0.278653
     11 C                     0.410598
     12 N                    -0.698980
     13 C                     0.419404
     14 C                    -0.318019
     15 H                     0.275523
     16 C                    -0.248699
     17 H                     0.252127
     18 C                    -0.260796
     19 H                     0.250132
     20 C                    -0.267350
     21 H                     0.260045
     22 C                    -0.207611
     23 C                     0.207262
     24 C                    -0.327280
     25 H                     0.244919
     26 C                    -0.331150
     27 H                     0.259518
     28 C                     0.030050
     29 C                     0.060458
     30 C                    -0.201036
     31 C                    -0.775866
     32 H                     0.257680
     33 H                     0.252616
     34 H                     0.253867
     35 C                    -0.550510
     36 H                     0.247989
     37 H                     0.253523
     38 C                    -0.659147
     39 H                     0.236759
     40 H                     0.225526
     41 H                     0.231122
     42 B                     0.679144
     43 C                    -0.149412
     44 C                    -0.407451
     45 H                     0.249563
     46 C                     0.092723
     47 C                     0.074178
     48 C                    -0.386804
     49 H                     0.246244
     50 C                    -0.161210
     51 C                     0.179533
     52 C                    -0.389207
     53 H                     0.251840
     54 C                    -0.067869
     55 C                     0.226141
     56 C                     0.180240
     57 C                    -0.397742
     58 H                     0.251839
     59 C                    -0.233279
     60 H                     0.258755
     61 C                    -0.346847
     62 H                     0.255455
     63 C                    -0.350949
     64 H                     0.255708
     65 C                    -0.230574
     66 H                     0.258377
     67 B                     0.691216
     68 C                    -0.155017
     69 C                    -0.396299
     70 H                     0.246739
     71 C                     0.076413
     72 C                     0.089951
     73 C                    -0.388459
     74 H                     0.250171
     75 C                    -0.152392
     76 C                     0.182432
     77 C                    -0.393170
     78 H                     0.251460
     79 C                    -0.068561
     80 C                     0.224565
     81 C                     0.183368
     82 C                    -0.400101
     83 H                     0.254321
     84 C                    -0.231747
     85 H                     0.258712
     86 C                    -0.347532
     87 H                     0.255593
     88 C                    -0.349312
     89 H                     0.255683
     90 C                    -0.232951
     91 H                     0.258313
     92 C                    -0.216028
     93 C                     0.056466
     94 C                    -0.320623
     95 H                     0.244632
     96 C                     0.221550
     97 C                    -0.338376
     98 H                     0.258372
     99 C                     0.036195
    100 N                    -0.707796
    101 C                     0.415346
    102 C                    -0.314301
    103 H                     0.273466
    104 C                    -0.249038
    105 H                     0.251392
    106 C                    -0.259970
    107 H                     0.250116
    108 C                    -0.267751
    109 H                     0.259657
    110 C                    -0.202502
    111 C                     0.413839
    112 C                    -0.313573
    113 H                     0.274758
    114 C                    -0.249552
    115 H                     0.251602
    116 C                    -0.259836
    117 H                     0.250153
    118 C                    -0.267202
    119 H                     0.259858
    120 C                    -0.203140
    121 C                    -0.774450
    122 H                     0.257465
    123 H                     0.251346
    124 H                     0.252404
    125 C                    -0.551277
    126 H                     0.247907
    127 H                     0.255331
    128 C                    -0.655120
    129 H                     0.231582
    130 H                     0.231277
    131 H                     0.226319
    132 S                     0.123525
  ----------------------------------------
  Sum of atomic charges =     0.000000

 -----------------------------------------------------------------
                    Cartesian Multipole Moments
 -----------------------------------------------------------------
    Charge (ESU x 10^10)
                 0.0000
    Dipole Moment (Debye)
         X      -0.6523      Y       0.3732      Z      -0.2243
       Tot       0.7843
    Quadrupole Moments (Debye-Ang)
        XX    -423.1600     XY     -24.5221     YY    -467.6488
        XZ      60.3859     YZ     -18.1397     ZZ    -465.3920
    Octopole Moments (Debye-Ang^2)
       XXX    9347.7468    XXY    1327.5285    XYY    3539.7968
       YYY    3183.4711    XXZ   -3683.2809    XYZ    -160.4592
       YYZ   -3005.7791    XZZ    4243.6774    YZZ     832.7317
       ZZZ   -9151.6379
    Hexadecapole Moments (Debye-Ang^3)
      XXXX -195182.8675   XXXY  -31808.3152   XXYY  -43204.8573
      XYYY  -29825.1390   YYYY  -30393.2549   XXXZ   85820.6336
      XXYZ   13391.3160   XYYZ   27712.0515   YYYZ   33042.9730
      XXZZ  -75906.6534   XYZZ  -11770.2590   YYZZ  -32168.6654
      XZZZ   90155.9365   YZZZ   28665.3910   ZZZZ -172135.8793
 -----------------------------------------------------------------
 Calculating analytic gradient of the SCF energy
 -8.477649397975904E-004 -8.478026343170771E-004
 -8.477495300955715E-004 -8.478180600524942E-004
 -8.477717874349467E-004 -8.477957590748324E-004
 -8.478108782548198E-004 -8.477566967759265E-004
 -8.477761092758732E-004 -8.477915392336038E-004
 -8.477714071615826E-004 -8.477961603355773E-004
 -8.477587422731035E-004 -8.478088211192677E-004
 -8.477777394729153E-004 -8.477899163888795E-004
 -8.477956631909314E-004 -8.477719174882939E-004
 -8.477930730396361E-004 -8.477744985390273E-004
 -8.477823661716542E-004 -8.477852619267327E-004
 -8.477715246959251E-004 -8.477960626147899E-004
 -8.477897473978635E-004 -8.477778453974815E-004
 -8.477893794001164E-004 -8.477782765285180E-004
 -8.477652046122322E-004 -8.478023589335293E-004
 -8.477803158637484E-004 -8.477872897630738E-004
 -8.477822613612519E-004 -8.477853471700267E-004
 -8.477931466163583E-004 -8.477744199147576E-004
 -8.477546955937758E-004 -8.478128739360022E-004
 -8.477932289522123E-004 -8.477744254080035E-004
 -8.478154134915637E-004 -8.477521614481381E-004
 -8.477696291648532E-004 -8.477979364503471E-004
 -8.478059280750080E-004 -8.477616688398948E-004
 -8.477852432906745E-004 -8.477823329661538E-004
 -8.477819415248556E-004 -8.477856251637350E-004
 -8.477981743294151E-004 -8.477694953025307E-004
 -8.477889547138621E-004 -8.477786116810027E-004
 -8.477653545316865E-004 -8.478022029889622E-004
 -8.478093756230729E-004 -8.477582614433543E-004
 -8.478045675438175E-004 -8.477630067600214E-004
 -8.477604927941841E-004 -8.478070750278738E-004
 -8.477766876044258E-004 -8.477909739577781E-004
 -8.478054872310473E-004 -8.477620996224051E-004
 -8.477878648222479E-004 -8.477797274248678E-004
 -8.477632631009697E-004 -8.478043800741490E-004
 -8.477922567262041E-004 -8.477753397125520E-004
 -8.477504330110257E-004 -8.478171516620836E-004
 -8.477856920330697E-004 -8.477819480024362E-004
 -8.477881992147304E-004 -8.477794159488837E-004
 -8.477846943768161E-004 -8.477828896356445E-004
 -8.477733388022150E-004 -8.477942989085633E-004
 -8.477991423832384E-004 -8.477684636087057E-004
 -8.477595862575614E-004 -8.478079735909662E-004
 -8.477897019331369E-004 -8.477779251391988E-004
 -8.477995522898801E-004 -8.477680447240570E-004
 -8.477453378050838E-004 -8.478222282072550E-004
 -8.477963822151374E-004 -8.477712426418231E-004
 -8.477835012523447E-004 -8.477840896061852E-004
 -8.477877587729750E-004 -8.477798129778462E-004
 -8.477788420261693E-004 -8.477887268857284E-004
 -8.477975303283068E-004 -8.477700358709109E-004
 -8.478122321919856E-004 -8.477553613555082E-004
 -8.477725023082511E-004 -8.477951216669291E-004
 -8.477920794629015E-004 -8.477755116508372E-004
 -8.477792136245494E-004 -8.477883801697669E-004
 -8.477907082162131E-004 -8.477768925529644E-004
 -8.477816347565324E-004 -8.477859662319809E-004
 -8.477614191264252E-004 -8.478061388538830E-004
 -8.477933063788386E-004 -8.477743151373254E-004
 -8.477820792589554E-004 -8.477855133594715E-004
 -8.477982187733667E-004 -8.477693307433641E-004
 -8.477819896489450E-004 -8.477856198528587E-004
 -8.477860969842836E-004 -8.477814973919370E-004
 -8.478227844872699E-004 -8.477448061230950E-004
 -8.477677491706007E-004 -8.477998722887852E-004
 -8.477712671896532E-004 -8.477963206747470E-004
 -8.477426731714377E-004 -8.478248867570528E-004
 -8.477592299474524E-004 -8.478083648961134E-004
 -8.478049329820139E-004 -8.477626390354664E-004
 -8.478060868692770E-004 -8.477615039283448E-004
 -8.477875333414431E-004 -8.477800028562938E-004
 -8.477655505763129E-004 -8.478020287028493E-004
 -8.477811752390194E-004 -8.477864149679768E-004
 -8.477717383330889E-004 -8.477957922914156E-004
 -8.477927811146300E-004 -8.477747976056201E-004
 -8.478035466690267E-004 -8.477640367967922E-004
 -8.478035179301394E-004 -8.477640418183580E-004
 -8.477762024454534E-004 -8.477913672155848E-004
 -8.477824047056529E-004 -8.477851759291798E-004
 -8.477864830224822E-004 -8.477810776170915E-004
 -8.478014086990926E-004 -8.477661511884606E-004
 -8.477535067738908E-004 -8.478140639182976E-004
 -8.477918546867251E-004 -8.477757102663590E-004
 -8.478207438091731E-004 -8.477468453990515E-004
 -8.477606955384495E-004 -8.478068815113483E-004
 -8.477473949074310E-004 -8.478201758134812E-004
 -8.477921327229713E-004 -8.477754428020806E-004
 -8.478010603516473E-004 -8.477665139838830E-004
 -8.477976203515565E-004 -8.477699643872139E-004
 -8.477655288649936E-004 -8.478020550725270E-004
 -8.477874908537212E-004 -8.477800915213144E-004
 -8.477646758026269E-004 -8.478028769641666E-004
 -8.477845155790706E-004 -8.477830605937984E-004
 -8.477817640739085E-004 -8.477858245470478E-004
 -8.477689651180348E-004 -8.477985785765999E-004
 -8.477945283254901E-004 -8.477730504427054E-004
 -8.477787912613104E-004 -8.477887972829421E-004
 -8.477754575181280E-004 -8.477921158579250E-004
 -8.477801072269951E-004 -8.477874681241007E-004
 -8.477933357112326E-004 -8.477742377083586E-004
 -8.477740774304997E-004 -8.477935087059566E-004
 -8.477985054556470E-004 -8.477690642483089E-004
 -8.477882119164969E-004 -8.477793739353891E-004
 -8.477999355721109E-004 -8.477676296360429E-004
 -8.477860237311584E-004 -8.477815426018223E-004
 -8.477860800907202E-004 -8.477815113208875E-004
 -8.477856838053411E-004 -8.477818676453539E-004
 -8.478023200121502E-004 -8.477652588400424E-004
 -8.477910082815608E-004 -8.477765850445434E-004
 -8.477745320035986E-004 -8.477930484771675E-004
 -8.478065270520608E-004 -8.477610487177059E-004
 -8.477755131523061E-004 -8.477921012150925E-004
 -8.477763904226512E-004 -8.477911661386953E-004
 -8.478028138361197E-004 -8.477647464547741E-004
 -8.477776606525187E-004 -8.477899205482152E-004
 -8.477969514602461E-004 -8.477706022647173E-004
 -8.477870882485886E-004 -8.477804909135032E-004
 -8.477770322158444E-004 -8.477905546960618E-004
 -8.478039930511193E-004 -8.477635848320524E-004
 -8.477859165698851E-004 -8.477816537576161E-004
 -8.477856842704049E-004 -8.477818934315429E-004
 -8.478039614353043E-004 -8.477636222426921E-004
 -8.478075229238448E-004 -8.477600395769124E-004
 -8.477942508605136E-004 -8.477733303011090E-004
 -8.477843347655121E-004 -8.477833214050867E-004
 -8.477916512638415E-004 -8.477759480881733E-004
 -8.477917426507708E-004 -8.477758445407516E-004
 -8.477928638794959E-004 -8.477748175805878E-004
 -8.477663466012596E-004 -8.478012484560997E-004
 -8.477976183331683E-004 -8.477699482530485E-004
 -8.477785338724343E-004 -8.477891537326343E-004
 -8.477936330313690E-004 -8.477739726883338E-004
 -8.478028239111638E-004 -8.477647526622190E-004
 -8.477858094156226E-004 -8.477818291929718E-004
 -8.477648503862221E-004 -8.478027355495969E-004
 -8.478058251658737E-004 -8.477617624556538E-004
 -8.477821836244564E-004 -8.477854966235712E-004
 -8.477811898002837E-004 -8.477864055249646E-004
 -8.477907625965243E-004 -8.477768062182011E-004
 -8.477706000514418E-004 -8.477970830654458E-004
 -8.478093763954709E-004 -8.477582246443575E-004
 -8.477889691177706E-004 -8.477786080488222E-004
 -8.477810527564252E-004 -8.477866350642975E-004
 -8.477873422983236E-004 -8.477802555628680E-004
 -8.477805760957742E-004 -8.477870158075541E-004
 -8.477792453855275E-004 -8.477883936837771E-004
 -8.478028177237998E-004 -8.477647728602727E-004
 -8.477756371912590E-004 -8.477919365571902E-004
 -8.477722479952841E-004 -8.477954397870080E-004
 -8.478075326745548E-004 -8.477600692594048E-004
 -8.477876493082966E-004 -8.477799323629491E-004
 -8.477769437029879E-004 -8.477907327069181E-004
 -8.477977204494863E-004 -8.477698645250854E-004
 -8.477979134440012E-004 -8.477696504680390E-004
 -8.477703370681634E-004 -8.477973396411294E-004
 -8.478183053285268E-004 -8.477493088463429E-004
 -8.477904576331401E-004 -8.477771051097717E-004
 -8.477858871267690E-004 -8.477817335463776E-004
 -8.477959649622431E-004 -8.477716330972775E-004
 -8.477997053141120E-004 -8.477678706285100E-004
 -8.477773405871677E-004 -8.477903427021906E-004
 -8.477917109733770E-004 -8.477759062915048E-004
 -8.477539551100717E-004 -8.478136191530810E-004
 -8.477920955630761E-004 -8.477755569987779E-004
 -8.477709417967435E-004 -8.477966370514746E-004
 -8.477973033291508E-004 -8.477702688702792E-004
 -8.477828568921697E-004 -8.477848169793376E-004
 -8.477821818646553E-004 -8.477854038320552E-004
 -8.478195050022768E-004 -8.477480841417684E-004
 -8.477807956550995E-004 -8.477868733106828E-004
 -8.477830370423602E-004 -8.477845468547107E-004
 -8.477948621562390E-004 -8.477727201385518E-004
 -8.477811775851635E-004 -8.477864335110497E-004
 -8.477794343475730E-004 -8.477881369718329E-004
 -8.477576580781005E-004 -8.478099287010574E-004
 -8.477889813872411E-004 -8.477786744181409E-004
 -8.477833530292770E-004 -8.477842157765729E-004
 -8.477903637938290E-004 -8.477772063625510E-004
 -8.477822297109042E-004 -8.477853646414082E-004
 -8.477922152422504E-004 -8.477753407792662E-004
 -8.478052211915357E-004 -8.477623186573043E-004
 -8.477795061759422E-004 -8.477881592976091E-004
 -8.477868152011207E-004 -8.477807980275900E-004
 -8.477676215420387E-004 -8.477999183810355E-004
 -8.477886443419291E-004 -8.477789773807815E-004
 -8.477758176555553E-004 -8.477917865772552E-004
 -8.478023305388857E-004 -8.477652356738410E-004
 -8.477771467598333E-004 -8.477905048170954E-004
 -8.477930584336667E-004 -8.477745150299778E-004
 -8.477670198344279E-004 -8.478005421487550E-004
 -8.477887879241356E-004 -8.477788280498416E-004
 -8.477765838208052E-004 -8.477910049753429E-004
 -8.477652864018030E-004 -8.478022868608221E-004
 -8.477937029153294E-004 -8.477739484290484E-004
 -8.477659177631173E-004 -8.478016612255463E-004
 -8.477950898958878E-004 -8.477724717916451E-004
 -8.477799485207644E-004 -8.477876507633996E-004
 -8.477874982258753E-004 -8.477800724136838E-004
 -8.477754819474620E-004 -8.477920998034997E-004
 -8.477827254490730E-004 -8.477849319230900E-004
 -8.477786923761028E-004 -8.477889021295741E-004
 -8.477802730239075E-004 -8.477873103574008E-004
 -8.477722144832125E-004 -8.477954756620498E-004
 -8.478044688796295E-004 -8.477631241796534E-004
 -8.477749430864045E-004 -8.477926212262876E-004
 -8.477866058724610E-004 -8.477810945372395E-004
 -8.477691281296934E-004 -8.477984784656335E-004
 -8.477648714000818E-004 -8.478027070602278E-004
 -8.477783433376868E-004 -8.477893040738347E-004
 -8.478017791392089E-004 -8.477658143941028E-004
 -8.477603739734058E-004 -8.478072031779420E-004
 -8.477813091905333E-004 -8.477863799974830E-004
 -8.477881065733644E-004 -8.477794859166438E-004
 -8.477757107221476E-004 -8.477918536046580E-004
 -8.477974492923002E-004 -8.477702408976478E-004
 -8.477516805023037E-004 -8.478159156552038E-004
 -8.477764683532782E-004 -8.477911052691828E-004
 -8.477818888309621E-004 -8.477858054580338E-004
 -8.477863252148202E-004 -8.477812648894896E-004
 -8.477833456616872E-004 -8.477842462536907E-004
 -8.477856039527847E-004 -8.477820402584906E-004
 -8.477677342575154E-004 -8.477998550243213E-004
 -8.477984957368427E-004 -8.477690807533775E-004
 -8.477945059759380E-004 -8.477731840952963E-004
 -8.477623162558357E-004 -8.478052767184518E-004
 -8.477603615861373E-004 -8.478072117639348E-004
 -8.477867432756792E-004 -8.477809498553830E-004
 -8.477756280827274E-004 -8.477919623438080E-004
 -8.477486349579473E-004 -8.478189467234171E-004
 -8.477823167585136E-004 -8.477853694834278E-004
 -8.477896292101721E-004 -8.477779629693222E-004
 -8.477672495652852E-004 -8.478003280178092E-004
 -8.477877626468450E-004 -8.477798566033875E-004
 -8.477837936659680E-004 -8.477837857842239E-004
 -8.477714397659001E-004 -8.477961423193243E-004
 -8.477913744561515E-004 -8.477763190057350E-004
 -8.477702972152880E-004 -8.477973163056073E-004
 -8.478065827597955E-004 -8.477609970067952E-004
 -8.477805647601701E-004 -8.477871034345344E-004
 -8.477972271298379E-004 -8.477703501683070E-004
 -8.477725891831416E-004 -8.477949898173100E-004
 -8.477885930211326E-004 -8.477790936881433E-004
 -8.477696877055491E-004 -8.477978949974598E-004
 -8.477746439254686E-004 -8.477929196133431E-004
 -8.477916752050673E-004 -8.477760095866550E-004
 -8.477434860717889E-004 -8.478241236068165E-004
 -8.477737339177564E-004 -8.477938266355360E-004
 -8.477750383010466E-004 -8.477925836807751E-004
 -8.477678277077835E-004 -8.477997720622715E-004
 -8.477921634410547E-004 -8.477754032120777E-004
 -8.477784109285707E-004 -8.477892535070548E-004
 -8.478014192676965E-004 -8.477661553733594E-004
 -8.477730188965230E-004 -8.477945422860000E-004
 -8.477877184257822E-004 -8.477798839525313E-004
 -8.477834071785153E-004 -8.477841465732302E-004
 -8.477690534394189E-004 -8.477985260113995E-004
 -8.477896672147028E-004 -8.477780061812092E-004
 -8.477763186123196E-004 -8.477912558321897E-004
 -8.477999810674042E-004 -8.477675867138953E-004
 -8.477810536244687E-004 -8.477865700615027E-004
 -8.477937005890840E-004 -8.477738803861238E-004
 -8.477658606540241E-004 -8.478016734253407E-004
 -8.477896630482279E-004 -8.477780133162585E-004
 -8.477752034468334E-004 -8.477924121720387E-004
 -8.478014903315987E-004 -8.477660546000599E-004
 -8.477817063966908E-004 -8.477859211239252E-004
 -8.477935974225198E-004 -8.477739988346543E-004
 -8.478048558549420E-004 -8.477627289129376E-004
 -8.477765519854573E-004 -8.477911107633953E-004
 -8.477874472341673E-004 -8.477801228061143E-004
 -8.477823781120526E-004 -8.477851869194959E-004
 -8.477837170785666E-004 -8.477838831171915E-004
 -8.477729830400030E-004 -8.477945756224846E-004
 -8.477675052273824E-004 -8.478000688972912E-004
 -8.477710021855406E-004 -8.477965798322764E-004
 -8.478014396536867E-004 -8.477661443566599E-004
 -8.478046466936400E-004 -8.477629335207145E-004
 -8.478233962865181E-004 -8.477441720183897E-004
 -8.477705117287927E-004 -8.477970585518816E-004
 -8.477630360252085E-004 -8.478045518118657E-004
 -8.477807908917813E-004 -8.477867447221079E-004
 -8.478027521698723E-004 -8.477648328614549E-004
 -8.477880628688617E-004 -8.477795173454632E-004
 -8.477967658160098E-004 -8.477707658183038E-004
 -8.477759142367038E-004 -8.477916709950437E-004
 -8.478170590601420E-004 -8.477505030939760E-004
 -8.478051486883783E-004 -8.477624483611743E-004
 -8.477527795692995E-004 -8.478147892288441E-004
 -8.477677734775575E-004 -8.477998112210790E-004
 -8.477640411070771E-004 -8.478035211111818E-004
 -8.478012261841908E-004 -8.477663429182496E-004
 -8.477899667949905E-004 -8.477776168874965E-004
 -8.477790049412858E-004 -8.477885560466082E-004
 -8.477744359604909E-004 -8.477931275664851E-004
 -8.478120741402854E-004 -8.477555047493336E-004
 -8.477776087665141E-004 -8.477899562681170E-004
 -8.477433868168899E-004 -8.478241981187279E-004
 -8.477858896673270E-004 -8.477816892891060E-004
 -8.477932348090996E-004 -8.477744123364835E-004
 -8.477847954651201E-004 -8.477827998781139E-004
 -8.478139222805473E-004 -8.477536740469471E-004
 -8.477841602081420E-004 -8.477834759318503E-004
 -8.477652672832258E-004 -8.478023210747503E-004
 -8.477827264021881E-004 -8.477848494730766E-004
 -8.477864261216948E-004 -8.477812122412131E-004
 -8.477698266223892E-004 -8.477977591831757E-004
 -8.477982458078463E-004 -8.477693245312085E-004
 -8.477727804841079E-004 -8.477948459003469E-004
 -8.477564701465628E-004 -8.478110987358580E-004
 -8.478179214026741E-004 -8.477496581193395E-004
 -8.477788711071727E-004 -8.477887564159230E-004
 -8.477639954066057E-004 -8.478035814077139E-004
 -8.477760766722663E-004 -8.477915003471209E-004
 -8.477846145149895E-004 -8.477829538460850E-004
 -8.477705652957698E-004 -8.477970026919753E-004
 -8.477572546304933E-004 -8.478103349916419E-004
 -8.477930338113293E-004 -8.477745992630004E-004
 -8.477872247424310E-004 -8.477803724816471E-004
 -8.477915512074680E-004 -8.477760226185306E-004
 -8.477821254516112E-004 -8.477854856480443E-004
 -8.477827013745343E-004 -8.477849077497404E-004
 -8.478048613662208E-004 -8.477627095390105E-004
 -8.477848108431015E-004 -8.477828182522839E-004
 -8.477700298512289E-004 -8.477975426712768E-004
 -8.477698184369337E-004 -8.477977552160961E-004
 -8.477870535336783E-004 -8.477805635182024E-004
 -8.477891733377031E-004 -8.477783963047964E-004
 -8.477571673748126E-004 -8.478104244420319E-004
 -8.477934391445678E-004 -8.477741817791218E-004
 -8.478108686121827E-004 -8.477567136713648E-004
 -8.477968435339818E-004 -8.477707329983119E-004
 -8.477913224387988E-004 -8.477763374449349E-004
 -8.477541513720114E-004 -8.478134338117084E-004
 -8.477951807896518E-004 -8.477723896152650E-004
 -8.477782654637550E-004 -8.477893985502018E-004
 -8.477824517168520E-004 -8.477851111483528E-004
 -8.477975936380209E-004 -8.477699833421007E-004
 -8.477656202947968E-004 -8.478020133491651E-004
 -8.477583758967687E-004 -8.478091750797088E-004
 -8.477928020396626E-004 -8.477747681381467E-004
 -8.477830472521870E-004 -8.477846017250283E-004
 -8.477465021932353E-004 -8.478210644306139E-004
 -8.477974148655172E-004 -8.477701448191656E-004
 -8.477721988917454E-004 -8.477953886727163E-004
 -8.477848059140103E-004 -8.477827658448489E-004
 -8.477877011974925E-004 -8.477798747105986E-004
 -8.477817881707567E-004 -8.477858660043147E-004
 -8.478087998348299E-004 -8.477587813335497E-004
 -8.477829884084884E-004 -8.477846057637507E-004
 -8.477848226376998E-004 -8.477827896871074E-004
 -8.477754082060126E-004 -8.477921685142155E-004
 -8.477958511306407E-004 -8.477717225144337E-004
 -8.477897493751389E-004 -8.477779001663439E-004
 -8.477626656529509E-004 -8.478048915390056E-004
 -8.477808747029252E-004 -8.477867087696338E-004
 -8.477831168035891E-004 -8.477845058523568E-004
 -8.477992238399717E-004 -8.477683350897039E-004
 -8.477660312185475E-004 -8.478015368851230E-004
 -8.477906667778328E-004 -8.477769785295854E-004
 -8.478161837070715E-004 -8.477513957115185E-004
 -8.477862298960884E-004 -8.477813454366228E-004
 -8.478050563261576E-004 -8.477624918775020E-004
 -8.477873372572377E-004 -8.477802526539906E-004
 -8.477908460165754E-004 -8.477767426815677E-004
 -8.477958782558935E-004 -8.477716654662528E-004
 -8.477790736862461E-004 -8.477885102833457E-004
 -8.477961550452492E-004 -8.477714221662456E-004
 -8.477885590491967E-004 -8.477790127766747E-004
 -8.477899105196587E-004 -8.477776707818309E-004
 -8.477781649875352E-004 -8.477894051105845E-004
 -8.477946983574637E-004 -8.477728813798929E-004
 -8.477750330148894E-004 -8.477925493828275E-004
 -8.477769602954556E-004 -8.477906327829830E-004
 -8.477681718268961E-004 -8.477993947156125E-004
 -8.477881459525973E-004 -8.477794176632870E-004
 -8.477841099867595E-004 -8.477834789016045E-004
 -8.477811721865345E-004 -8.477863777337082E-004
 -8.477696716350288E-004 -8.477979027672523E-004
 -8.477855215577661E-004 -8.477820790383548E-004
 -8.477938503340792E-004 -8.477737392824203E-004
 -8.477616567008994E-004 -8.478059280141955E-004
 -8.477993477897096E-004 -8.477682636891133E-004
 -8.477903873950417E-004 -8.477771691551565E-004
 -8.477610279877285E-004 -8.478065275466656E-004
 -8.477856814719400E-004 -8.477818977130589E-004
 -8.477708168023713E-004 -8.477967338980159E-004
 -8.477823872384899E-004 -8.477851832041386E-004
 -8.477837093932094E-004 -8.477838704012836E-004
 -8.477614558389445E-004 -8.478061322666397E-004
 -8.477616606263961E-004 -8.478058988866930E-004
 -8.477867374201880E-004 -8.477808530421071E-004
 -8.477631285579871E-004 -8.478044524806938E-004
 -8.477855927775838E-004 -8.477819828121253E-004
 -8.478005339657067E-004 -8.477670303354018E-004
 -8.478202292933255E-004 -8.477473479019897E-004
 -8.477829000532002E-004 -8.477846554795315E-004
 Gradient of SCF Energy
            1           2           3           4           5           6
    1  -0.0003939   0.0017852  -0.0064118   0.0008047  -0.0048253   0.0022429
    2  -0.0014147   0.0001935  -0.0001746  -0.0000068  -0.0000274  -0.0001229
    3   0.0009321   0.0008838   0.0012266   0.0002390  -0.0030551   0.0016936
            7           8           9          10          11          12
    1   0.0003290   0.0000443   0.0029314  -0.0008027  -0.0003346   0.0023117
    2   0.0007637  -0.0005387   0.0009243  -0.0000919  -0.0003257   0.0008483
    3  -0.0065867   0.0038705  -0.0030167   0.0015979   0.0008218  -0.0011226
           13          14          15          16          17          18
    1  -0.0033608   0.0039135  -0.0010059   0.0058559  -0.0022848   0.0005667
    2   0.0015682   0.0005858   0.0004699  -0.0025532   0.0011168  -0.0033839
    3  -0.0030519  -0.0017453   0.0003487   0.0012593  -0.0004863   0.0045770
           19          20          21          22          23          24
    1  -0.0003403  -0.0037898   0.0001641  -0.0008628   0.0016496  -0.0003413
    2   0.0011896  -0.0016368   0.0002586   0.0019080  -0.0010503   0.0024926
    3  -0.0014520   0.0046324  -0.0001710  -0.0017417  -0.0014930   0.0010100
           25          26          27          28          29          30
    1   0.0000355  -0.0001108   0.0004399   0.0006253   0.0016989   0.0002976
    2  -0.0003076  -0.0037330   0.0022014  -0.0009439   0.0002718  -0.0002723
    3   0.0002206  -0.0008964   0.0007594  -0.0004957  -0.0014537  -0.0006258
           31          32          33          34          35          36
    1  -0.0004896   0.0011829  -0.0009797   0.0001084  -0.0019521   0.0012857
    2  -0.0035028   0.0027346   0.0006029   0.0002978   0.0022739  -0.0012144
    3  -0.0004543  -0.0000946   0.0001176   0.0010866   0.0009952  -0.0005423
           37          38          39          40          41          42
    1   0.0001466  -0.0002777   0.0004886   0.0001782  -0.0002894  -0.0000920
    2  -0.0002297   0.0013696  -0.0004292   0.0000681  -0.0011696  -0.0000593
    3   0.0003432   0.0011644  -0.0000372  -0.0003068  -0.0000962   0.0007285
           43          44          45          46          47          48
    1  -0.0012396  -0.0033314   0.0012257  -0.0007408   0.0011356   0.0019279
    2  -0.0000017  -0.0014462   0.0006845  -0.0007903   0.0001400   0.0016530
    3  -0.0005487   0.0033181  -0.0013116   0.0003196  -0.0027886  -0.0034292
           49          50          51          52          53          54
    1  -0.0008200  -0.0005040  -0.0020217   0.0019450  -0.0006437  -0.0019062
    2  -0.0005466   0.0009341   0.0002785   0.0027031  -0.0017753   0.0003181
    3   0.0015372  -0.0015410  -0.0007543  -0.0058212   0.0042171  -0.0029847
           55          56          57          58          59          60
    1   0.0003038  -0.0008794  -0.0058769   0.0042549   0.0054277  -0.0040433
    2   0.0000450   0.0008296  -0.0013850   0.0006741   0.0007463  -0.0006114
    3   0.0001505  -0.0016775   0.0048843  -0.0018647  -0.0020795   0.0023835
           61          62          63          64          65          66
    1   0.0065031  -0.0043014   0.0059525  -0.0036308  -0.0004440   0.0006702
    2  -0.0022024   0.0012794  -0.0026153   0.0016865  -0.0021195   0.0019979
    3   0.0039087  -0.0016075   0.0047223  -0.0025692   0.0056425  -0.0040753
           67          68          69          70          71          72
    1   0.0005018   0.0006777   0.0028883  -0.0012676  -0.0018371  -0.0032547
    2   0.0001512   0.0003469   0.0012680  -0.0007533   0.0012047   0.0004042
    3   0.0000358  -0.0002999  -0.0031231   0.0020267  -0.0039061  -0.0023314
           73          74          75          76          77          78
    1  -0.0012808   0.0008599   0.0005897   0.0007091   0.0066013  -0.0039163
    2  -0.0011356   0.0003523  -0.0005400  -0.0007986   0.0013518  -0.0008825
    3   0.0031492  -0.0004056   0.0008832   0.0004924  -0.0032493   0.0025037
           79          80          81          82          83          84
    1  -0.0010717   0.0004168   0.0016984  -0.0014385   0.0010242   0.0014627
    2   0.0002707   0.0000344  -0.0002982  -0.0025485   0.0013760   0.0020418
    3  -0.0023547   0.0003442   0.0011921   0.0064031  -0.0028255  -0.0046099
           85          86          87          88          89          90
    1  -0.0006252  -0.0051568   0.0037043  -0.0057624   0.0044053  -0.0046406
    2  -0.0019032   0.0019864  -0.0014569   0.0017721  -0.0010970  -0.0008709
    3   0.0046143  -0.0036723   0.0033965  -0.0031907   0.0024736   0.0031803
           91          92          93          94          95          96
    1   0.0042113   0.0006017  -0.0006476   0.0006179  -0.0000508  -0.0010080
    2   0.0006590  -0.0001153  -0.0013801  -0.0032418   0.0004122   0.0010606
    3  -0.0015560  -0.0004973   0.0004946  -0.0021183   0.0004464   0.0004754
           97          98          99         100         101         102
    1   0.0009610  -0.0006314   0.0004974  -0.0015155   0.0019988  -0.0033077
    2   0.0039039  -0.0023851   0.0003099  -0.0004599  -0.0017266  -0.0007695
    3   0.0007034  -0.0001997   0.0002184   0.0018336  -0.0008032   0.0030703
          103         104         105         106         107         108
    1   0.0010548  -0.0062106   0.0027827  -0.0018526   0.0009688   0.0021517
    2  -0.0001414   0.0021799  -0.0010422   0.0031937  -0.0011123   0.0014636
    3   0.0001141   0.0008518   0.0002063  -0.0041669   0.0017547  -0.0057250
          109         110         111         112         113         114
    1   0.0000718   0.0012032  -0.0018012  -0.0025269   0.0002629   0.0014352
    2  -0.0002951  -0.0016805   0.0007422  -0.0010845   0.0001282  -0.0005487
    3   0.0006123   0.0017004  -0.0045718   0.0037011  -0.0008613   0.0066918
          115         116         117         118         119         120
    1  -0.0008737   0.0054866  -0.0022039   0.0055618  -0.0005457  -0.0023182
    2   0.0002387   0.0005032  -0.0001295   0.0005838  -0.0001054  -0.0001109
    3  -0.0028433   0.0018033  -0.0005904  -0.0031434   0.0002573  -0.0008074
          121         122         123         124         125         126
    1   0.0007314  -0.0012791   0.0009412  -0.0003199   0.0018718  -0.0013828
    2   0.0037241  -0.0026726  -0.0006065  -0.0002575  -0.0021327   0.0013076
    3   0.0013062   0.0005268   0.0002012  -0.0007800   0.0003809   0.0005584
          127         128         129         130         131         132
    1   0.0001115   0.0001141  -0.0001895   0.0002537  -0.0003889   0.0007696
    2   0.0007005  -0.0011404   0.0001143   0.0012136  -0.0000263   0.0010232
    3   0.0001758  -0.0008166   0.0003454   0.0002093   0.0008161   0.0016846
 Max gradient component =       6.692E-03
 RMS gradient           =       2.189E-03
 Computing fast IEFPCM-SWIG gradient.
 Updating gradient with PCM contributions...
 -- total gradient after adding PCM contribution --
---------------------------------------------------
  Atom         X              Y              Z     
---------------------------------------------------
   1      -0.000542      -0.000147       0.001561
   2       0.000024       0.000290      -0.001657
   3      -0.001567      -0.000210       0.000753
   4      -0.000415       0.000131       0.000077
   5      -0.000955      -0.000210      -0.000066
   6      -0.000141       0.000049       0.000113
   7       0.000243      -0.000113      -0.001039
   8       0.000056       0.000249       0.000250
   9       0.000675      -0.000185      -0.000093
  10      -0.000252       0.000175      -0.000016
  11      -0.000338      -0.000029      -0.001028
  12      -0.000164       0.000018       0.000757
  13      -0.001627       0.000629      -0.002614
  14       0.000725       0.000325      -0.000518
  15       0.000001      -0.000236       0.000351
  16       0.001259      -0.000353       0.000147
  17       0.000165      -0.000035       0.000117
  18      -0.000163      -0.000533       0.000952
  19      -0.000041      -0.000088       0.000308
  20      -0.001324      -0.000135       0.000761
  21       0.000069      -0.000127       0.000729
  22       0.000610      -0.000192       0.000340
  23       0.002356       0.000500      -0.001945
  24      -0.000558      -0.000022       0.000651
  25       0.000313       0.000685       0.000266
  26      -0.000287      -0.000939       0.000212
  27       0.000237      -0.000184       0.000118
  28       0.001083      -0.000994      -0.000900
  29       0.001172       0.000032      -0.001099
  30       0.000236       0.000027      -0.000575
  31      -0.000303       0.000026       0.000385
  32      -0.000148       0.000052       0.000161
  33      -0.000003       0.000078       0.000403
  34       0.000002       0.000162       0.000088
  35      -0.000593       0.000440       0.000330
  36       0.000020      -0.000101       0.000325
  37       0.000287       0.000206       0.000295
  38       0.000025       0.000041       0.000262
  39       0.000127      -0.000288       0.000177
  40      -0.000061       0.000062       0.000314
  41      -0.000215       0.000124      -0.000091
  42      -0.000087      -0.000315       0.000807
  43      -0.000356       0.000059      -0.000735
  44      -0.001485      -0.000118       0.000580
  45       0.000508      -0.000285       0.000644
  46      -0.000952      -0.000187      -0.000989
  47      -0.000445       0.000296      -0.002802
  48       0.000117       0.000703      -0.001290
  49       0.000555      -0.000215       0.000733
  50      -0.000083       0.000422      -0.000679
  51      -0.001008      -0.000086      -0.000162
  52       0.000437       0.000392      -0.000727
  53       0.000042       0.000091       0.000321
  54      -0.002107       0.000427      -0.003183
  55       0.000431      -0.000015       0.000262
  56       0.000080       0.000468      -0.001172
  57      -0.000862      -0.000250       0.001546
  58       0.000039      -0.000061       0.000454
  59       0.000885       0.000149       0.000188
  60       0.000154       0.000014       0.000171
  61       0.001208      -0.000619       0.001738
  62       0.000162      -0.000146       0.000422
  63       0.001611      -0.000513       0.001234
  64       0.000289      -0.000065       0.000279
  65       0.000102       0.000042       0.000952
  66       0.000027      -0.000054       0.000378
  67       0.000527       0.000391      -0.000033
  68      -0.000330       0.000304      -0.000219
  69       0.001032       0.000096      -0.000451
  70      -0.000614       0.000038       0.000147
  71      -0.001569       0.000582      -0.002532
  72      -0.001508       0.000271      -0.002290
  73       0.000343      -0.000218       0.001110
  74      -0.000372      -0.000026       0.000234
  75       0.000186      -0.000091      -0.000050
  76      -0.000285      -0.000451      -0.000114
  77       0.001607       0.000102      -0.000084
  78       0.000249      -0.000037       0.000407
  79      -0.000788       0.000170      -0.002190
  80       0.000229       0.000071       0.000228
  81       0.000523       0.000012       0.000503
  82       0.000282      -0.000372       0.001819
  83       0.000256      -0.000331       0.000426
  84       0.000739       0.000053       0.000124
  85       0.000157      -0.000021       0.000161
  86      -0.000924       0.000250       0.000106
  87      -0.000075      -0.000036       0.000302
  88      -0.000542       0.000518      -0.000607
  89       0.000071       0.000008       0.000144
  90      -0.000076      -0.000101       0.001209
  91       0.000034      -0.000112       0.000310
  92       0.000505      -0.000358      -0.000442
  93      -0.000244      -0.001294       0.000044
  94       0.001089      -0.000654      -0.001486
  95      -0.000350      -0.000684       0.000254
  96      -0.001792      -0.000423       0.000788
  97       0.000898       0.001016      -0.000601
  98      -0.000239       0.000129       0.000485
  99       0.000093       0.000432       0.000820
 100       0.000613       0.000430      -0.000524
 101       0.000135      -0.000994      -0.000835
 102      -0.000420      -0.000352       0.001059
 103      -0.000150       0.000393       0.000474
 104      -0.001179       0.000302       0.000783
 105      -0.000131      -0.000030       0.000227
 106       0.000105       0.000633      -0.000726
 107       0.000036       0.000098      -0.000035
 108       0.000965       0.000078      -0.001280
 109      -0.000079       0.000046      -0.000354
 110      -0.000934       0.000104       0.000018
 111      -0.001208       0.000622      -0.002766
 112      -0.001031      -0.000132       0.000477
 113       0.000244       0.000128       0.000656
 114      -0.000032      -0.000147       0.001504
 115       0.000022      -0.000110       0.000284
 116       0.001047       0.000214       0.000157
 117       0.000185      -0.000031       0.000154
 118       0.001092       0.000302      -0.001236
 119       0.000562      -0.000171       0.000187
 120       0.000215       0.000037       0.001184
 121       0.000341       0.000181       0.000221
 122       0.000018       0.000111       0.000170
 123      -0.000058      -0.000077       0.000200
 124      -0.000007      -0.000204       0.000254
 125       0.000593      -0.000121       0.000587
 126      -0.000080       0.000107      -0.000102
 127      -0.000116       0.000187       0.000368
 128      -0.000078      -0.000091       0.000310
 129      -0.000166       0.000317       0.000234
 130       0.000117      -0.000140       0.000196
 131       0.000213       0.000031       0.000012
 132       0.000801      -0.000266       0.001089
---------------------------------------------------
 Number of fixed atoms: 0
 Gradient time:  CPU 1928.97 s  wall 795.78 s
 Geometry Optimization Parameters
   NAtoms,    NIC,     NZ,  NCons,   NDum,   NFix, NCnnct, MaxDiis
      132    1060     132       0       0       0       0       0


** GEOMETRY OPTIMIZATION IN DELOCALIZED INTERNAL COORDINATES **
   Searching for a Minimum

   Optimization Cycle:   1

                       Coordinates (Angstroms)
     ATOM                X               Y               Z
      1  S         0.0000000000    0.0000000000    0.0000000000
      2  C         0.0000000000    0.0000000000    1.7564610000
      3  C         1.2035822048    0.0000000000    2.4437623199
      4  H         2.1260978772    0.1122082158    1.8886905888
      5  C         1.2303078844   -0.1661018897    3.8196144596
      6  H         2.1739462407   -0.1830443328    4.3474843641
      7  C         0.0341426938   -0.3106638820    4.5000448694
      8  H         0.0290208584   -0.4389000566    5.5752637023
      9  C        -1.1751569281   -0.2708919414    3.8233649158
     10  H        -2.0895239084   -0.3718397405    4.3898288638
     11  C        -1.2146807071   -0.1112261730    2.4368614877
     12  N        -2.4264792709   -0.0700562516    1.7285021453
     13  C        -2.5700968182    0.7189356993    0.5786226049
     14  C        -3.7816445260    1.3196157765    0.2425681474
     15  H        -4.6546099090    1.1672648000    0.8612743638
     16  C        -3.8890183582    2.1047755663   -0.8948536686
     17  H        -4.8451209088    2.5501994358   -1.1358901862
     18  C        -2.7897923231    2.3318020382   -1.7041811430
     19  H        -2.8691095160    2.9573488980   -2.5824674642
     20  C        -1.5802012290    1.7376889889   -1.3790962035
     21  H        -0.7077371589    1.8936336640   -2.0005520397
     22  C        -1.4770486085    0.9161336488   -0.2686922151
     23  C        -3.5917284605   -0.4430171693    2.4534119163
     24  C        -4.0348736687   -1.7505762146    2.3838083194
     25  H        -3.5304061748   -2.4432195117    1.7206345822
     26  C        -4.2219488101    0.4586606266    3.3001024273
     27  H        -3.8610022728    1.4797378471    3.3564072197
     28  C        -5.2639517919    0.0462345837    4.1181450126
     29  C        -5.0740209979   -2.1870467379    3.2004436402
     30  C        -5.6789659331   -1.2929197131    4.0897776621
     31  C        -5.8953693013    1.0132974324    5.0823575816
     32  H        -5.4323670936    1.9975461188    5.0246752059
     33  H        -6.9622683205    1.1384042814    4.8895289510
     34  H        -5.7986692672    0.6681183960    6.1148900529
     35  C        -5.5296554256   -3.6213166615    3.1319249430
     36  H        -4.7168239738   -4.2462743359    2.7547907600
     37  H        -5.7466551449   -3.9932188569    4.1382542568
     38  C        -6.7611258574   -3.8068918502    2.2483779017
     39  H        -7.6176260788   -3.2575946817    2.6389139510
     40  H        -6.5728304293   -3.4535494598    1.2343578978
     41  H        -7.0436834311   -4.8584373680    2.1903814039
     42  B        -6.6681021896   -1.7916370817    5.2051585174
     43  C        -8.2090146706   -1.6320910161    5.1018653088
     44  C        -8.7959696618   -1.0540576202    3.9713181145
     45  H        -8.1652693429   -0.7284426832    3.1510182065
     46  C       -10.1704531200   -0.8965805300    3.9040227087
     47  C       -10.9764119957   -1.3235437641    4.9817143277
     48  C       -10.4091367072   -1.9034178373    6.0995361621
     49  H       -11.0348294079   -2.2311773962    6.9226441270
     50  C        -9.0260401296   -2.0630424890    6.1752035517
     51  C       -12.3700179394   -1.0330022318    4.6657411047
     52  C       -13.5646110709   -1.2041698356    5.3140103337
     53  H       -13.6246297321   -1.6512865018    6.2990421490
     54  C       -12.3640125582   -0.4386064548    3.3917206761
     55  C       -13.5082946826   -0.0070238940    2.7326022041
     56  C       -11.0557731922   -0.3307095513    2.8818081995
     57  C       -10.8874088714    0.2361919170    1.6469132032
     58  H        -9.9084882482    0.3499806232    1.1985523127
     59  C       -14.7463360194   -0.7751888010    4.6668158853
     60  H       -15.6923458534   -0.9072904586    5.1754499573
     61  C       -14.7327568670   -0.1963059310    3.4190776182
     62  H       -15.6634774674    0.1174182674    2.9628246071
     63  C       -13.3050679523    0.5725168498    1.4577241861
     64  H       -14.1504048056    0.9309170415    0.8835207215
     65  C       -12.0331920537    0.6832873841    0.9460221117
     66  H       -11.8979458203    1.1299666762   -0.0299993761
     67  B        -8.3954000294   -2.7071987277    7.4419660882
     68  C        -6.8567745897   -2.8402682874    7.5529393645
     69  C        -6.2833180034   -3.3749418502    8.7084898171
     70  H        -6.9200994730   -3.7095423728    9.5208444654
     71  C        -4.9090595153   -3.4693040931    8.8152725034
     72  C        -4.0813539940   -3.0390373894    7.7552565038
     73  C        -4.6419787985   -2.5122982279    6.6069638521
     74  H        -4.0028049664   -2.1790149040    5.7982462907
     75  C        -6.0310413212   -2.4051793946    6.4895569560
     76  C        -4.0555552695   -3.9567966959    9.8982216895
     77  C        -4.2681385667   -4.4784175627   11.1477273410
     78  H        -5.2640125280   -4.6183756026   11.5502053377
     79  C        -2.7318622483   -3.8039624932    9.4468219897
     80  C        -1.6101430255   -4.1527082117   10.1909744176
     81  C        -2.6886193453   -3.2566714761    8.1515244362
     82  C        -1.4647127634   -3.0559702164    7.5695623213
     83  H        -1.3639247906   -2.6490807469    6.5707627161
     84  C        -3.1457617280   -4.8406115593   11.9290243707
     85  H        -3.3135993448   -5.2511776182   12.9162362962
     86  C        -1.8554562351   -4.6886235769   11.4785522303
     87  H        -1.0266840983   -4.9801202003   12.1121425639
     88  C        -0.3586695487   -3.9308452284    9.5690768988
     89  H         0.5572068358   -4.1800548468   10.0908555314
     90  C        -0.3035254804   -3.4020107959    8.3008141823
     91  H         0.6625529212   -3.2445524281    7.8397289618
     92  C        -9.3311716030   -3.2370965854    8.5902083561
     93  C        -9.7703615331   -2.3941562629    9.6130001301
     94  C       -10.6536445184   -2.8759058492   10.5760640991
     95  H       -11.0148120963   -2.2268438860   11.3661685058
     96  C       -11.0966952719   -4.1821225692   10.5331960350
     97  C       -10.6424823864   -5.0326121438    9.5326758712
     98  H       -10.9901914204   -6.0598725697    9.5104202473
     99  C        -9.7663569824   -4.5719665966    8.5617283041
    100  N       -12.0238542627   -4.6283526907   11.5176446674
    101  C       -11.5264516523   -5.3453304316   12.6159539168
    102  C       -10.2316991840   -5.8614159031   12.6372159100
    103  H        -9.5699237147   -5.7026984981   11.7983009496
    104  C        -9.7662938606   -6.5673956752   13.7364929170
    105  H        -8.7521179607   -6.9443517807   13.7268673999
    106  C       -10.5857995906   -6.8036906126   14.8257564890
    107  H       -10.2285370927   -7.3663427721   15.6773388690
    108  C       -11.8768230779   -6.3000745005   14.8146448954
    109  H       -12.5363406941   -6.4644332793   15.6574448719
    110  C       -12.3321848254   -5.5546069778   13.7394038012
    111  C       -13.3810871314   -4.6894621752   11.1654690035
    112  C       -13.8087482669   -4.6074819193    9.8415243371
    113  H       -13.0898948866   -4.4748556108    9.0462958021
    114  C       -15.1569846507   -4.6834369646    9.5255897395
    115  H       -15.4572541435   -4.6091939637    8.4887643304
    116  C       -16.1073916451   -4.8704864744   10.5135347833
    117  H       -17.1574295338   -4.9455596626   10.2664466822
    118  C       -15.6945559115   -4.9563175929   11.8334844673
    119  H       -16.4181209032   -5.0979290605   12.6263890337
    120  C       -14.3536695354   -4.8382059584   12.1600154337
    121  C        -9.2941844726   -5.4968952079    7.4756406788
    122  H        -9.7400654005   -6.4862875235    7.5701085481
    123  H        -8.2095888193   -5.6206988417    7.5006433713
    124  H        -9.5507249541   -5.1149877788    6.4849686134
    125  C        -9.2866279639   -0.9716899473    9.7271034764
    126  H       -10.1336412534   -0.3145962488    9.9418867657
    127  H        -8.8793548009   -0.6252448495    8.7731288897
    128  C        -8.2311319964   -0.8087394430   10.8181421496
    129  H        -7.3495305240   -1.4139381784   10.6066810495
    130  H        -7.9099059754    0.2297961275   10.8999956579
    131  H        -8.6185889931   -1.1154509264   11.7903170691
    132  S       -13.8860196754   -4.7424002892   13.8520802475
   Point Group: c1    Number of degrees of freedom:   390


   Energy is  -3799.462316308


 Attempting to Generate Delocalized Internal Coordinates

390 Hessian modes will be used to form the next step
  Hessian Eigenvalues:
     0.005612    0.005639    0.008280    0.008324    0.008580    0.008825
     0.009074    0.009231    0.010824    0.011137    0.011684    0.012466
     0.012721    0.015594    0.016273    0.016888    0.016957    0.016973
     0.017053    0.017501    0.017539    0.017603    0.017638    0.017931
     0.018094    0.018373    0.018403    0.018409    0.018630    0.019005
     0.019073    0.019108    0.019125    0.019409    0.019529    0.019696
[...]
     85  H        -3.1749258782   -5.5561539732   12.7411895796
     86  C        -1.7572424562   -5.0299445780   11.2487121713
     87  H        -0.9190072602   -5.4114501452   11.8185967694
     88  C        -0.3157142150   -4.2995448737    9.2812780679
     89  H         0.6073613764   -4.6402242492    9.7337562081
     90  C        -0.2941833326   -3.7231154870    8.0309770332
     91  H         0.6515082045   -3.6200155580    7.5151677861
     92  C        -9.3088105213   -3.1461757718    8.6774914456
     93  C        -9.7925503434   -2.2914071951    9.6692238907
     94  C       -10.6875906270   -2.7736401441   10.6223030303
     95  H       -11.0878980039   -2.1131007791   11.3836980673
     96  C       -11.0973363482   -4.0928249626   10.5918008307
     97  C       -10.6047570723   -4.9518877818    9.6161681053
     98  H       -10.9369952103   -5.9843642171    9.5964886040
     99  C        -9.7204282395   -4.4884270145    8.6544830062
    100  N       -12.0558606445   -4.5439159968   11.5443280853
    101  C       -11.5925473583   -5.2242728497   12.6796044224
    102  C       -10.2866927625   -5.7050790477   12.7693352945
    103  H        -9.5911908847   -5.5470911752   11.9574132719
    104  C        -9.8570172342   -6.3817892068   13.9015331511
    105  H        -8.8343859926   -6.7330194888   13.9453075492
    106  C       -10.7229963187   -6.6213701837   14.9556766086
    107  H       -10.3927240906   -7.1612461655   15.8326335094
    108  C       -12.0266243675   -6.1543558155   14.8748998281
    109  H       -12.7214014397   -6.3262253219   15.6876808957
    110  C       -12.4495609029   -5.4414728301   13.7633853776
    111  C       -13.3880138593   -4.6623594957   11.1195679879
    112  C       -13.7396707759   -4.6194915250    9.7701822105
    113  H       -12.9816097578   -4.4776698566    9.0134270412
    114  C       -15.0644087596   -4.7454706777    9.3768196363
    115  H       -15.3048592984   -4.6982680739    8.3226500624
    116  C       -16.0659825968   -4.9456780713   10.3119215103
    117  H       -17.0969815670   -5.0576690894   10.0049223019
    118  C       -15.7293381753   -4.9952228567   11.6564260107
    119  H       -16.4956440357   -5.1442142449   12.4070483862
    120  C       -14.4122805646   -4.8282774127   12.0573413573
    121  C        -9.2214609683   -5.4127763810    7.5790804835
    122  H        -9.6535597801   -6.4085225904    7.6720509477
    123  H        -8.1353672751   -5.5196525395    7.6163849554
    124  H        -9.4717065365   -5.0385882339    6.5834858925
    125  C        -9.3578039169   -0.8510638226    9.7398687500
    126  H       -10.2268353540   -0.2148333308    9.9270747161
    127  H        -8.9550281375   -0.5258194640    8.7761538408
    128  C        -8.3128465579   -0.6172191987   10.8270737627
    129  H        -7.4123288276   -1.2026958757   10.6388885421
    130  H        -8.0247538178    0.4333440078   10.8718475865
    131  H        -8.6954242976   -0.9012201497   11.8081281343
    132  S       -14.0398868178   -4.6879972076   13.7703881341
   Point Group: c1    Number of degrees of freedom:   390


   Energy is  -3799.462123404

 Hessian Updated using BFGS Update

377 Hessian modes will be used to form the next step
  Hessian Eigenvalues:
     0.005609    0.005636    0.007861    0.008304    0.008578    0.008825
     0.009222    0.009390    0.010523    0.011005    0.011379    0.012581
     0.012833    0.015353    0.016182    0.016356    0.016940    0.016971
     0.017034    0.017073    0.017503    0.017597    0.017696    0.017814
     0.018009    0.018243    0.018379    0.018537    0.018670    0.018815
     0.019010    0.019077    0.019190    0.019418    0.019613    0.019717
     0.019755    0.020067    0.020242    0.020325    0.020466    0.020505
     0.020782    0.020863    0.021077    0.021111    0.021215    0.021271
     0.021391    0.021440    0.021494    0.021612    0.021656    0.021702
     0.021769    0.021792    0.021938    0.022048    0.022309    0.022350
     0.022526    0.022530    0.022654    0.022708    0.022784    0.023075
     0.023179    0.023180    0.023217    0.023256    0.023498    0.023501
     0.023512    0.023567    0.023647    0.023662    0.023672    0.023677
     0.023723    0.023759    0.023824    0.023871    0.023886    0.023892
     0.023960    0.023983    0.023985    0.024002    0.024026    0.024046
     0.024074    0.024104    0.024256    0.024292    0.024316    0.024333
     0.024336    0.024341    0.024346    0.024349    0.024352    0.024367
     0.024371    0.024376    0.024395    0.024401    0.024406    0.024433
     0.024436    0.024440    0.024466    0.024468    0.024724    0.024864
     0.025053    0.025299    0.027134    0.041962    0.042410    0.055472
     0.055631    0.056076    0.056259    0.056376    0.056513    0.071389
     0.071855    0.072030    0.072259    0.093955    0.094828    0.128616
     0.129199    0.157959    0.159764    0.159815    0.159952    0.159965
     0.159967    0.159970    0.159973    0.159980    0.159981    0.159982
     0.159985    0.159989    0.159990    0.159991    0.159996    0.159996
     0.159997    0.159997    0.159998    0.159998    0.159999    0.159999
     0.159999    0.159999    0.159999    0.160000    0.160000    0.160000
     0.160000    0.160000    0.160000    0.160000    0.160000    0.160871
     0.218931    0.219021    0.219688    0.219963    0.219966    0.219994
     0.220399    0.220614    0.221590    0.222150    0.223863    0.225186
     0.225287    0.225450    0.227527    0.228559    0.229214    0.230104
     0.231583    0.232284    0.233812    0.233847    0.234417    0.234538
     0.234617    0.235306    0.237285    0.237595    0.239060    0.239851
     0.240108    0.241347    0.242825    0.245182    0.245374    0.245620
     0.246884    0.246922    0.247013    0.248632    0.248898    0.249022
     0.249174    0.249240    0.249607    0.249670    0.249720    0.249751
     0.249841    0.249884    0.249896    0.249900    0.249947    0.249954
     0.249977    0.249982    0.249984    0.249987    0.249990    0.249992
     0.257584    0.258606    0.265108    0.269086    0.271071    0.274438
     0.282828    0.287737    0.287796    0.290959    0.293776    0.297078
     0.297507    0.316704    0.317135    0.319158    0.321032    0.338812
     0.339265    0.341017    0.342359    0.342889    0.344021    0.344323
     0.344696    0.345285    0.345494    0.345929    0.346538    0.347482
     0.347676    0.347889    0.347945    0.348054    0.348269    0.348907
     0.349008    0.353973    0.354267    0.354287    0.354391    0.354612
     0.354655    0.355714    0.355842    0.355958    0.356092    0.356132
     0.356163    0.356186    0.356387    0.356446    0.356515    0.356670
     0.356687    0.356694    0.356985    0.357007    0.357214    0.357332
     0.357531    0.357552    0.357564    0.357592    0.357705    0.358268
     0.358279    0.358345    0.358506    0.359001    0.359584    0.359661
     0.359945    0.368494    0.370333    0.379079    0.390777    0.392535
     0.393301    0.400691    0.404445    0.409187    0.409519    0.415674
     0.415731    0.418147    0.418620    0.421450    0.424022    0.424111
     0.424647    0.425320    0.425828    0.427238    0.427950    0.428170
     0.428484    0.428750    0.429850    0.430102    0.431574    0.433070
     0.433442    0.433524    0.434367    0.434937    0.441239    0.444678
     0.448175    0.453894    0.456336    0.457556    0.457981    0.459867
     0.460256    0.461740    0.462100    0.466384    0.467106    0.469601
     0.470591    0.472996    0.473700    0.474126    0.474330    0.474565
     0.475482    0.476033    0.477398    0.479893    0.479960    0.480369
     0.481280    0.482034    0.482097    0.482224    0.482428    0.482584
     0.482993    0.483248    0.484339    0.484913    0.486256    0.486625
     0.492703    0.500030    0.500935    0.501621    0.506115

 Minimum Search - Taking Simple RFO Step
 Searching for Lamda that Minimizes Along All modes
 Value Taken    Lamda =  -0.00202584
 Calculated Step too Large.  Step scaled by  0.798369
 Step Taken.  Stepsize is  0.300000

                             Maximum     Tolerance    Cnvgd?
         Gradient           0.003082      0.000300      NO
         Displacement       0.191988      0.001200      NO
         Energy change      0.000193      0.000001      NO


 New Cartesian Coordinates Obtained by Inverse Iteration

 Displacement from previous Coordinates is:  4.421946
 Adding empirical dispersion correction 
 ----------------------------------------------------------------
 Doing -D3(BJ) with
 s6 =   1.00000
 s8 =   0.00000
 a1 =   0.48600
 a2 =   4.50000
 -D3 energy including 3body term =     -0.1319499268 hartrees
 ----------------------------------------------------------------
 Adding gCP correction 
 ----------------------------------------------------------------
 gCP energy =      0.1762031414 hartrees
 ----------------------------------------------------------------
             Standard Nuclear Orientation (Angstroms)
    I     Atom           X                Y                Z
 ----------------------------------------------------------------
    1      S       0.0467575819     0.1731970040     0.1869063387
    2      C       0.0343000040     0.2354674906     1.9467332349
    3      C       1.2382767049     0.2608815055     2.6355422874
    4      H       2.1634032856     0.3542238408     2.0801712631
    5      C       1.2586316365     0.1363303872     4.0168800269
    6      H       2.2007565898     0.1343018032     4.5478289259
    7      C       0.0585480298     0.0073608918     4.6975058273
    8      H       0.0498707531    -0.0973232551     5.7747378597
    9      C      -1.1503364909     0.0240536460     4.0163492031
   10      H      -2.0672616338    -0.0679367647     4.5807309182
   11      C      -1.1843306655     0.1407548122     2.6262927081
   12      N      -2.3944120269     0.1490991889     1.9118414701
   13      C      -2.5378309929     0.8807559489     0.7242629789
   14      C      -3.7602304981     1.4362205626     0.3427831308
   15      H      -4.6348457033     1.3097045270     0.9641330829
   16      C      -3.8819512335     2.1371933780    -0.8487772732
   17      H      -4.8475074472     2.5423368036    -1.1223992217
   18      C      -2.7861199152     2.3257786311    -1.6749487333
   19      H      -2.8772957451     2.8800579133    -2.5993447010
   20      C      -1.5643206508     1.7815262362    -1.3064321684
   21      H      -0.6980240104     1.9045805675    -1.9447671116
   22      C      -1.4477244890     1.0442277291    -0.1371559830
   23      C      -3.5681529644    -0.2374913248     2.6239375788
   24      C      -4.0087221655    -1.5440360649     2.5185933980
   25      H      -3.4968226560    -2.2257214071     1.8485391087
   26      C      -4.2280483556     0.6531850982     3.4598670659
   27      H      -3.8840612005     1.6793830109     3.5287357034
   28      C      -5.2891670090     0.2222998589     4.2455445829
   29      C      -5.0707185512    -1.9963284355     3.2972266725
   30      C      -5.6914732774    -1.1214718834     4.1955812695
   31      C      -5.9627791125     1.1782114641     5.1888735185
   32      H      -5.5034924068     2.1652201914     5.1537094621
   33      H      -7.0212413004     1.2962178775     4.9494985648
   34      H      -5.9068376765     0.8272712632     6.2223908987
   35      C      -5.5272349530    -3.4260100281     3.1577571020
   36      H      -4.6907400334    -4.0441366849     2.8234208679
   37      H      -5.8262235961    -3.8275638159     4.1307739179
   38      C      -6.6822313914    -3.5793479986     2.1698756772
   39      H      -7.5641235486    -3.0273420975     2.4955150513
   40      H      -6.4043174167    -3.2105177188     1.1817310289
   41      H      -6.9663085918    -4.6272992389     2.0682744244
   42      B      -6.6684195850    -1.6484246438     5.3081866906
   43      C      -8.2076910309    -1.5168838358     5.2178853720
   44      C      -8.8083346782    -1.0195715723     4.0580694018
   45      H      -8.1936199840    -0.7117758324     3.2185283854
   46      C     -10.1877705396    -0.9614792508     3.9670039658
   47      C     -10.9872502946    -1.3715805907     5.0595622997
   48      C     -10.4016125878    -1.8519941032     6.2155142967
   49      H     -11.0244893366    -2.1864407840     7.0371046514
   50      C      -9.0104553259    -1.9425608902     6.3044820081
   51      C     -12.3927876421    -1.2372997258     4.6759912598
   52      C     -13.5993045888    -1.4876727433     5.2803498023
   53      H     -13.6658104616    -1.8600149716     6.2952050566
   54      C     -12.3909186098    -0.7632460966     3.3512967178
   55      C     -13.5422325409    -0.5391633572     2.5982749053
   56      C     -11.0813051930    -0.5755975496     2.8706744750
   57      C     -10.9175561174    -0.1435253447     1.5778945539
   58      H      -9.9373415866     0.0092464576     1.1434834433
   59      C     -14.7870477266    -1.2588560803     4.5424132622
   60      H     -15.7380891684    -1.4581246067     5.0190961734
   61      C     -14.7745713082    -0.8026301066     3.2435991178
   62      H     -15.7074205366    -0.6510823813     2.7136878502
   63      C     -13.3462314607    -0.0900610251     1.2691946468
   64      H     -14.1988996115     0.0987480013     0.6278284539
   65      C     -12.0700246550     0.0957474019     0.7891508634
   66      H     -11.9362206701     0.4315315762    -0.2311550991
   67      B      -8.3579116121    -2.5564692582     7.5765322469
   68      C      -6.8140831321    -2.7143517958     7.6594208519
   69      C      -6.2124787970    -3.3041209863     8.7776860411
   70      H      -6.8251228774    -3.6309684444     9.6109472905
   71      C      -4.8432341137    -3.5179717825     8.7959340663
   72      C      -4.0550750658    -3.1244018652     7.6926202493
   73      C      -4.6339756304    -2.5000726346     6.6045380704
   74      H      -4.0161210739    -2.2044446962     5.7645662023
   75      C      -6.0150313896    -2.2960005189     6.5673030762
   76      C      -3.9648337578    -4.1677747844     9.7692278366
   77      C      -4.1380227915    -4.7605546582    10.9920512190
   78      H      -5.1059299003    -4.8044425048    11.4761429174
   79      C      -2.6769179144    -4.1624439372     9.1982171363
   80      C      -1.5548726601    -4.7347166679     9.7841921820
   81      C      -2.6780921409    -3.5379028930     7.9373078170
   82      C      -1.5097706090    -3.4775879111     7.2247489306
   83      H      -1.4589640201    -3.0223619705     6.2424103925
   84      C      -3.0103000361    -5.3402899727    11.6219930819
   85      H      -3.1454589256    -5.8106291001    12.5871215450
   86      C      -1.7575507502    -5.3384507610    11.0496562829
   87      H      -0.9280780972    -5.8056073886    11.5659368296
   88      C      -0.3556546650    -4.6589864056     9.0326032373
   89      H       0.5572014659    -5.0892337911     9.4254552593
   90      C      -0.3485033191    -4.0493236975     7.7971804171
   91      H       0.5754563147    -4.0095586436     7.2351847341
   92      C      -9.2983678499    -3.0770037045     8.7216057658
   93      C      -9.7656464843    -2.2124563725     9.7124602067
   94      C     -10.6601127934    -2.6791386461    10.6745289604
   95      H     -11.0435173197    -2.0100754482    11.4370693453
   96      C     -11.0919346683    -3.9913155158    10.6430932308
   97      C     -10.6190089352    -4.8595590597     9.6655765982
   98      H     -10.9700948286    -5.8857085720     9.6465548967
   99      C      -9.7313182841    -4.4129466074     8.6988338749
  100      N     -12.0546185918    -4.4306790815    11.5988695818
  101      C     -11.5912266618    -5.1504751312    12.7093813186
  102      C     -10.2990992798    -5.6726625462    12.7575000858
  103      H      -9.6182037496    -5.5175403936    11.9324803135
  104      C      -9.8668294436    -6.3893812291    13.8640097953
  105      H      -8.8550125898    -6.7729504235    13.8769245085
  106      C     -10.7180331562    -6.6270756007    14.9316730455
  107      H     -10.3855199660    -7.1964335211    15.7889802699
  108      C     -12.0089951607    -6.1202980654    14.8908235857
  109      H     -12.6901161520    -6.2902388534    15.7155359556
  110      C     -12.4328648248    -5.3702164552    13.8040034804
  111      C     -13.3980640796    -4.5047996971    11.1935422796
  112      C     -13.7805607226    -4.4108680158     9.8526528631
  113      H     -13.0411992535    -4.2667257237     9.0785611791
  114      C     -15.1172494416    -4.4843638511     9.4862377065
  115      H     -15.3788564595    -4.3966943713     8.4395698976
  116      C     -16.1048486269    -4.6815183765    10.4372463340
  117      H     -17.1455193580    -4.7507593652    10.1505278992
  118      C     -15.7405925538    -4.7799320864    11.7718496914
  119      H     -16.4959184203    -4.9228262135    12.5347799174
  120      C     -14.4099525059    -4.6646475669    12.1464814279
  121      C      -9.2690231170    -5.3417434897     7.6106836858
  122      H      -9.7246658373    -6.3270627482     7.7029203585
  123      H      -8.1856696353    -5.4756947805     7.6291165430
  124      H      -9.5255779880    -4.9537441990     6.6217977536
  125      C      -9.3036914111    -0.7808970320     9.7703781828
  126      H     -10.1528306932    -0.1288447936     9.9906951704
  127      H      -8.9316673221    -0.4629963212     8.7919049949
  128      C      -8.2104092751    -0.5710879267    10.8138739919
  129      H      -7.3337965391    -1.1805055082    10.5893499734
  130      H      -7.8946384567     0.4720923096    10.8440675728
  131      H      -8.5597849441    -0.8446137437    11.8101956992
  132      S     -14.0019530318    -4.5741197706    13.8552466413
 ----------------------------------------------------------------
 Nuclear Repulsion Energy = 12495.8732107209 hartrees
 There are      276 alpha and      276 beta electrons
 Discretize the solute cavity surface with Lebedev spheres
	Using 302 Lebedev grid points for each H atom
	Using 302 Lebedev grid points for other atoms
	Atomic van der Waals radii will be scaled by 1.20
 Remove points where switching function is < 1.0e-08
 Keep 13767 surface tesserae and discard 26097 interior tesserae
 Molecular Surface Area = 1055.753 Angst**2
 Nucleus-field energy     =    -0.0000003110 hartrees
 Requested basis set is def2-mSVP
 There are 666 shells and 1310 basis functions
 A cutoff of  1.0D-12 yielded  65101 shell pairs
 There are    259311 function pairs (    285529 Cartesian)
 Smallest overlap matrix eigenvalue = 1.94E-04
 Guess MOs from SCF MO coefficient file
 Reading MOs from coefficient file
 Reading MOs from coefficient file
 A restricted hybrid HF-DFT SCF calculation will be
 performed using Pulay DIIS extrapolation
 Polarizable Continuum solvation model will be applied
 Exchange:     0.4200 Hartree-Fock + 0.5800 PBEh-3c
 Correlation:  1.0000 PBEh-3c
 Using SG-1 standard quadrature grid
 Dispersion:   Grimme D3
 SCF converges when DIIS error is below 1.0E-09
 Geometry optimization detected.  Setting ReadMinima to 0
 Setting SaveMinima to 0
 using 4 threads for integral computing
 -------------------------------------------------------
 OpenMP Integral computing Module                
 Release: version 1.0, May 2013, Q-Chem Inc. Pittsburgh 
 -------------------------------------------------------
 ---------------------------------------
  Cycle       Energy         DIIS Error
 ---------------------------------------
    1   -3799.3103400343      8.85E-04
 Using non-symmetric K matrix
    2   -3799.4520853220      1.42E-04
    3   -3799.4562705381      1.40E-04
    4   -3799.4606776331      3.85E-05
    5   -3799.4609950367      1.61E-05
    6   -3799.4610489714      6.97E-06
    7   -3799.4610601574      1.55E-06
    8   -3799.4610607379      6.14E-07
