mFile = /cm/shared/apps/q-chem/intel/QCHEM_5.0.1_Trunk/bin/mpi/machines
Process 0 of 1 is on ctcp026 - thread support 0
initial socket setup ...start
initial socket setup ...done 
now start server 0 ... 
ctcp026.cm.cluster 10.141.0
Q-Chem Developer Version! Running on 10.141.0.*
                  Welcome to Q-Chem
     A Quantum Leap Into The Future Of Chemistry


 Q-Chem 5.0, Q-Chem, Inc., Pleasanton, CA (2017)

 Yihan Shao,  Zhengting Gan,  E. Epifanovsky,  A. T. B. Gilbert,  M. Wormit,  
 J. Kussmann,  A. W. Lange,  A. Behn,  Jia Deng,  Xintian Feng,  D. Ghosh,  
 M. Goldey,  P. R. Horn,  L. D. Jacobson,  I. Kaliman,  T. Kus,  A. Landau,  
 Jie Liu,  E. I. Proynov,  R. M. Richard,  R. P. Steele,  E. J. Sundstrom,  
 H. L. Woodcock III,  P. M. Zimmerman,  D. Zuev,  B. Albrecht,  E. Alguire,  
 S. A. Baeppler,  Z. Benda,  Y. A. Bernard,  E. J. Berquist,  K. B. Bravaya,  
 D. Casanova,  Chun-Min Chang,  Yunqing Chen,  A. Chien,  K. D. Closser,  
 M. P. Coons,  S. Dasgupta,  M. Diedenhofen,  Hainam Do,  R. G. Edgar,  
 Po-Tung Fang,  S. Fatehi,  Qingguo Feng,  Qinghui Ge,  A. Ghysels,  
 J. Gomes,  J. Gonthier,  A. Gunina,  M. W. D. Hanson-Heine,  
 P. H. P. Harbach,  A. W. Hauser,  J. E. Herr,  E. G. Hohenstein,  
 Z. C. Holden,  Kerwin Hui,  T.-C. Jagau,  Hyunjun Ji,  B. Kaduk,  
 K. Khistyaev,  Jaehoon Kim,  P. Klunzinger,  K. Koh,  D. Kosenkov,  
 T. Kowalczyk,  C. M. Krauter,  A. Kunitsa,  Ka Un Lao,  A. Laurent,  
 K. V. Lawler,  Joonho Lee,  D. Lefrancois,  S. Lehtola,  D. S. Levine,  
 Yi-Pei Li,  You-Sheng Lin,  Fenglai Liu,  E. Livshits,  A. Luenser,  
 P. Manohar,  E. Mansoor,  S. F. Manzer,  Shan-Ping Mao,  Yuezhi Mao,  
 N. Mardirossian,  A. V. Marenich,  L. A. Martinez-Martinez,  S. A. Maurer,  
 N. J. Mayhall,  S. C. McKenzie,  J.-M. Mewes,  A. F. Morrison,  K. Nanda,  
 T. S. Nguyen-Beck,  R. Olivares-Amaya,  J. A. Parkhill,  T. M. Perrine,  
 F. Plasser,  S. Prager,  A. Prociuk,  D. R. Rehn,  F. Rob,  M. Schneider,  
 N. Sergueev,  S. M. Sharada,  S. Sharma,  D. W. Small,  T. Stauch,  
 T. Stein,  Yu-Chuan Su,  A. J. W. Thom,  T. Tsuchimochi,  L. Vogt,  
 O. Vydrov,  M. A. Watson,  J. Wenzel,  M. de Wergifosse,  T. A. Wesolowski,  
 A. White,  J. Witte,  A. Yamada,  Jun Yang,  K. Yao,  S. Yeganeh,  
 S. R. Yost,  Zhi-Qiang You,  A. Zech,  Igor Ying Zhang,  Xing Zhang,  
 Yan Zhao,  Ying Zhu,  B. R. Brooks,  G. K. L. Chan,  C. J. Cramer,  
 M. S. Gordon,  W. J. Hehre,  A. Klamt,  M. W. Schmidt,  C. D. Sherrill,  
 D. G. Truhlar,  A. Aspuru-Guzik,  R. Baer,  A. T. Bell,  N. A. Besley,  
 Jeng-Da Chai,  A. Dreuw,  B. D. Dunietz,  T. R. Furlani,  Chao-Ping Hsu,  
 Yousung Jung,  Jing Kong,  D. S. Lambrecht,  WanZhen Liang,  C. Ochsenfeld,  
 V. A. Rassolov,  L. V. Slipchenko,  J. E. Subotnik,  T. Van Voorhis,  
 J. M. Herbert,  A. I. Krylov,  P. M. W. Gill,  M. Head-Gordon

 Contributors to earlier versions of Q-Chem not listed above: 
 R. D. Adamson,  B. Austin,  J. Baker,  G. J. O. Beran,  K. Brandhorst,  
 S. T. Brown,  E. F. C. Byrd,  A. K. Chakraborty,  C.-L. Cheng,  
 Siu Hung Chien,  D. M. Chipman,  D. L. Crittenden,  H. Dachsel,  
 R. A. DiStasio Jr.,  R. J. Doerksen,  A. D. Dutoi,  L. Fusti-Molnar,  
 W. A. Goddard III,  A. Golubeva-Zadorozhnaya,  S. R. Gwaltney,  G. Hawkins,  
 A. Heyden,  S. Hirata,  G. Kedziora,  F. J. Keil,  C. Kelley,  Jihan Kim,  
 R. A. King,  R. Z. Khaliullin,  P. P. Korambath,  W. Kurlancheek,  
 A. M. Lee,  M. S. Lee,  S. V. Levchenko,  Ching Yeh Lin,  D. Liotard,  
 R. C. Lochan,  I. Lotan,  P. E. Maslen,  N. Nair,  D. P. O'Neill,  
 D. Neuhauser,  E. Neuscamman,  C. M. Oana,  R. Olson,  B. Peters,  
 R. Peverati,  P. A. Pieniazek,  Y. M. Rhee,  J. Ritchie,  M. A. Rohrdanz,  
 E. Rosta,  N. J. Russ,  H. F. Schaefer III,  N. E. Schultz,  N. Shenvi,  
 A. C. Simmonett,  A. Sodt,  D. Stuck,  K. S. Thanthiriwatte,  V. Vanovschi,  
 Tao Wang,  A. Warshel,  C. F. Williams,  Q. Wu,  X. Xu,  W. Zhang

 Please cite Q-Chem as follows:
 Y. Shao et al., Mol. Phys. 113, 184-215 (2015)
 DOI: 10.1080/00268976.2014.952696

 Q-Chem 5.0.1 for Intel X86 EM64T Linux

 Parts of Q-Chem use Armadillo 5.200.1 (Boston Tea Smuggler).
 http://arma.sourceforge.net/

 Q-Chem begins on Wed Oct 24 20:45:14 2018  

Host: ctcp026
0

     Scratch files written to /scratch/mewes/138300/qchem74535//
 Parallel job on  1  processors
The previous job contains 0 fragments, simply inherited here
Symmetry turned off for PCM/SM12/SMD calculation

Checking the input file for inconsistencies... 	...done.

--------------------------------------------------------------
User input:
--------------------------------------------------------------
$rem
threads 4
jobtype	opt
method PBEh-3c
basis def2-mSVP
mem_static	1024
mem_total	4000
sym_ignore	true
scf_convergence	9
solvent_method	pcm
$end

$molecule
read gsopt.mol
$end

$solvent
dielectric	8.93 
$end

$pcm
theory iefpcm
$end
--------------------------------------------------------------
 Adding empirical dispersion correction 
 ----------------------------------------------------------------
 Doing -D3(BJ) with
 s6 =   1.00000
 s8 =   0.00000
 a1 =   0.48600
 a2 =   4.50000
 -D3 energy including 3body term =     -0.0962387435 hartrees
 ----------------------------------------------------------------
 Adding gCP correction 
 ----------------------------------------------------------------
 gCP energy =      0.1524426683 hartrees
 ----------------------------------------------------------------
             Standard Nuclear Orientation (Angstroms)
    I     Atom           X                Y                Z
 ----------------------------------------------------------------
    1      C       0.0000000000     0.0000000000     0.0000000000
    2      C       0.0000000000     0.0000000000     1.3978960000
    3      H       0.9412462225     0.0000000000     1.9360806975
    4      C      -1.1947814913    -0.0595104967     2.0875737963
    5      C      -2.4168610964    -0.1530119778     1.3852269249
    6      C      -2.4276371305    -0.1468403787     0.0043647626
    7      H      -3.3617658954    -0.2490713641    -0.5369272955
    8      C      -1.2247971873    -0.0531637863    -0.7026245093
    9      C      -1.4846158277    -0.1555170999     3.5194075821
   10      C      -0.7347188355    -0.1721574223     4.6654852595
   11      H       0.3427305260    -0.0676222146     4.6454462642
   12      C      -2.8773698484    -0.3208090706     3.6270787999
   13      C      -3.5519234285    -0.5212378768     4.8269563917
   14      C      -3.4931883247    -0.3338675170     2.3619536827
   15      C      -4.8432826315    -0.5583275780     2.2944630376
   16      H      -5.3705973893    -0.5993244796     1.3495128748
   17      C      -1.3951125232    -0.3496536746     5.9042967980
   18      H      -0.8014568575    -0.3638167740     6.8089977128
   19      C      -2.7559756933    -0.5214226819     5.9971360722
   20      H      -3.2166466391    -0.6712186596     6.9660429340
   21      C      -5.5580246506    -0.7583013085     3.4994487968
   22      H      -6.6235754222    -0.9396042186     3.4440655859
   23      C      -4.9470033968    -0.7409182331     4.7308176173
   24      H      -5.5327184446    -0.9097859184     5.6262808028
   25      B      -1.2232209851    -0.1248265642    -2.2561417093
   26      B       1.3455201432    -0.0932141885    -0.7756946139
   27      C       1.3526628012     0.0316181824    -2.3278414633
   28      C       2.5588022158     0.0429620106    -3.0358598828
   29      H       3.4966274394     0.0190536769    -2.4917269130
   30      C       2.5513743594     0.0246327737    -4.4184424395
   31      C       1.3243350854    -0.0333835186    -5.1159610749
   32      C       0.1275933878    -0.0403176530    -4.4265666084
   33      H      -0.8129181985    -0.1190583755    -4.9610099844
   34      C       0.1246109033    -0.0031481590    -3.0297022297
   35      C       1.6121767912    -0.1985158970    -6.5384443507
   36      C       0.8538842239    -0.4045883479    -7.6598131297
   37      H      -0.2284585429    -0.4184842989    -7.6236466380
   38      C       3.0136933508    -0.2201046625    -6.6553672906
   39      C       3.6922351328    -0.4469614126    -7.8469547611
   40      C       3.6340871553    -0.0779402891    -5.3996417203
   41      C       5.0009142549    -0.1347134824    -5.3387766631
   42      H       5.5353668816    -0.0496001791    -4.4008974420
   43      C       1.5166188252    -0.6253482287    -8.8897696764
   44      H       0.9192974616    -0.7930211243    -9.7764879565
   45      C       2.8875024771    -0.6486941959    -8.9940720286
   46      H       3.3508582909    -0.8354848689    -9.9550582837
   47      C       5.7228258236    -0.3329534953    -6.5399556568
   48      H       6.8028116561    -0.3795610551    -6.4904949655
   49      C       5.1042523469    -0.4910441767    -7.7578564947
   50      H       5.6990672828    -0.6627125160    -8.6465258969
   51      C       2.6511983885    -0.4578581997     0.0142143258
   52      C       3.6031894266     0.5012601528     0.3590994077
   53      C       4.7450122487     0.1490898722     1.0793072411
   54      H       5.4573076920     0.9252596351     1.3314595106
   55      C       4.9505719949    -1.1690235400     1.4585351849
   56      O       6.0221882386    -1.6127341761     2.1483601387
   57      C       4.0028467111    -2.1311786309     1.1203400399
   58      H       4.1723893555    -3.1591182842     1.4208246615
   59      C       2.8645275913    -1.7915929719     0.4123975855
   60      C       7.0167584750    -0.6925126030     2.5061745445
   61      H       7.7813179337    -1.2521806142     3.0411446768
   62      H       6.6381861928     0.0948268363     3.1664638985
   63      H       7.4797366372    -0.2198217050     1.6335561132
   64      C       3.3864142604     1.9555760607     0.0291462960
   65      H       4.3481525283     2.4343709494    -0.1735045637
   66      H       2.8040366366     2.0545737263    -0.8911280462
   67      C       1.9013424644    -2.8891351224     0.0316629671
   68      H       1.9433225521    -3.6819562345     0.7827816465
   69      H       0.8721086526    -2.5218139845     0.0512146509
   70      C       2.6772863259     2.7049087708     1.1555075309
   71      H       1.6809362856     2.3001829789     1.3329921558
   72      H       2.5650986513     3.7625602702     0.9147586295
   73      H       3.2351546205     2.6303869284     2.0897996483
   74      C       2.2000968795    -3.4861591577    -1.3425137951
   75      H       2.1310465954    -2.7354040570    -2.1298548560
   76      H       3.2047388539    -3.9085660487    -1.3767087808
   77      H       1.4928927054    -4.2821595705    -1.5805926179
   78      C      -2.5645530306    -0.4003713850    -3.0261501349
   79      C      -2.8704855949    -1.6996591170    -3.4395332487
   80      C      -4.0637056050    -1.9700877878    -4.1074187675
   81      H      -4.2640267338    -2.9901040502    -4.4132875518
   82      C      -4.9686856831    -0.9513568344    -4.3666971768
   83      O      -6.1437753824    -1.1193397312    -5.0091361356
   84      C      -4.6752881388     0.3434513873    -3.9481767549
   85      H      -5.3875082880     1.1346780322    -4.1529611246
   86      C      -3.4920716117     0.6216134516    -3.2857337631
   87      C      -6.4787524119    -2.4023143503    -5.4649188224
   88      H      -7.4461782475    -2.3159250633    -5.9554031471
   89      H      -6.5680015074    -3.1255814791    -4.6475303920
   90      H      -5.7554420120    -2.7884643249    -6.1909194607
   91      C      -3.1881127570     2.0476157969    -2.9083302468
   92      H      -4.1211031116     2.5794521459    -2.7056994660
   93      H      -2.6166856062     2.0824509379    -1.9764856199
   94      C      -1.9616243257    -2.8592264971    -3.1139892956
   95      H      -0.9268680413    -2.5217302493    -3.0126612488
   96      H      -1.9577478056    -3.5685513294    -3.9462840399
   97      C      -2.4171546162     2.7813818391    -4.0030347905
   98      H      -1.4493995717     2.3149328948    -4.1871167778
   99      H      -2.9720164590     2.7757694607    -4.9416120376
  100      H      -2.2354193654     3.8199720295    -3.7247924282
  101      C      -2.3793572058    -3.5835174235    -1.8352841078
  102      H      -2.3671709163    -2.9098999832    -0.9780403067
  103      H      -3.3882839003    -3.9883064019    -1.9220068563
  104      H      -1.7038925759    -4.4119403823    -1.6172450800
 ----------------------------------------------------------------
 Nuclear Repulsion Energy =  7631.1316720726 hartrees
 There are      198 alpha and      198 beta electrons
 Requested basis set is def2-mSVP
 There are 498 shells and 962 basis functions

 Total QAlloc Memory Limit   4000 MB
 Mega-Array Size      1001 MB
 MEM_STATIC part      1024 MB
 Discretize the solute cavity surface with Lebedev spheres
	Using 302 Lebedev grid points for each H atom
	Using 302 Lebedev grid points for other atoms
	Atomic van der Waals radii will be scaled by 1.20
 Remove points where switching function is < 1.0e-08
 Keep 10975 surface tesserae and discard 20433 interior tesserae
 Molecular Surface Area = 794.522 Angst**2
 A cutoff of  1.0D-12 yielded  48555 shell pairs
 There are    188531 function pairs (    207494 Cartesian)
 
 -------------------------------------------------------
 OpenMP Integral Computing Module                       
 Release: version 1.0, May 2013, Q-Chem Inc. Pittsburgh 
 -------------------------------------------------------
 Integral Job Info:
 Integral job number is                      11
 Integral operator is                         1
 short-range coefficients                     0
 long-range coefficients              100000000
 Omega coefficients                           0
 if combine SR and LR in K                    0
 Integral screening is                        0
 Integral computing path is                   2
 max size of driver memory is            800000
 size of driver memory is                593474
 size of scratch memory is              1809772
 max col of scratch BK array               1296
 max len of scratch array in speh3          155
 max len of scratch index in speh4           18
 max int batch size is                      520
 min int batch size is                       52
 fixed nKL is                                52
 max L of basis functions is                  2
 order of int derivative is                   0
 number of shells is                        498
 number of basis is                        1020
 number of cartesian basis is              1020
 number of contracted shell pairs         48555
 number of primitive shell pairs         100900
 maxK2 (contraction) of shell pair           25
 max number of K2 of shell pair               1
 max number of CS2 of shell pair          11912
 max number of PS2 of shell pair          17825
 mem total for path MDJ                  490248
 -------------------------------------------------------
 Smallest overlap matrix eigenvalue = 1.97E-04

 Scale SEOQF with 1.000000e-02/1.000000e-01/1.000000e-02

 Standard Electronic Orientation quadrupole field applied
 Nucleus-field energy     =     0.0000000030 hartrees
 Guess from superposition of atomic densities
 Warning:  Energy on first SCF cycle will be non-variational
 A restricted hybrid HF-DFT SCF calculation will be
 performed using Pulay DIIS extrapolation
 Polarizable Continuum solvation model will be applied
 Exchange:     0.4200 Hartree-Fock + 0.5800 PBEh-3c
 Correlation:  1.0000 PBEh-3c
 Using SG-1 standard quadrature grid
 Dispersion:   Grimme D3
 SCF converges when DIIS error is below 1.0E-09
 using 4 threads for integral computing
 -------------------------------------------------------
 OpenMP Integral computing Module                
 Release: version 1.0, May 2013, Q-Chem Inc. Pittsburgh 
 -------------------------------------------------------
 ---------------------------------------
  Cycle       Energy         DIIS Error
 ---------------------------------------
    1   -2300.0351361693      2.70E-02
 Using non-symmetric K matrix
    2   -2280.2890109104      1.85E-03
    3   -2280.5097615227      1.37E-03
    4   -2280.7178284136      3.85E-04
    5   -2280.7330186442      1.80E-04
    6   -2280.7370402224      4.14E-05
    7   -2280.7372351184      1.23E-05
    8   -2280.7372529918      3.37E-06
    9   -2280.7372545005      8.26E-07
   10   -2280.7372546343      3.35E-07
   11   -2280.7372546559      9.33E-08
   12   -2280.7372546593      4.80E-08
   13   -2280.7372546614      1.34E-08
   14   -2280.7372546621      5.96E-09
   15   -2280.7372546624      1.79E-09
   16   -2280.7372546571      1.01E-09
   17   -2280.7372546625      2.96E-10 Convergence criterion met
 ---------------------------------------

************** Final PCM Free Energy Summary **************
 G_electrostatic  =      -0.02893871 hartree =     -18.15931422 kcal/mol
 G_cavitation     =       0.00000000 hartree =       0.00000000 kcal/mol
 G_dispersion     =       0.00000000 hartree =       0.00000000 kcal/mol
 G_repulsion      =       0.00000000 hartree =       0.00000000 kcal/mol
 --------------------------------------------------
 Non-electrostatic Free Energy =       0.00000000 hartree =       0.00000000 kcal/mol
 Total                         =      -0.02893871 hartree =     -18.15931422 kcal/mol
 --------------------------------------------------
 SCF Energy (H0 + V/2)                       =   -2280.73725466 
 Solute Internal Energy (H0)                 =   -2280.70831595 
 Total Free Energy (H0 + V/2 + non-elec)     =   -2280.73725466 hartree
                                             = -1431184.22816329 kcal/mol
***********************************************************

 SCF time:  CPU 6759.09 s  wall 2904.13 s
 SCF   energy in the final basis set = -2280.73725466
 Total energy in the final basis set = -2280.73725466
 
 --------------------------------------------------------------
 
                    Orbital Energies (a.u.)
 --------------------------------------------------------------
 
 Alpha MOs
 -- Occupied --
-19.528 -19.528 -10.505 -10.505 -10.482 -10.482 -10.466 -10.466
-10.465 -10.465 -10.465 -10.465 -10.464 -10.464 -10.464 -10.464
-10.463 -10.462 -10.462 -10.462 -10.461 -10.461 -10.461 -10.460
-10.458 -10.458 -10.457 -10.457 -10.456 -10.455 -10.455 -10.455
-10.453 -10.453 -10.453 -10.453 -10.449 -10.448 -10.437 -10.437
-10.436 -10.436 -10.436 -10.436 -10.435 -10.435 -10.434 -10.433
-10.433 -10.432 -10.422 -10.421 -10.420 -10.420 -10.420 -10.420
 -6.952  -6.952  -1.185  -1.185  -1.019  -1.018  -0.966  -0.962
 -0.959  -0.957  -0.934  -0.934  -0.911  -0.903  -0.890  -0.890
 -0.869  -0.866  -0.856  -0.856  -0.847  -0.847  -0.826  -0.822
 -0.820  -0.814  -0.813  -0.807  -0.803  -0.803  -0.774  -0.773
 -0.736  -0.729  -0.727  -0.721  -0.713  -0.713  -0.705  -0.704
 -0.689  -0.682  -0.680  -0.666  -0.659  -0.649  -0.648  -0.647
 -0.632  -0.632  -0.594  -0.594  -0.590  -0.587  -0.585  -0.584
 -0.583  -0.576  -0.574  -0.565  -0.564  -0.546  -0.543  -0.538
 -0.534  -0.533  -0.528  -0.523  -0.514  -0.508  -0.505  -0.504
 -0.503  -0.502  -0.500  -0.496  -0.495  -0.491  -0.490  -0.488
 -0.487  -0.485  -0.484  -0.482  -0.481  -0.479  -0.477  -0.466
 -0.463  -0.461  -0.460  -0.458  -0.454  -0.453  -0.443  -0.439
 -0.437  -0.437  -0.435  -0.431  -0.430  -0.429  -0.426  -0.420
 -0.413  -0.413  -0.410  -0.407  -0.401  -0.401  -0.398  -0.397
 -0.396  -0.394  -0.393  -0.392  -0.391  -0.388  -0.383  -0.383
 -0.380  -0.374  -0.365  -0.364  -0.361  -0.359  -0.356  -0.352
 -0.342  -0.341  -0.320  -0.315  -0.297  -0.296  -0.284  -0.279
 -0.279  -0.264  -0.260  -0.258  -0.254  -0.252
 -- Virtual --
 -0.093  -0.060  -0.040  -0.031  -0.007   0.004   0.012   0.020
  0.023   0.032   0.035   0.044   0.066   0.080   0.083   0.090
  0.110   0.122   0.144   0.150   0.152   0.153   0.157   0.159
  0.161   0.163   0.164   0.165   0.167   0.168   0.172   0.177
  0.182   0.185   0.186   0.188   0.191   0.193   0.198   0.201
  0.202   0.202   0.204   0.205   0.207   0.207   0.210   0.213
  0.215   0.216   0.218   0.220   0.222   0.223   0.223   0.226
  0.227   0.230   0.230   0.232   0.234   0.235   0.239   0.240
  0.243   0.246   0.250   0.250   0.251   0.253   0.254   0.256
  0.262   0.265   0.269   0.270   0.272   0.275   0.282   0.284
  0.286   0.287   0.289   0.291   0.296   0.300   0.304   0.311
  0.313   0.313   0.313   0.316   0.321   0.326   0.327   0.330
  0.335   0.337   0.340   0.344   0.350   0.354   0.357   0.363
  0.370   0.380   0.388   0.396   0.397   0.402   0.405   0.412
  0.417   0.420   0.423   0.427   0.432   0.443   0.448   0.454
  0.455   0.460   0.462   0.469   0.475   0.480   0.484   0.488
  0.491   0.493   0.497   0.499   0.501   0.502   0.506   0.509
  0.518   0.522   0.523   0.524   0.525   0.527   0.527   0.531
  0.532   0.536   0.537   0.538   0.541   0.542   0.545   0.550
  0.550   0.552   0.554   0.557   0.559   0.563   0.563   0.564
  0.568   0.570   0.573   0.575   0.579   0.583   0.584   0.586
  0.586   0.587   0.590   0.591   0.593   0.596   0.597   0.598
  0.599   0.601   0.602   0.606   0.613   0.615   0.617   0.620
  0.622   0.623   0.627   0.630   0.630   0.635   0.636   0.640
  0.644   0.649   0.650   0.652   0.654   0.656   0.658   0.659
  0.660   0.661   0.662   0.664   0.671   0.675   0.678   0.680
  0.683   0.685   0.693   0.698   0.702   0.705   0.706   0.711
  0.714   0.716   0.718   0.720   0.722   0.731   0.732   0.734
  0.740   0.741   0.744   0.748   0.751   0.756   0.758   0.763
  0.767   0.770   0.774   0.778   0.780   0.783   0.789   0.789
  0.791   0.798   0.802   0.806   0.808   0.821   0.822   0.832
  0.835   0.839   0.847   0.849   0.851   0.857   0.860   0.863
  0.874   0.879   0.891   0.900   0.901   0.904   0.907   0.912
  0.918   0.921   0.925   0.933   0.942   0.947   0.948   0.953
  0.955   0.961   0.962   0.966   0.967   0.974   0.976   0.981
  0.988   0.988   0.989   0.992   0.993   0.994   0.996   1.001
  1.004   1.006   1.006   1.007   1.011   1.011   1.017   1.022
  1.024   1.029   1.031   1.033   1.035   1.037   1.040   1.041
  1.044   1.046   1.046   1.052   1.056   1.057   1.060   1.069
  1.070   1.070   1.075   1.077   1.079   1.082   1.085   1.088
  1.090   1.091   1.096   1.099   1.099   1.107   1.115   1.121
  1.123   1.125   1.127   1.133   1.143   1.146   1.147   1.150
  1.153   1.158   1.161   1.164   1.167   1.170   1.173   1.177
  1.181   1.183   1.185   1.196   1.202   1.206   1.214   1.217
  1.224   1.225   1.241   1.244   1.248   1.253   1.258   1.262
  1.265   1.269   1.277   1.280   1.284   1.288   1.289   1.292
  1.302   1.304   1.308   1.309   1.314   1.315   1.321   1.323
  1.326   1.336   1.337   1.339   1.348   1.349   1.352   1.357
  1.364   1.371   1.378   1.388   1.392   1.393   1.397   1.400
  1.404   1.411   1.415   1.425   1.428   1.432   1.433   1.437
  1.441   1.445   1.446   1.448   1.450   1.456   1.457   1.471
  1.489   1.494   1.498   1.510   1.510   1.512   1.517   1.518
  1.518   1.520   1.522   1.528   1.528   1.531   1.533   1.534
  1.543   1.545   1.547   1.554   1.560   1.562   1.569   1.573
  1.576   1.581   1.587   1.589   1.589   1.592   1.597   1.607
  1.608   1.616   1.625   1.632   1.632   1.635   1.643   1.647
  1.667   1.670   1.680   1.694   1.709   1.723   1.741   1.749
  1.751   1.754   1.757   1.759   1.770   1.773   1.777   1.784
  1.789   1.793   1.798   1.806   1.809   1.810   1.811   1.814
  1.815   1.818   1.823   1.828   1.839   1.846   1.856   1.865
  1.882   1.891   1.897   1.902   1.906   1.919   1.920   1.927
  1.934   1.939   1.944   1.951   1.953   1.968   1.972   1.977
  1.981   1.982   1.984   1.987   1.992   1.996   1.996   1.999
  2.019   2.021   2.027   2.029   2.032   2.040   2.041   2.047
  2.054   2.057   2.060   2.064   2.072   2.074   2.079   2.080
  2.083   2.087   2.097   2.100   2.112   2.112   2.114   2.116
  2.127   2.131   2.134   2.135   2.148   2.155   2.159   2.160
  2.161   2.163   2.167   2.168   2.176   2.186   2.194   2.203
  2.204   2.204   2.205   2.221   2.229   2.231   2.233   2.245
  2.247   2.254   2.258   2.262   2.265   2.266   2.272   2.274
  2.277   2.283   2.291   2.293   2.307   2.315   2.319   2.322
  2.323   2.325   2.329   2.330   2.333   2.334   2.339   2.340
  2.341   2.345   2.348   2.353   2.353   2.360   2.360   2.365
  2.370   2.370   2.382   2.390   2.391   2.395   2.399   2.411
  2.415   2.418   2.420   2.424   2.427   2.430   2.434   2.442
  2.449   2.451   2.466   2.470   2.473   2.475   2.476   2.485
  2.494   2.496   2.498   2.503   2.518   2.518   2.522   2.525
  2.531   2.551   2.558   2.565   2.576   2.590   2.613   2.625
  2.630   2.634   2.642   2.643   2.645   2.648   2.657   2.662
  2.685   2.686   2.687   2.689   2.711   2.718   2.720   2.726
  2.728   2.732   2.732   2.752   2.758   2.763   2.775   2.776
  2.778   2.782   2.785   2.787   2.791   2.792   2.794   2.797
  2.805   2.807   2.815   2.815   2.819   2.822   2.842   2.849
  2.852   2.856   2.872   2.875   2.891   2.897   2.900   2.905
  2.917   2.926   2.937   2.942   2.955   2.980   2.997   3.007
  3.008   3.026   3.042   3.061   3.078   3.079   3.080   3.085
  3.099   3.111   3.119   3.232   3.252   3.255   3.316   3.319
  3.400   3.437   3.449   3.491   3.493   3.493   3.545   3.554
  3.667   3.680   9.579   9.720  13.141  13.176  13.395  13.458
 13.490  13.511  13.524  13.546  13.672  13.683  13.723  13.756
 13.766  13.777  13.779  13.794  13.801  13.804  13.859  13.878
 13.880  13.901  13.920  13.969  13.994  14.022  14.034  14.036
 14.040  14.045  14.046  14.054  14.154  14.162  14.162  14.191
 14.223  14.226  14.226  14.269  14.283  14.289  14.306  14.310
 14.343  14.348  14.512  14.516  14.561  14.570  14.576  14.584
 14.585  14.586  25.785  25.785
 --------------------------------------------------------------
 
          Ground-State Mulliken Net Atomic Charges

     Atom                 Charge (a.u.)
  ----------------------------------------
      1 C                    -0.150666
      2 C                    -0.392977
      3 H                     0.250736
      4 C                     0.082694
      5 C                     0.078336
      6 C                    -0.392083
      7 H                     0.249624
      8 C                    -0.155181
      9 C                     0.175770
     10 C                    -0.394232
     11 H                     0.251713
     12 C                    -0.066712
     13 C                     0.221185
     14 C                     0.177096
     15 C                    -0.394207
     16 H                     0.251924
     17 C                    -0.232037
     18 H                     0.257248
     19 C                    -0.348549
     20 H                     0.254252
     21 C                    -0.231936
     22 H                     0.257348
     23 C                    -0.348097
     24 H                     0.254173
     25 B                     0.647364
     26 B                     0.639608
     27 C                    -0.155962
     28 C                    -0.392286
     29 H                     0.246078
     30 C                     0.083808
     31 C                     0.076421
     32 C                    -0.392652
     33 H                     0.250910
     34 C                    -0.154626
     35 C                     0.172957
     36 C                    -0.390931
     37 H                     0.252053
     38 C                    -0.065326
     39 C                     0.222028
     40 C                     0.174291
     41 C                    -0.393855
     42 H                     0.251674
     43 C                    -0.232714
     44 H                     0.257387
     45 C                    -0.348037
     46 H                     0.254105
     47 C                    -0.231530
     48 H                     0.257179
     49 C                    -0.349329
     50 H                     0.254324
     51 C                    -0.222672
     52 C                     0.086188
     53 C                    -0.440194
     54 H                     0.254643
     55 C                     0.391175
     56 O                    -0.466136
     57 C                    -0.405445
     58 H                     0.238817
     59 C                     0.060983
     60 C                    -0.428777
     61 H                     0.252527
     62 H                     0.218234
     63 H                     0.218513
     64 C                    -0.547777
     65 H                     0.240740
     66 H                     0.249874
     67 C                    -0.554577
     68 H                     0.244055
     69 H                     0.259217
     70 C                    -0.656477
     71 H                     0.235638
     72 H                     0.229413
     73 H                     0.221999
     74 C                    -0.658439
     75 H                     0.239720
     76 H                     0.224139
     77 H                     0.226419
     78 C                    -0.227447
     79 C                     0.059861
     80 C                    -0.445176
     81 H                     0.255003
     82 C                     0.390220
     83 O                    -0.466593
     84 C                    -0.400639
     85 H                     0.238826
     86 C                     0.084722
     87 C                    -0.429477
     88 H                     0.252669
     89 H                     0.218694
     90 H                     0.218809
     91 C                    -0.549939
     92 H                     0.242366
     93 H                     0.250661
     94 C                    -0.557664
     95 H                     0.261094
     96 H                     0.242519
     97 C                    -0.657810
     98 H                     0.236561
     99 H                     0.223087
    100 H                     0.228527
    101 C                    -0.655833
    102 H                     0.237143
    103 H                     0.222258
    104 H                     0.227393
  ----------------------------------------
  Sum of atomic charges =    -0.000000

 -----------------------------------------------------------------
                    Cartesian Multipole Moments
 -----------------------------------------------------------------
    Charge (ESU x 10^10)
                -0.0000
    Dipole Moment (Debye)
         X       0.9607      Y      -1.4808      Z      -0.0408
       Tot       1.7656
    Quadrupole Moments (Debye-Ang)
        XX    -277.8778     XY      21.7156     YY    -333.1968
        XZ      -3.1025     YZ      16.4678     ZZ    -275.7036
    Octopole Moments (Debye-Ang^2)
       XXX      78.6209    XXY     107.3333    XYY     -82.4250
       YYY     454.1353    XXZ     454.6563    XYZ     -12.0414
       YYZ     462.6370    XZZ       2.8861    YZZ       9.3154
       ZZZ    1242.6766
    Hexadecapole Moments (Debye-Ang^3)
      XXXX  -21275.0630   XXXY     515.1588   XXYY   -4777.8916
      XYYY    -178.0960   YYYY   -4264.8740   XXXZ    1837.8641
      XXYZ     216.7672   XYYZ    1256.6334   YYYZ    -660.7910
      XXZZ   -8112.4356   XYZZ     208.7474   YYZZ   -6811.8677
      XZZZ     949.9506   YZZZ     141.0881   ZZZZ  -29014.7720
 -----------------------------------------------------------------
 Calculating analytic gradient of the SCF energy
 -1.180110352817164E-003 -1.180116072048413E-003
 -1.180118973694276E-003 -1.180107526866331E-003
 -1.180103446214273E-003 -1.180122971801085E-003
 -1.180120261792440E-003 -1.180106149307148E-003
 -1.180113011694549E-003 -1.180113503348473E-003
 -1.180100891220820E-003 -1.180125549066983E-003
 -1.180126753365452E-003 -1.180099673189971E-003
 -1.180105857323160E-003 -1.180120612769064E-003
 -1.180105751197489E-003 -1.180120687034073E-003
 -1.180130224308423E-003 -1.180096207741556E-003
 -1.180120882480640E-003 -1.180105632055448E-003
 -1.180081049843745E-003 -1.180145379140106E-003
 -1.180130557326168E-003 -1.180095868555399E-003
 -1.180120894648207E-003 -1.180105619909116E-003
 -1.180083179324198E-003 -1.180143258531594E-003
 -1.180120157303220E-003 -1.180106285717279E-003
 -1.180114605617975E-003 -1.180111908543648E-003
 -1.180098167258387E-003 -1.180128239650200E-003
 -1.180114676359654E-003 -1.180111770411219E-003
 -1.180104063898274E-003 -1.180122405622871E-003
 -1.180097078153746E-003 -1.180129337055436E-003
 -1.180121505921972E-003 -1.180104915112507E-003
 -1.180119654211212E-003 -1.180106845102800E-003
 -1.180112343986568E-003 -1.180114074763870E-003
 -1.180118633348758E-003 -1.180107777147369E-003
 -1.180116071943498E-003 -1.180110447476969E-003
 -1.180110694310737E-003 -1.180115749116846E-003
 -1.180155425977162E-003 -1.180071014657790E-003
 -1.180115057905156E-003 -1.180111452739532E-003
 -1.180091668883507E-003 -1.180134751483024E-003
 -1.180120528176322E-003 -1.180105906963482E-003
 -1.180112938531707E-003 -1.180113512642904E-003
 -1.180105966782074E-003 -1.180120436665494E-003
 -1.180130474855047E-003 -1.180095968883410E-003
 -1.180116969409042E-003 -1.180109549020473E-003
 -1.180084244070874E-003 -1.180142200793952E-003
 -1.180096699720184E-003 -1.180129715540074E-003
 -1.180102465579761E-003 -1.180124034393527E-003
 -1.180143379560668E-003 -1.180083060159566E-003
 -1.180111473948936E-003 -1.180114945681530E-003
 -1.180115942243804E-003 -1.180110573796272E-003
 -1.180105319347996E-003 -1.180121117392505E-003
 -1.180112324447609E-003 -1.180114111199324E-003
 -1.180112290344128E-003 -1.180114218354338E-003
 -1.180065027496856E-003 -1.180161399455400E-003
 -1.180115758542231E-003 -1.180110646502834E-003
 -1.180112009294703E-003 -1.180114442427596E-003
 -1.180103828098174E-003 -1.180122601990490E-003
 -1.180098288773069E-003 -1.180128100109028E-003
 -1.180104765479915E-003 -1.180121737205036E-003
 -1.180134763781821E-003 -1.180091690837865E-003
 -1.180124771792309E-003 -1.180101621503227E-003
 -1.180109861739008E-003 -1.180116591760958E-003
 -1.180101624110378E-003 -1.180124814507571E-003
 -1.180129699830331E-003 -1.180096741125464E-003
 -1.180112762090668E-003 -1.180113742895203E-003
 -1.180084193416422E-003 -1.180142214716962E-003
 -1.180102861830153E-003 -1.180123588904827E-003
 -1.180105084861965E-003 -1.180121390705138E-003
 -1.180128164027278E-003 -1.180098237949882E-003
 -1.180102785139193E-003 -1.180123628802949E-003
 -1.180104223332384E-003 -1.180122276523526E-003
 -1.180138076498705E-003 -1.180088357712439E-003
 -1.180118526399518E-003 -1.180107890916889E-003
 -1.180108828042276E-003 -1.180117621497478E-003
 -1.180097617310357E-003 -1.180128802909506E-003
 -1.180130162441481E-003 -1.180096260912928E-003
 -1.180112616686576E-003 -1.180113885647678E-003
 -1.180084359179433E-003 -1.180142068294803E-003
 -1.180106839926500E-003 -1.180119600902856E-003
 -1.180104928199498E-003 -1.180121545856121E-003
 -1.180130172914167E-003 -1.180096240221643E-003
 -1.180119857400537E-003 -1.180106568687719E-003
 -1.180112561801609E-003 -1.180113918837923E-003
 -1.180115491331538E-003 -1.180110948026046E-003
 -1.180105704102932E-003 -1.180120723152701E-003
 -1.180110664879175E-003 -1.180115813574376E-003
 -1.180110099463781E-003 -1.180116338572277E-003
 -1.180103320195666E-003 -1.180123099272602E-003
 -1.180118020890643E-003 -1.180108481531986E-003
 -1.180116647822037E-003 -1.180109771303495E-003
 -1.180105291015711E-003 -1.180121156119610E-003
 -1.180116363784448E-003 -1.180110153674182E-003
 -1.180128140903250E-003 -1.180098267384713E-003
 -1.180112448613917E-003 -1.180114002169409E-003
 -1.180104197375539E-003 -1.180122275408477E-003
 -1.180129972697818E-003 -1.180096444655201E-003
 -1.180094560489422E-003 -1.180131864093367E-003
 -1.180122771309279E-003 -1.180103744167506E-003
 -1.180142223761712E-003 -1.180084216149992E-003
 -1.180095150868153E-003 -1.180131282230198E-003
 -1.180121162080661E-003 -1.180105350934770E-003
 -1.180142928113536E-003 -1.180083503393841E-003
 -1.180103057319563E-003 -1.180123354704176E-003
 -1.180112125965325E-003 -1.180114387454932E-003
 -1.180124179201572E-003 -1.180102261087151E-003
 -1.180098574513055E-003 -1.180127849901316E-003
 -1.180105371114956E-003 -1.180121096737792E-003
 -1.180121475972953E-003 -1.180104961081751E-003
 -1.180114540919265E-003 -1.180111883781336E-003
 -1.180118637235651E-003 -1.180107864088814E-003
 -1.180123680791901E-003 -1.180102738147915E-003
 -1.180104868767887E-003 -1.180121539807334E-003
 -1.180115852944748E-003 -1.180110659584190E-003
 -1.180113089652874E-003 -1.180113354618447E-003
 -1.180072487578600E-003 -1.180153953038996E-003
 -1.180112773211075E-003 -1.180113730812476E-003
 -1.180138073637324E-003 -1.180088349183559E-003
 -1.180106150203190E-003 -1.180120282974813E-003
 -1.180113497165936E-003 -1.180112954109224E-003
 -1.180119844637432E-003 -1.180106559751539E-003
 -1.180096718687675E-003 -1.180129724492337E-003
 -1.180117961131478E-003 -1.180108554350595E-003
 -1.180140901422853E-003 -1.180085544407136E-003
 -1.180128339920508E-003 -1.180098074182750E-003
 -1.180100975235860E-003 -1.180125520839184E-003
 -1.180082500379576E-003 -1.180143941133722E-003
 -1.180114181203638E-003 -1.180112236494844E-003
 -1.180118553695788E-003 -1.180107964236538E-003
 -1.180118429522299E-003 -1.180108008582179E-003
 -1.180115060863350E-003 -1.180111372650921E-003
 -1.180115695606157E-003 -1.180110814449770E-003
 -1.180159270226591E-003 -1.180067159498391E-003
 -1.180110868399557E-003 -1.180115538352697E-003
 -1.180112335870434E-003 -1.180114115857462E-003
 -1.180120643356479E-003 -1.180105787737221E-003
 -1.180127237560201E-003 -1.180099149600797E-003
 -1.180103479722602E-003 -1.180123017472453E-003
 -1.180091432289991E-003 -1.180135030765544E-003
 -1.180102862802084E-003 -1.180123531084519E-003
 -1.180109071656617E-003 -1.180117376806148E-003
 -1.180126526481514E-003 -1.180099917434718E-003
 -1.180099144910585E-003 -1.180127292710657E-003
 -1.180112943284519E-003 -1.180113555644807E-003
 -1.180143962797351E-003 -1.180082451412727E-003
 -1.180123839239996E-003 -1.180102610461548E-003
 -1.180103932792163E-003 -1.180122539403924E-003
 -1.180099328372687E-003 -1.180127077413749E-003
 -1.180123415140144E-003 -1.180102995586648E-003
 -1.180103274359874E-003 -1.180123225904704E-003
 -1.180087879352042E-003 -1.180138558177109E-003
 -1.180108485371094E-003 -1.180117931676203E-003
 -1.180108445512295E-003 -1.180118007291422E-003
 -1.180128472044909E-003 -1.180097949521702E-003
 -1.180098227223279E-003 -1.180128192321941E-003
 -1.180112166385564E-003 -1.180114333158296E-003
 -1.180142279184893E-003 -1.180084149836724E-003
 -1.180119601453716E-003 -1.180106837133224E-003
 -1.180103608819625E-003 -1.180122863075615E-003
 -1.180097407937193E-003 -1.180129007473036E-003
 -1.180111018253124E-003 -1.180115427801506E-003
 -1.180088595392376E-003 -1.180137822076084E-003
 -1.180114384486968E-003 -1.180112050504752E-003
 -1.180093050670482E-003 -1.180133378802241E-003
 -1.180140551592869E-003 -1.180085878462397E-003
 -1.180096994275175E-003 -1.180129434495428E-003
 -1.180109619782619E-003 -1.180116833287174E-003
 -1.180089215161922E-003 -1.180137185866865E-003
 -1.180111520602370E-003 -1.180114927171161E-003
 -1.180095898115157E-003 -1.180130567378491E-003
 -1.180127634217978E-003 -1.180098763464358E-003
 -1.180097708535644E-003 -1.180128740297837E-003
 -1.180070581563566E-003 -1.180155853862373E-003
 -1.180126587948293E-003 -1.180099834414667E-003
 -1.180085850602810E-003 -1.180140595320523E-003
 -1.180108004599178E-003 -1.180118482190833E-003
 -1.180091506706457E-003 -1.180134901173605E-003
 -1.180116153141436E-003 -1.180110324539396E-003
 -1.180115174507164E-003 -1.180111271103048E-003
 -1.180100797579803E-003 -1.180125589051160E-003
 -1.180120114421550E-003 -1.180106337447763E-003
 -1.180090279320711E-003 -1.180136139446496E-003
 -1.180127393489217E-003 -1.180099017631181E-003
 -1.180100661797267E-003 -1.180125770518549E-003
 -1.180072242859480E-003 -1.180154185745876E-003
 -1.180106153277995E-003 -1.180120256787076E-003
 -1.180090529730561E-003 -1.180135904512253E-003
 -1.180104055670935E-003 -1.180122389547603E-003
 -1.180141908400609E-003 -1.180084468918431E-003
 -1.180105937206145E-003 -1.180120531514074E-003
 -1.180111265160530E-003 -1.180115199851970E-003
 -1.180099791704342E-003 -1.180126626440500E-003
 -1.180115046382728E-003 -1.180111411765496E-003
 -1.180109120763692E-003 -1.180117287646876E-003
 -1.180116181687890E-003 -1.180110224654484E-003
 -1.180112667925547E-003 -1.180113752484340E-003
 -1.180112035339326E-003 -1.180114362093721E-003
 -1.180116463545210E-003 -1.180109951548880E-003
 -1.180108884870043E-003 -1.180117541811402E-003
 -1.180099911955685E-003 -1.180126507984897E-003
 -1.180092286844373E-003 -1.180134153257697E-003
 -1.180118710084664E-003 -1.180107723831699E-003
 -1.180111399700569E-003 -1.180115034015025E-003
 -1.180103346974906E-003 -1.180123090553671E-003
 -1.180102013544241E-003 -1.180124418452646E-003
 -1.180104234706206E-003 -1.180122205355375E-003
 -1.180121284703371E-003 -1.180105147091024E-003
 -1.180099522553544E-003 -1.180126909348962E-003
 -1.180108773781558E-003 -1.180117667177705E-003
 -1.180123715075716E-003 -1.180102687616997E-003
 -1.180112898244440E-003 -1.180113527875185E-003
 -1.180091310477650E-003 -1.180135119574392E-003
 -1.180128392234270E-003 -1.180098009403377E-003
 -1.180105029339161E-003 -1.180121410660039E-003
 -1.180095971488234E-003 -1.180130452282931E-003
 -1.180118671723238E-003 -1.180107756542727E-003
 -1.180119717490380E-003 -1.180106706495107E-003
 -1.180103870661417E-003 -1.180122552636234E-003
 -1.180119660510395E-003 -1.180106783606186E-003
 -1.180094979136751E-003 -1.180131431173570E-003
 -1.180097095316193E-003 -1.180129332504786E-003
 -1.180111107584365E-003 -1.180115327644029E-003
 -1.180116978954153E-003 -1.180109443772557E-003
 -1.180095167370107E-003 -1.180131243121912E-003
 -1.180084244996626E-003 -1.180142195424620E-003
 -1.180099547075948E-003 -1.180126864305338E-003
 -1.180106817372460E-003 -1.180119610981474E-003
 -1.180089011668162E-003 -1.180137419150692E-003
 -1.180119683341279E-003 -1.180106744652514E-003
 -1.180091140752631E-003 -1.180135251395475E-003
 -1.180119984907696E-003 -1.180106428286105E-003
 -1.180097502939156E-003 -1.180128942882006E-003
 -1.180109972282878E-003 -1.180116444286780E-003
 -1.180123797009255E-003 -1.180102609422687E-003
 -1.180102944567805E-003 -1.180123477509318E-003
 -1.180105002848083E-003 -1.180121426619140E-003
 -1.180138473292467E-003 -1.180087954888005E-003
 -1.180102174050420E-003 -1.180124259937589E-003
 -1.180107245887409E-003 -1.180119169870107E-003
 -1.180145820782709E-003 -1.180080583044754E-003
 -1.180109789550208E-003 -1.180116629744234E-003
 -1.180114086329673E-003 -1.180112357542982E-003
 -1.180091445336535E-003 -1.180134972350772E-003
 -1.180110538098784E-003 -1.180115893419300E-003
 -1.180162202680238E-003 -1.180064217972216E-003
 -1.180100902473847E-003 -1.180125510670377E-003
 -1.180138213244105E-003 -1.180088218757255E-003
 -1.180117591722762E-003 -1.180108856007727E-003
 -1.180109500875597E-003 -1.180116896355232E-003
 -1.180111658580903E-003 -1.180114792336925E-003
 -1.180143571549127E-003 -1.180082852477117E-003
 -1.180117561798590E-003 -1.180108854833827E-003
 -1.180126792701946E-003 -1.180099645293913E-003
 -1.180153196592024E-003 -1.180073238139967E-003
 -1.180140527699838E-003 -1.180085896772881E-003
 -1.180140887920704E-003 -1.180085557107494E-003
 -1.180104959913736E-003 -1.180121496344712E-003
 -1.180124491937260E-003 -1.180101942857809E-003
 -1.180112846733688E-003 -1.180113629352914E-003
 -1.180105533049628E-003 -1.180120923541583E-003
 -1.180091995731332E-003 -1.180134391012171E-003
 -1.180109427312130E-003 -1.180117020728203E-003
 -1.180129895647269E-003 -1.180096562034829E-003
 -1.180116493242001E-003 -1.180109903270424E-003
 -1.180125941131137E-003 -1.180100500849729E-003
 -1.180132556418942E-003 -1.180093875155858E-003
 -1.180135094686606E-003 -1.180091332429768E-003
 -1.180127680375214E-003 -1.180098751884578E-003
 -1.180140853426209E-003 -1.180085544754809E-003
 -1.180096639397829E-003 -1.180129792546119E-003
 -1.180127753379452E-003 -1.180098713363709E-003
 -1.180105465765330E-003 -1.180120973041987E-003
 -1.180124259701552E-003 -1.180102184644489E-003
 -1.180111312095144E-003 -1.180115146285714E-003
 -1.180115962233357E-003 -1.180110435830126E-003
 -1.180111064153339E-003 -1.180115335823865E-003
 -1.180116478775511E-003 -1.180109956169987E-003
 -1.180118478752634E-003 -1.180107936520501E-003
 -1.180110389029389E-003 -1.180116023290192E-003
 -1.180112135785310E-003 -1.180114274916003E-003
 -1.180124923793048E-003 -1.180101499548580E-003
 -1.180094629690841E-003 -1.180131812284190E-003
 -1.180107741307983E-003 -1.180118693683047E-003
 -1.180118175661294E-003 -1.180108260373438E-003
 -1.180102805682761E-003 -1.180123628641120E-003
 -1.180126725979936E-003 -1.180099707566160E-003
 -1.180123192050470E-003 -1.180103247769814E-003
 -1.180120329219913E-003 -1.180106106098387E-003
 -1.180130398785462E-003 -1.180096026457533E-003
 -1.180115447353246E-003 -1.180110982360395E-003
 -1.180126504821982E-003 -1.180099908559978E-003
 -1.180113680068277E-003 -1.180112742832955E-003
 -1.180128272003438E-003 -1.180098155332032E-003
 -1.180116779924513E-003 -1.180109654662115E-003
 -1.180107365168352E-003 -1.180119059889117E-003
 -1.180132179057593E-003 -1.180094249973036E-003
 -1.180125800931542E-003 -1.180100607613627E-003
 -1.180119905181748E-003 -1.180106531982133E-003
 -1.180125652109663E-003 -1.180100778063402E-003
 -1.180117355245261E-003 -1.180109087524313E-003
 -1.180131136387817E-003 -1.180095268618737E-003
 -1.180128565879689E-003 -1.180097862481762E-003
 -1.180111869814674E-003 -1.180114562502870E-003
 -1.180108531511158E-003 -1.180117891991403E-003
 -1.180121429884936E-003 -1.180105000791864E-003
 -1.180090349707012E-003 -1.180136083614382E-003
 -1.180106478523783E-003 -1.180119946727774E-003
 -1.180131821627171E-003 -1.180094589346629E-003
 -1.180084875274227E-003 -1.180141561262309E-003
 -1.180126578753020E-003 -1.180099834877133E-003
 -1.180139307322069E-003 -1.180087083317952E-003
 -1.180116752981518E-003 -1.180109671774217E-003
 -1.180127264877770E-003 -1.180099178070605E-003
 -1.180118224386179E-003 -1.180108193202870E-003
 -1.180126743153059E-003 -1.180099667313224E-003
 -1.180124548946679E-003 -1.180101875339683E-003
 -1.180119099318128E-003 -1.180107332762530E-003
 -1.180138023410108E-003 -1.180088411912100E-003
 -1.180122212207256E-003 -1.180104222726141E-003
 -1.180119588227149E-003 -1.180106823296229E-003
 -1.180148654605178E-003 -1.180077759311558E-003
 -1.180116390822619E-003 -1.180110025599931E-003
 Gradient of SCF Energy
            1           2           3           4           5           6
    1  -0.0019688  -0.0023261  -0.0015639  -0.0008944   0.0046535   0.0010239
    2   0.0006055   0.0001558  -0.0002698   0.0010404   0.0016374  -0.0003314
    3  -0.0001398  -0.0008035  -0.0003483  -0.0073630  -0.0043927   0.0010992
            7           8           9          10          11          12
    1   0.0014102   0.0002112  -0.0012431  -0.0062067   0.0019422  -0.0003183
    2  -0.0001653   0.0002445  -0.0005506  -0.0005724  -0.0001220   0.0012116
    3   0.0012394   0.0021823   0.0027462  -0.0016963   0.0006539  -0.0021284
           13          14          15          16          17          18
    1  -0.0005427  -0.0033621   0.0049886  -0.0012467  -0.0032658   0.0017504
    2   0.0000171  -0.0010859   0.0000662  -0.0003623  -0.0001262  -0.0002298
    3   0.0011677   0.0026520   0.0049289  -0.0010705  -0.0040802   0.0030458
           19          20          21          22          23          24
    1   0.0041346  -0.0012587   0.0057487  -0.0032141   0.0035497  -0.0021027
    2   0.0011033  -0.0006712   0.0004775  -0.0006958   0.0007626  -0.0008271
    3  -0.0055696   0.0035678   0.0014435   0.0001599  -0.0058917   0.0030772
           25          26          27          28          29          30
    1   0.0017736  -0.0014310   0.0001358  -0.0018435  -0.0011953  -0.0047874
    2  -0.0002097   0.0005020   0.0000693  -0.0008143  -0.0002361   0.0012571
    3   0.0010775  -0.0001314  -0.0029671  -0.0014411  -0.0006905   0.0002675
           31          32          33          34          35          36
    1  -0.0002069   0.0018983   0.0015569   0.0021167   0.0002951   0.0062873
    2   0.0015570   0.0005714  -0.0003195   0.0006890  -0.0007072  -0.0001076
    3   0.0029427   0.0005659   0.0007004  -0.0009127  -0.0039362   0.0024016
           37          38          39          40          41          42
    1  -0.0020957  -0.0006135   0.0002019   0.0023664  -0.0045675   0.0016582
    2  -0.0003414   0.0010814  -0.0002577   0.0001730  -0.0004201  -0.0000986
    3  -0.0002208  -0.0019595  -0.0004738  -0.0021680  -0.0039476   0.0021184
           43          44          45          46          47          48
    1   0.0038216  -0.0017459  -0.0034908   0.0014084  -0.0054219   0.0036037
    2   0.0004252  -0.0007003   0.0007448  -0.0008147   0.0001592  -0.0003088
    3   0.0049825  -0.0027891   0.0066874  -0.0032716  -0.0004041   0.0001791
           49          50          51          52          53          54
    1  -0.0029352   0.0023877   0.0008941   0.0001728  -0.0041006   0.0018781
    2   0.0008692  -0.0007545  -0.0008965  -0.0036518  -0.0049534   0.0021079
    3   0.0067451  -0.0027728   0.0008792   0.0005432  -0.0010473   0.0006438
           55          56          57          58          59          60
    1  -0.0007285   0.0004319  -0.0003049  -0.0002772   0.0056848  -0.0085532
    2  -0.0015820   0.0030466   0.0030137   0.0020554   0.0023799  -0.0079352
    3   0.0001784  -0.0003455  -0.0008017  -0.0006582   0.0031884  -0.0032669
           61          62          63          64          65          66
    1   0.0027676   0.0001637   0.0022122  -0.0025223   0.0016073   0.0012368
    2  -0.0004119   0.0032571   0.0024742  -0.0016513   0.0009335   0.0001331
    3   0.0016009   0.0020791  -0.0018544  -0.0010944  -0.0001386   0.0012260
           67          68          69          70          71          72
    1  -0.0029895  -0.0000732   0.0022928  -0.0027715   0.0022632   0.0001817
    2   0.0012621   0.0000081  -0.0014158  -0.0008058   0.0008733   0.0003088
    3   0.0014580  -0.0002819   0.0003922   0.0001576   0.0000746   0.0002238
           73          74          75          76          77          78
    1   0.0003346   0.0016136   0.0002915  -0.0017578   0.0002945  -0.0019056
    2   0.0001988   0.0012003  -0.0026943   0.0003651   0.0001431  -0.0010050
    3   0.0002219  -0.0040562   0.0025256   0.0000929   0.0003465  -0.0003606
           79          80          81          82          83          84
    1  -0.0030701   0.0008836  -0.0002482  -0.0007598   0.0014960   0.0013781
    2   0.0027496   0.0062658  -0.0025240   0.0013380  -0.0027345  -0.0023281
    3  -0.0009982   0.0019995  -0.0007097  -0.0000983   0.0002392   0.0002110
           85          86          87          88          89          90
    1   0.0013610  -0.0029453   0.0031907  -0.0024659  -0.0003756   0.0016081
    2  -0.0012999  -0.0043627   0.0108045  -0.0010447  -0.0034164  -0.0025288
    3   0.0003945  -0.0019833   0.0040315  -0.0015656   0.0014620  -0.0022728
           91          92          93          94          95          96
    1   0.0017390   0.0000359  -0.0013462   0.0029235  -0.0018575  -0.0000026
    2  -0.0012399   0.0002849   0.0002575   0.0020485  -0.0012357  -0.0008264
    3   0.0029411   0.0000388  -0.0014981   0.0007299  -0.0001894  -0.0006496
           97          98          99         100         101         102
    1   0.0030896  -0.0026218   0.0006714  -0.0002622   0.0000647  -0.0001453
    2  -0.0004107   0.0014719   0.0002393  -0.0005653   0.0016185  -0.0021388
    3  -0.0020536   0.0006362   0.0012818  -0.0001858   0.0036639  -0.0021396
          103         104
    1   0.0003130  -0.0000668
    2  -0.0002593  -0.0002416
    3  -0.0001269  -0.0001463
 Max gradient component =       1.080E-02
 RMS gradient           =       2.347E-03
 Computing fast IEFPCM-SWIG gradient.
 Updating gradient with PCM contributions...
 -- total gradient after adding PCM contribution --
---------------------------------------------------
  Atom         X              Y              Z     
---------------------------------------------------
   1      -0.000595       0.000425      -0.001059
   2      -0.001539       0.000293       0.000057
   3       0.000301      -0.000570      -0.000318
   4      -0.000832       0.001083      -0.003145
   5       0.000988       0.001200      -0.002425
   6      -0.000000      -0.000100       0.001124
   7       0.000318      -0.000380      -0.000480
   8       0.000190       0.000398       0.000493
   9      -0.000467      -0.000113      -0.000394
  10      -0.001441      -0.000176       0.000121
  11      -0.000209      -0.000343       0.000140
  12      -0.000737       0.001227      -0.001372
  13      -0.000190       0.000069       0.000535
  14      -0.001083      -0.000496       0.000379
  15       0.001084      -0.000377       0.001790
  16       0.000226      -0.000175       0.000449
  17      -0.000550      -0.000154      -0.000151
  18      -0.000058      -0.000176       0.000165
  19       0.001392       0.000242      -0.000540
  20       0.000218      -0.000151       0.000159
  21       0.001066      -0.000331       0.001102
  22       0.000107      -0.000106       0.000257
  23       0.000724      -0.000126      -0.000965
  24       0.000015      -0.000219       0.000059
  25       0.000655      -0.000053       0.000351
  26      -0.000443       0.000309       0.000535
  27       0.000315       0.000240      -0.001343
  28      -0.000590      -0.000192      -0.001316
  29      -0.000500      -0.000616       0.000811
  30      -0.001171       0.001158      -0.001708
  31      -0.000282       0.001473      -0.001068
  32       0.001273       0.000332      -0.000456
  33      -0.000368      -0.000468       0.000723
  34       0.000729       0.000403       0.000044
  35      -0.000456      -0.000078      -0.001037
  36       0.001426      -0.000501       0.000669
  37       0.000198      -0.000177       0.000262
  38      -0.000186       0.001201      -0.002651
  39      -0.000124      -0.000204       0.000064
  40       0.000249       0.000499      -0.000011
  41      -0.000434      -0.000116      -0.000483
  42      -0.000094      -0.000291       0.000167
  43       0.001075      -0.000342       0.001077
  44       0.000148      -0.000113       0.000140
  45      -0.000796      -0.000258       0.001692
  46      -0.000112      -0.000126       0.000209
  47      -0.000594      -0.000014      -0.000067
  48       0.000004      -0.000147       0.000058
  49       0.000025      -0.000108       0.001898
  50       0.000145      -0.000136       0.000324
  51       0.000218       0.000310      -0.000011
  52      -0.000122      -0.000637       0.000144
  53      -0.001043      -0.001012      -0.000150
  54      -0.000051      -0.000032      -0.000039
  55      -0.000796       0.000337      -0.000336
  56       0.003641       0.002423       0.001604
  57      -0.000732       0.000764      -0.000280
  58       0.000494       0.000575       0.000125
  59       0.001164      -0.000171       0.001067
  60      -0.004028      -0.003637      -0.001610
  61      -0.000014      -0.000226       0.000026
  62       0.000072       0.000379       0.000438
  63       0.000347       0.000274      -0.000302
  64      -0.000358      -0.000546       0.000689
  65       0.000235       0.000115      -0.000239
  66       0.000201      -0.000138       0.000038
  67       0.000358      -0.000079      -0.000514
  68      -0.000144       0.000019       0.000295
  69       0.000042      -0.000186       0.000636
  70       0.000184      -0.000078      -0.000203
  71       0.000328       0.000083       0.000133
  72      -0.000168       0.000003       0.000291
  73      -0.000160      -0.000063       0.000064
  74       0.000186       0.000035       0.000148
  75       0.000255      -0.000226       0.000235
  76      -0.000112       0.000201      -0.000043
  77       0.000044      -0.000010       0.000070
  78      -0.000741      -0.000448       0.000229
  79      -0.000744       0.000021      -0.000073
  80       0.000218       0.001503       0.000593
  81       0.000297      -0.000097       0.000048
  82       0.000328      -0.000159       0.000118
  83      -0.001632      -0.003776      -0.001592
  84       0.000598      -0.000015       0.000521
  85      -0.000019      -0.000710      -0.000145
  86      -0.000893      -0.000386      -0.000379
  87       0.001692       0.005024       0.001986
  88      -0.000027       0.000191      -0.000016
  89      -0.000112      -0.000504       0.000202
  90       0.000278      -0.000295      -0.000464
  91       0.000990      -0.000776      -0.000361
  92      -0.000060       0.000071       0.000265
  93      -0.000133       0.000005       0.000287
  94       0.000030      -0.000060       0.000914
  95       0.000041      -0.000191      -0.000043
  96       0.000349       0.000071      -0.000251
  97      -0.000077      -0.000312       0.000155
  98      -0.000034       0.000174       0.000311
  99       0.000191      -0.000142       0.000182
 100       0.000106      -0.000050      -0.000054
 101       0.000231      -0.000075       0.000134
 102      -0.000028      -0.000250      -0.000087
 103       0.000125       0.000105       0.000229
 104      -0.000035      -0.000012       0.000149
---------------------------------------------------
 Number of fixed atoms: 0
 Gradient time:  CPU 1281.04 s  wall 543.93 s
 Geometry Optimization Parameters
   NAtoms,    NIC,     NZ,  NCons,   NDum,   NFix, NCnnct, MaxDiis
      104     816     104       0       0       0       0       0


** GEOMETRY OPTIMIZATION IN DELOCALIZED INTERNAL COORDINATES **
   Searching for a Minimum

   Optimization Cycle:   1

                       Coordinates (Angstroms)
     ATOM                X               Y               Z
      1  C         0.0000000000    0.0000000000    0.0000000000
      2  C         0.0000000000    0.0000000000    1.3978960000
      3  H         0.9412462225    0.0000000000    1.9360806975
      4  C        -1.1947814913   -0.0595104967    2.0875737963
      5  C        -2.4168610964   -0.1530119778    1.3852269249
      6  C        -2.4276371305   -0.1468403787    0.0043647626
      7  H        -3.3617658954   -0.2490713641   -0.5369272955
      8  C        -1.2247971873   -0.0531637863   -0.7026245093
      9  C        -1.4846158277   -0.1555170999    3.5194075821
     10  C        -0.7347188355   -0.1721574223    4.6654852595
     11  H         0.3427305260   -0.0676222146    4.6454462642
     12  C        -2.8773698484   -0.3208090706    3.6270787999
     13  C        -3.5519234285   -0.5212378768    4.8269563917
     14  C        -3.4931883247   -0.3338675170    2.3619536827
     15  C        -4.8432826315   -0.5583275780    2.2944630376
     16  H        -5.3705973893   -0.5993244796    1.3495128748
     17  C        -1.3951125232   -0.3496536746    5.9042967980
     18  H        -0.8014568575   -0.3638167740    6.8089977128
     19  C        -2.7559756933   -0.5214226819    5.9971360722
     20  H        -3.2166466391   -0.6712186596    6.9660429340
     21  C        -5.5580246506   -0.7583013085    3.4994487968
     22  H        -6.6235754222   -0.9396042186    3.4440655859
     23  C        -4.9470033968   -0.7409182331    4.7308176173
     24  H        -5.5327184446   -0.9097859184    5.6262808028
     25  B        -1.2232209851   -0.1248265642   -2.2561417093
     26  B         1.3455201432   -0.0932141885   -0.7756946139
     27  C         1.3526628012    0.0316181824   -2.3278414633
     28  C         2.5588022158    0.0429620106   -3.0358598828
     29  H         3.4966274394    0.0190536769   -2.4917269130
     30  C         2.5513743594    0.0246327737   -4.4184424395
     31  C         1.3243350854   -0.0333835186   -5.1159610749
     32  C         0.1275933878   -0.0403176530   -4.4265666084
     33  H        -0.8129181985   -0.1190583755   -4.9610099844
     34  C         0.1246109033   -0.0031481590   -3.0297022297
     35  C         1.6121767912   -0.1985158970   -6.5384443507
     36  C         0.8538842239   -0.4045883479   -7.6598131297
     37  H        -0.2284585429   -0.4184842989   -7.6236466380
     38  C         3.0136933508   -0.2201046625   -6.6553672906
     39  C         3.6922351328   -0.4469614126   -7.8469547611
     40  C         3.6340871553   -0.0779402891   -5.3996417203
     41  C         5.0009142549   -0.1347134824   -5.3387766631
     42  H         5.5353668816   -0.0496001791   -4.4008974420
     43  C         1.5166188252   -0.6253482287   -8.8897696764
     44  H         0.9192974616   -0.7930211243   -9.7764879565
     45  C         2.8875024771   -0.6486941959   -8.9940720286
     46  H         3.3508582909   -0.8354848689   -9.9550582837
     47  C         5.7228258236   -0.3329534953   -6.5399556568
     48  H         6.8028116561   -0.3795610551   -6.4904949655
     49  C         5.1042523469   -0.4910441767   -7.7578564947
     50  H         5.6990672828   -0.6627125160   -8.6465258969
     51  C         2.6511983885   -0.4578581997    0.0142143258
     52  C         3.6031894266    0.5012601528    0.3590994077
     53  C         4.7450122487    0.1490898722    1.0793072411
     54  H         5.4573076920    0.9252596351    1.3314595106
     55  C         4.9505719949   -1.1690235400    1.4585351849
     56  O         6.0221882386   -1.6127341761    2.1483601387
     57  C         4.0028467111   -2.1311786309    1.1203400399
     58  H         4.1723893555   -3.1591182842    1.4208246615
     59  C         2.8645275913   -1.7915929719    0.4123975855
     60  C         7.0167584750   -0.6925126030    2.5061745445
     61  H         7.7813179337   -1.2521806142    3.0411446768
     62  H         6.6381861928    0.0948268363    3.1664638985
     63  H         7.4797366372   -0.2198217050    1.6335561132
     64  C         3.3864142604    1.9555760607    0.0291462960
     65  H         4.3481525283    2.4343709494   -0.1735045637
     66  H         2.8040366366    2.0545737263   -0.8911280462
     67  C         1.9013424644   -2.8891351224    0.0316629671
     68  H         1.9433225521   -3.6819562345    0.7827816465
     69  H         0.8721086526   -2.5218139845    0.0512146509
     70  C         2.6772863259    2.7049087708    1.1555075309
     71  H         1.6809362856    2.3001829789    1.3329921558
     72  H         2.5650986513    3.7625602702    0.9147586295
     73  H         3.2351546205    2.6303869284    2.0897996483
     74  C         2.2000968795   -3.4861591577   -1.3425137951
     75  H         2.1310465954   -2.7354040570   -2.1298548560
     76  H         3.2047388539   -3.9085660487   -1.3767087808
     77  H         1.4928927054   -4.2821595705   -1.5805926179
     78  C        -2.5645530306   -0.4003713850   -3.0261501349
     79  C        -2.8704855949   -1.6996591170   -3.4395332487
     80  C        -4.0637056050   -1.9700877878   -4.1074187675
     81  H        -4.2640267338   -2.9901040502   -4.4132875518
     82  C        -4.9686856831   -0.9513568344   -4.3666971768
     83  O        -6.1437753824   -1.1193397312   -5.0091361356
     84  C        -4.6752881388    0.3434513873   -3.9481767549
     85  H        -5.3875082880    1.1346780322   -4.1529611246
     86  C        -3.4920716117    0.6216134516   -3.2857337631
     87  C        -6.4787524119   -2.4023143503   -5.4649188224
     88  H        -7.4461782475   -2.3159250633   -5.9554031471
     89  H        -6.5680015074   -3.1255814791   -4.6475303920
     90  H        -5.7554420120   -2.7884643249   -6.1909194607
     91  C        -3.1881127570    2.0476157969   -2.9083302468
     92  H        -4.1211031116    2.5794521459   -2.7056994660
     93  H        -2.6166856062    2.0824509379   -1.9764856199
     94  C        -1.9616243257   -2.8592264971   -3.1139892956
     95  H        -0.9268680413   -2.5217302493   -3.0126612488
     96  H        -1.9577478056   -3.5685513294   -3.9462840399
     97  C        -2.4171546162    2.7813818391   -4.0030347905
     98  H        -1.4493995717    2.3149328948   -4.1871167778
     99  H        -2.9720164590    2.7757694607   -4.9416120376
    100  H        -2.2354193654    3.8199720295   -3.7247924282
    101  C        -2.3793572058   -3.5835174235   -1.8352841078
    102  H        -2.3671709163   -2.9098999832   -0.9780403067
    103  H        -3.3882839003   -3.9883064019   -1.9220068563
    104  H        -1.7038925759   -4.4119403823   -1.6172450800
   Point Group: c1    Number of degrees of freedom:   306


   Energy is  -2280.737254663


 Attempting to Generate Delocalized Internal Coordinates

306 Hessian modes will be used to form the next step
  Hessian Eigenvalues:
     0.005501    0.005507    0.005550    0.005632    0.007979    0.008009
     0.008260    0.008373    0.009365    0.009630    0.010866    0.011122
     0.011774    0.015364    0.015456    0.015713    0.016857    0.016926
     0.017211    0.017439    0.017496    0.018077    0.018161    0.018358
     0.018400    0.018428    0.018444    0.018646    0.019240    0.019434
     0.019837    0.020562    0.020646    0.020888    0.021011    0.021151
     0.021200    0.021479    0.021527    0.021647    0.021714    0.021801
     0.021847    0.022295    0.022328    0.022334    0.022346    0.022388
     0.022500    0.022541    0.022548    0.022801    0.022826    0.023196
     0.023197    0.023238    0.023254    0.023270    0.023303    0.023541
     0.023559    0.023672    0.023674    0.023679    0.023682    0.023716
     0.023816    0.023829    0.023857    0.023866    0.023888    0.023894
     0.023898    0.023906    0.023925    0.024062    0.024153    0.024402
     0.024431    0.024881    0.024919    0.041690    0.042082    0.042398
     0.042536    0.055412    0.055522    0.055642    0.055682    0.055853
     0.056099    0.056146    0.056210    0.056256    0.056288    0.056455
     0.056532    0.093975    0.094018    0.094119    0.094763    0.099087
     0.099166    0.105566    0.105613    0.128607    0.128668    0.128796
     0.129197    0.159796    0.159798    0.159818    0.159888    0.159961
     0.159972    0.159974    0.159978    0.159979    0.159983    0.159983
     0.159984    0.159987    0.159989    0.159992    0.159995    0.159998
     0.159999    0.160000    0.160000    0.160000    0.160000    0.160000
     0.160000    0.160000    0.160000    0.160000    0.160000    0.160000
     0.160000    0.160000    0.160000    0.160000    0.160000    0.160000
     0.160000    0.160000    0.160000    0.218920    0.219001    0.219012
     0.219029    0.220589    0.220597    0.222103    0.222126    0.231150
     0.231439    0.233402    0.233595    0.234584    0.234586    0.234876
     0.234880    0.236848    0.237058    0.237941    0.238669    0.244448
     0.245431    0.246619    0.247004    0.247580    0.248048    0.248422
     0.248726    0.248832    0.248911    0.249243    0.249398    0.249561
     0.249561    0.249563    0.249674    0.249721    0.249823    0.249852
     0.249916    0.249957    0.250000    0.250000    0.250000    0.250000
     0.259409    0.260980    0.265783    0.268707    0.270375    0.271468
     0.296272    0.296312    0.296618    0.297194    0.314444    0.314671
     0.316591    0.317467    0.338078    0.338693    0.340359    0.341695
     0.342235    0.342296    0.342319    0.342320    0.343939    0.344046
     0.344047    0.344368    0.344556    0.344693    0.344757    0.344823
     0.346892    0.347080    0.347295    0.347487    0.347558    0.347588
     0.347701    0.347740    0.347768    0.348017    0.348170    0.348174
     0.350326    0.350337    0.354423    0.354545    0.354613    0.354803
     0.354863    0.355056    0.355668    0.356041    0.356044    0.356070
     0.356235    0.356277    0.356300    0.356462    0.356556    0.356708
     0.357199    0.357287    0.357323    0.357392    0.367365    0.369137
     0.379188    0.392205    0.400726    0.404646    0.409042    0.409345
     0.415514    0.415603    0.418417    0.419564    0.422841    0.426246
     0.426551    0.427083    0.427220    0.428022    0.433069    0.433376
     0.434269    0.435774    0.452692    0.453040    0.453842    0.454151
     0.455563    0.455688    0.456962    0.458545    0.465769    0.467305
     0.472119    0.472495    0.476858    0.478361    0.479606    0.481401
     0.483241    0.484703    0.484846    0.485114    0.487011    0.487313
     0.500539    0.501566    0.502082    0.502847    0.550780    0.551319

 Minimum Search - Taking Simple RFO Step
 Searching for Lamda that Minimizes Along All modes
 Value Taken    Lamda =  -0.00505102
 Calculated Step too Large.  Step scaled by  0.750878
 Step Taken.  Stepsize is  0.300000

                             Maximum     Tolerance    Cnvgd?
         Gradient           0.011249      0.000300      NO
         Displacement       0.160359      0.001200      NO
         Energy change     *********      0.000001      NO


 New Cartesian Coordinates Obtained by Inverse Iteration

 Displacement from previous Coordinates is:  3.244907
 Adding empirical dispersion correction 
 ----------------------------------------------------------------
 Doing -D3(BJ) with
 s6 =   1.00000
 s8 =   0.00000
 a1 =   0.48600
 a2 =   4.50000
 -D3 energy including 3body term =     -0.0958775882 hartrees
 ----------------------------------------------------------------
 Adding gCP correction 
 ----------------------------------------------------------------
 gCP energy =      0.1521165361 hartrees
 ----------------------------------------------------------------
             Standard Nuclear Orientation (Angstroms)
    I     Atom           X                Y                Z
 ----------------------------------------------------------------
    1      C       0.0162459137    -0.1779505450     0.0397087717
    2      C       0.0102350711    -0.1647272222     1.4412826232
    3      H       0.9477955493    -0.1762980419     1.9855004130
    4      C      -1.1913490667    -0.1598925750     2.1279858260
    5      C      -2.4107597664    -0.2016263448     1.4138232748
    6      C      -2.4153107028    -0.2254749140     0.0334089986
    7      H      -3.3536146446    -0.2744666055    -0.5081061454
    8      C      -1.2087125826    -0.1964010582    -0.6698057805
    9      C      -1.5080504322    -0.1914745696     3.5592767161
   10      C      -0.7813118053    -0.2069167169     4.7205413814
   11      H       0.3009615469    -0.1685679262     4.7192832349
   12      C      -2.9126269674    -0.2545059224     3.6480224418
   13      C      -3.6247719694    -0.3461756860     4.8387567187
   14      C      -3.5094749019    -0.2665575814     2.3739870487
   15      C      -4.8730781045    -0.3751321124     2.2819575175
   16      H      -5.3839737993    -0.4007662615     1.3268671998
   17      C      -1.4782908458    -0.2828168899     5.9511704290
   18      H      -0.9038879832    -0.2918825601     6.8681299946
   19      C      -2.8512227856    -0.3527342115     6.0238717223
   20      H      -3.3397333749    -0.4175019004     6.9884592893
   21      C      -5.6243008067    -0.4621805411     3.4779713365
   22      H      -6.7009614086    -0.5474116253     3.4063676881
   23      C      -5.0337196351    -0.4483397136     4.7210000750
   24      H      -5.6479555176    -0.5224914705     5.6100819245
   25      B      -1.2113073966    -0.2562307868    -2.2261704997
   26      B       1.3620185480    -0.2781674927    -0.7425947931
   27      C       1.3683808952    -0.1479469762    -2.2936382669
   28      C       2.5752705723    -0.1267119199    -3.0049246182
   29      H       3.5171574573    -0.1569239492    -2.4681415731
   30      C       2.5628173101    -0.0914787651    -4.3884006504
   31      C       1.3299344993    -0.1041125554    -5.0799916952
   32      C       0.1356932414    -0.1376636966    -4.3893858539
   33      H      -0.8057726700    -0.1640808176    -4.9272907658
   34      C       0.1381473188    -0.1534515333    -2.9936525891
   35      C       1.6013416416    -0.1495222599    -6.5136895023
   36      C       0.8278659471    -0.2341937074    -7.6426823561
   37      H      -0.2543755238    -0.2376275472    -7.5964518119
   38      C       3.0010696064    -0.1631927531    -6.6457684100
   39      C       3.6630244798    -0.2639429829    -7.8655623073
   40      C       3.6361482778    -0.1284591921    -5.3887661510
   41      C       5.0051422738    -0.1772789587    -5.3548437433
   42      H       5.5550350822    -0.1602987196    -4.4222844570
   43      C       1.4743662890    -0.3256441316    -8.8983397539
   44      H       0.8656046423    -0.3915500167    -9.7908949011
   45      C       2.8448139673    -0.3418398885    -9.0201267054
   46      H       3.2974917427    -0.4211165221   -10.0011433989
   47      C       5.7102792195    -0.2589584311    -6.5811565356
   48      H       6.7914302799    -0.2937956856    -6.5516502406
   49      C       5.0761831157    -0.3051468843    -7.8016805274
   50      H       5.6585662446    -0.3786488005    -8.7120802647
   51      C       2.6869909571    -0.5745134149     0.0389036939
   52      C       3.6035830580     0.4328848521     0.3412468754
   53      C       4.7693305187     0.1478976176     1.0530958750
   54      H       5.4523019002     0.9590157042     1.2749201611
   55      C       5.0353943801    -1.1521252821     1.4592756783
   56      O       6.1343675356    -1.5272653827     2.1462004115
   57      C       4.1266676031    -2.1645561353     1.1535674643
   58      H       4.3434190308    -3.1787969012     1.4714261201
   59      C       2.9630094753    -1.8895541476     0.4561154841
   60      C       7.0862834557    -0.5460112842     2.4740063360
   61      H       7.8841891464    -1.0502161642     3.0150917010
   62      H       6.6709923627     0.2359292887     3.1175070412
   63      H       7.5150289341    -0.0713377885     1.5858323813
   64      C       3.3243116295     1.8657531713    -0.0371855624
   65      H       4.2640024837     2.3764316646    -0.2623256600
   66      H       2.7333141205     1.9084274977    -0.9565148954
   67      C       2.0407187813    -3.0312880443     0.1033910580
   68      H       2.1262831777    -3.8134094937     0.8616885872
   69      H       0.9977795233    -2.7052174166     0.1318257719
   70      C       2.5883659669     2.6265731238     1.0638685762
   71      H       1.6090845955     2.1890942604     1.2598429739
   72      H       2.4335499257     3.6686771112     0.7821369126
   73      H       3.1519488626     2.6108407048     1.9975838341
   74      C       2.3401204017    -3.6305764929    -1.2700277974
   75      H       2.2262908475    -2.8914125730    -2.0636355062
   76      H       3.3602332105    -4.0132739312    -1.3176336972
   77      H       1.6613553380    -4.4566304780    -1.4877646426
   78      C      -2.5549615826    -0.4849985765    -3.0135544904
   79      C      -2.8853743185    -1.7712802573    -3.4523900203
   80      C      -4.0805038604    -2.0104525106    -4.1301448404
   81      H      -4.3004207781    -3.0219125134    -4.4505917234
   82      C      -4.9645111070    -0.9709870361    -4.3786821383
   83      O      -6.1413170690    -1.1099660394    -5.0253328551
   84      C      -4.6445141489     0.3132218588    -3.9449205686
   85      H      -5.3367345160     1.1238078882    -4.1452397456
   86      C      -3.4584688472     0.5607746179    -3.2730710082
   87      C      -6.5078194021    -2.3867219202    -5.4879909421
   88      H      -7.4712551969    -2.2772927826    -5.9815813802
   89      H      -6.6163168778    -3.1083870329    -4.6722475489
   90      H      -5.7910424240    -2.7880040018    -6.2112647095
   91      C      -3.1311269848     1.9815018931    -2.8930585588
   92      H      -4.0549195100     2.5245780600    -2.6792569548
   93      H      -2.5479916907     2.0058881802    -1.9684146713
   94      C      -2.0033817310    -2.9548788366    -3.1450242830
   95      H      -0.9624753786    -2.6412611953    -3.0304677143
   96      H      -2.0108135896    -3.6486571413    -3.9900881582
   97      C      -2.3673722535     2.7103617428    -3.9969488786
   98      H      -1.4100900499     2.2307471833    -4.2018517568
   99      H      -2.9390060538     2.7188897540    -4.9257371795
  100      H      -2.1664496067     3.7446857642    -3.7159054832
  101      C      -2.4475081956    -3.6943009046    -1.8845765602
  102      H      -2.4286557314    -3.0373083744    -1.0143298613
  103      H      -3.4639419695    -4.0760047748    -1.9889025398
  104      H      -1.7914093985    -4.5409750514    -1.6778348049
 ----------------------------------------------------------------
 Nuclear Repulsion Energy =  7613.6476380413 hartrees
 There are      198 alpha and      198 beta electrons
 Discretize the solute cavity surface with Lebedev spheres
	Using 302 Lebedev grid points for each H atom
	Using 302 Lebedev grid points for other atoms
	Atomic van der Waals radii will be scaled by 1.20
 Remove points where switching function is < 1.0e-08
 Keep 10988 surface tesserae and discard 20420 interior tesserae
 Molecular Surface Area = 795.332 Angst**2
 Applying Cartesian multipole field
    Component          Value
    ---------          -----
     (2,0,0)        1.00000E-12
     (0,2,0)        2.00000E-11
     (0,0,2)       -3.00000E-12
 Nucleus-field energy     =     0.0000000033 hartrees
 Requested basis set is def2-mSVP
 There are 498 shells and 962 basis functions
 A cutoff of  1.0D-12 yielded  48358 shell pairs
 There are    187740 function pairs (    206621 Cartesian)
 Smallest overlap matrix eigenvalue = 1.97E-04
 Guess MOs from SCF MO coefficient file
 Reading MOs from coefficient file
 Reading MOs from coefficient file
 A restricted hybrid HF-DFT SCF calculation will be
 performed using Pulay DIIS extrapolation
 Polarizable Continuum solvation model will be applied
 Exchange:     0.4200 Hartree-Fock + 0.5800 PBEh-3c
 Correlation:  1.0000 PBEh-3c
 Using SG-1 standard quadrature grid
 Dispersion:   Grimme D3
 SCF converges when DIIS error is below 1.0E-09
 Geometry optimization detected.  Setting ReadMinima to 0
 Setting SaveMinima to 0
 using 4 threads for integral computing
 -------------------------------------------------------
 OpenMP Integral computing Module                
 Release: version 1.0, May 2013, Q-Chem Inc. Pittsburgh 
 -------------------------------------------------------
 ---------------------------------------
  Cycle       Energy         DIIS Error
 ---------------------------------------
    1   -2280.5850861914      1.20E-03
 Using non-symmetric K matrix
    2   -2280.7316086065      1.74E-04
    3   -2280.7360411684      1.55E-04
    4   -2280.7388002753      4.58E-05
    5   -2280.7390336411      2.01E-05
    6   -2280.7390816797      7.90E-06
    7   -2280.7390894976      2.28E-06
    8   -2280.7390901740      7.45E-07
    9   -2280.7390902485      2.09E-07
   10   -2280.7390902545      9.32E-08
   11   -2280.7390902553      3.31E-08
   12   -2280.7390902550      1.14E-08
   13   -2280.7390902535      4.78E-09
   14   -2280.7390902524      1.82E-09
   15   -2280.7390902519      5.94E-10 Convergence criterion met
 ---------------------------------------

************** Final PCM Free Energy Summary **************
 G_electrostatic  =      -0.02914605 hartree =     -18.28942184 kcal/mol
 G_cavitation     =       0.00000000 hartree =       0.00000000 kcal/mol
 G_dispersion     =       0.00000000 hartree =       0.00000000 kcal/mol
 G_repulsion      =       0.00000000 hartree =       0.00000000 kcal/mol
 --------------------------------------------------
[...]
H  57 1.084861 55 119.190507 53 179.630945 0
C  57 1.385464 55 120.758458 53 -0.312863 0
C  56 1.409520 55 118.414082 53 0.402395 0
H  60 1.087696 56 106.587320 55 179.798250 0
H  60 1.093798 56 112.120158 55 -61.447282 0
H  60 1.093845 56 112.124319 55 61.058434 0
C  52 1.507613 51 120.690124 50 2.507232 0
H  64 1.092786 52 109.620831 51 -149.747841 0
H  64 1.093600 52 110.357101 51 -33.598522 0
C  59 1.508750 57 118.852209 55 177.383362 0
H  67 1.092648 59 109.578628 57 33.741439 0
H  67 1.093431 59 110.386205 57 149.932930 0
C  64 1.527617 52 112.474241 51 88.512765 0
H  70 1.090383 64 111.315000 52 -61.115070 0
H  70 1.090579 64 111.106062 52 58.965270 0
H  70 1.090613 64 110.879902 52 179.052664 0
C  67 1.528144 59 112.551118 57 -87.882040 0
H  74 1.090393 67 111.435465 59 -60.544122 0
H  74 1.090591 67 111.085961 59 59.610647 0
H  74 1.090793 67 110.844474 59 179.568804 0
C  25 1.575084 1 120.014411 2 2.344775 0
C  78 1.397950 25 120.107589 1 81.977438 0
C  79 1.394100 78 120.974656 25 -179.340781 0
H  80 1.083478 79 118.464608 78 -179.822948 0
C  80 1.388094 79 120.270800 78 -0.085139 0
O  82 1.349411 80 124.466020 79 -179.917549 0
C  82 1.392596 80 119.181135 79 0.098813 0
H  84 1.084971 82 119.108968 80 179.732600 0
C  84 1.386208 82 120.847460 80 0.035022 0
C  83 1.410276 82 118.489133 80 0.060751 0
H  87 1.087710 83 106.581967 82 179.970877 0
H  87 1.093835 83 112.143033 82 61.229036 0
H  87 1.093857 83 112.165792 82 -61.296279 0
C  86 1.506575 84 118.390381 82 176.575856 0
H  91 1.092763 86 109.642329 84 38.283446 0
H  91 1.093584 86 110.548445 84 154.691173 0
C  79 1.508058 78 121.210373 25 3.641496 0
H  94 1.093174 79 109.665570 78 -142.434426 0
H  94 1.093304 79 110.563507 78 -26.215382 0
C  94 1.527203 79 112.052835 78 96.016811 0
H  97 1.090555 94 111.014770 79 -179.297349 0
H  97 1.090645 94 111.080238 79 -59.249517 0
H  97 1.090744 94 111.075085 79 60.625872 0
C  91 1.527673 86 111.914784 84 -83.078729 0
H  101 1.090337 91 111.185545 86 -60.665122 0
H  101 1.090514 91 111.039760 86 179.292707 0
H  101 1.090666 91 110.966191 86 59.192642 0
$end

 
 --------------------------------------------------------------
 
                    Orbital Energies (a.u.)
 --------------------------------------------------------------
 
 Alpha MOs
 -- Occupied --
-19.527 -19.527 -10.505 -10.505 -10.483 -10.482 -10.467 -10.467
-10.466 -10.466 -10.465 -10.465 -10.464 -10.464 -10.464 -10.464
-10.464 -10.464 -10.461 -10.461 -10.461 -10.461 -10.461 -10.461
-10.458 -10.458 -10.458 -10.458 -10.457 -10.457 -10.454 -10.454
-10.453 -10.453 -10.453 -10.452 -10.449 -10.449 -10.438 -10.437
-10.436 -10.436 -10.435 -10.435 -10.435 -10.435 -10.435 -10.434
-10.433 -10.432 -10.421 -10.421 -10.421 -10.420 -10.420 -10.419
 -6.952  -6.951  -1.183  -1.182  -1.018  -1.018  -0.965  -0.961
 -0.958  -0.956  -0.933  -0.933  -0.911  -0.902  -0.890  -0.890
 -0.868  -0.865  -0.856  -0.855  -0.847  -0.846  -0.826  -0.822
 -0.819  -0.814  -0.813  -0.806  -0.803  -0.802  -0.774  -0.773
 -0.735  -0.729  -0.727  -0.721  -0.713  -0.713  -0.704  -0.703
 -0.689  -0.682  -0.680  -0.666  -0.658  -0.648  -0.647  -0.646
 -0.632  -0.631  -0.594  -0.594  -0.590  -0.587  -0.584  -0.583
 -0.583  -0.575  -0.574  -0.564  -0.564  -0.545  -0.543  -0.537
 -0.533  -0.533  -0.527  -0.523  -0.514  -0.508  -0.504  -0.504
 -0.503  -0.501  -0.500  -0.496  -0.495  -0.491  -0.489  -0.488
 -0.487  -0.485  -0.484  -0.482  -0.481  -0.479  -0.476  -0.466
 -0.463  -0.460  -0.459  -0.457  -0.454  -0.453  -0.444  -0.439
 -0.437  -0.436  -0.434  -0.431  -0.430  -0.428  -0.425  -0.419
 -0.414  -0.413  -0.410  -0.407  -0.401  -0.401  -0.398  -0.397
 -0.396  -0.394  -0.393  -0.392  -0.391  -0.389  -0.384  -0.383
 -0.380  -0.373  -0.364  -0.364  -0.361  -0.359  -0.356  -0.353
 -0.342  -0.340  -0.321  -0.315  -0.297  -0.296  -0.284  -0.279
 -0.278  -0.264  -0.260  -0.257  -0.254  -0.252
 -- Virtual --
 -0.094  -0.061  -0.039  -0.031  -0.007   0.004   0.012   0.020
  0.023   0.034   0.036   0.043   0.067   0.080   0.084   0.090
  0.115   0.122   0.144   0.151   0.152   0.153   0.159   0.161
  0.162   0.163   0.165   0.166   0.168   0.171   0.174   0.177
  0.182   0.186   0.188   0.191   0.194   0.195   0.198   0.199
  0.202   0.203   0.205   0.205   0.206   0.207   0.209   0.211
  0.214   0.217   0.219   0.221   0.221   0.222   0.223   0.224
  0.225   0.227   0.230   0.231   0.232   0.234   0.236   0.238
  0.240   0.242   0.247   0.249   0.251   0.252   0.253   0.255
  0.261   0.264   0.268   0.269   0.271   0.274   0.280   0.285
  0.285   0.287   0.290   0.293   0.295   0.299   0.303   0.310
  0.312   0.312   0.312   0.315   0.322   0.325   0.326   0.329
  0.333   0.335   0.337   0.343   0.349   0.351   0.355   0.363
  0.372   0.379   0.388   0.393   0.398   0.403   0.404   0.412
  0.416   0.420   0.422   0.427   0.437   0.445   0.448   0.450
  0.454   0.458   0.464   0.466   0.471   0.477   0.481   0.487
  0.490   0.493   0.497   0.498   0.501   0.501   0.503   0.511
  0.520   0.522   0.523   0.524   0.525   0.526   0.527   0.530
  0.532   0.533   0.536   0.539   0.540   0.542   0.543   0.549
  0.550   0.552   0.554   0.556   0.558   0.562   0.564   0.565
  0.567   0.569   0.571   0.573   0.581   0.582   0.584   0.585
  0.586   0.586   0.587   0.589   0.592   0.593   0.594   0.597
  0.598   0.599   0.602   0.606   0.613   0.616   0.617   0.617
  0.619   0.621   0.624   0.629   0.630   0.633   0.636   0.638
  0.643   0.647   0.651   0.652   0.654   0.655   0.658   0.658
  0.661   0.662   0.662   0.666   0.671   0.675   0.677   0.678
  0.682   0.683   0.696   0.699   0.703   0.705   0.708   0.711
  0.713   0.716   0.718   0.719   0.726   0.730   0.731   0.734
  0.741   0.742   0.746   0.749   0.752   0.755   0.756   0.766
  0.772   0.773   0.774   0.778   0.783   0.786   0.787   0.789
  0.791   0.793   0.803   0.804   0.813   0.819   0.828   0.832
  0.837   0.839   0.843   0.845   0.849   0.854   0.858   0.863
  0.876   0.880   0.887   0.897   0.899   0.903   0.905   0.908
  0.912   0.918   0.921   0.934   0.940   0.944   0.949   0.951
  0.953   0.960   0.960   0.963   0.964   0.974   0.979   0.984
  0.987   0.988   0.989   0.992   0.993   0.994   0.996   1.001
  1.004   1.005   1.008   1.008   1.010   1.012   1.020   1.024
  1.026   1.030   1.032   1.034   1.037   1.037   1.039   1.042
  1.044   1.049   1.051   1.052   1.055   1.057   1.062   1.065
  1.069   1.070   1.074   1.078   1.079   1.080   1.081   1.085
  1.087   1.091   1.095   1.097   1.099   1.102   1.105   1.123
  1.123   1.126   1.127   1.131   1.141   1.142   1.147   1.148
  1.153   1.157   1.160   1.164   1.167   1.170   1.176   1.179
  1.182   1.183   1.186   1.191   1.204   1.212   1.219   1.221
  1.223   1.241   1.242   1.246   1.258   1.261   1.264   1.267
  1.270   1.272   1.276   1.285   1.288   1.292   1.296   1.298
  1.299   1.299   1.302   1.311   1.314   1.318   1.325   1.329
  1.333   1.337   1.343   1.347   1.353   1.357   1.362   1.364
  1.366   1.371   1.374   1.377   1.382   1.385   1.398   1.406
  1.408   1.410   1.413   1.417   1.424   1.431   1.433   1.437
  1.440   1.440   1.441   1.448   1.451   1.455   1.464   1.475
  1.477   1.491   1.510   1.511   1.511   1.515   1.515   1.518
  1.518   1.522   1.525   1.529   1.531   1.531   1.532   1.539
  1.541   1.545   1.549   1.556   1.562   1.562   1.568   1.569
  1.577   1.584   1.586   1.587   1.590   1.596   1.601   1.612
  1.616   1.619   1.624   1.625   1.635   1.643   1.651   1.652
  1.659   1.668   1.681   1.697   1.704   1.713   1.738   1.747
  1.751   1.753   1.754   1.758   1.771   1.772   1.780   1.783
  1.788   1.790   1.797   1.805   1.806   1.807   1.808   1.810
  1.811   1.815   1.817   1.820   1.836   1.845   1.858   1.862
  1.882   1.892   1.899   1.903   1.905   1.917   1.919   1.924
  1.935   1.937   1.939   1.945   1.949   1.966   1.972   1.975
  1.980   1.981   1.985   1.987   1.990   1.994   1.997   1.999
  2.021   2.022   2.028   2.031   2.033   2.039   2.041   2.045
  2.052   2.054   2.062   2.066   2.072   2.074   2.079   2.081
  2.082   2.086   2.096   2.102   2.108   2.111   2.111   2.116
  2.126   2.128   2.132   2.135   2.151   2.154   2.155   2.158
  2.160   2.162   2.164   2.167   2.168   2.184   2.195   2.198
  2.202   2.202   2.203   2.220   2.230   2.230   2.232   2.249
  2.250   2.256   2.258   2.261   2.263   2.266   2.272   2.274
  2.278   2.286   2.290   2.292   2.306   2.314   2.320   2.320
  2.321   2.322   2.330   2.331   2.333   2.336   2.338   2.342
  2.343   2.348   2.351   2.354   2.357   2.358   2.360   2.366
  2.368   2.372   2.387   2.387   2.389   2.395   2.396   2.409
  2.413   2.415   2.421   2.422   2.427   2.428   2.433   2.436
  2.445   2.449   2.467   2.469   2.472   2.474   2.475   2.485
  2.489   2.490   2.493   2.496   2.516   2.517   2.521   2.523
  2.530   2.547   2.556   2.565   2.570   2.587   2.611   2.625
  2.627   2.631   2.642   2.643   2.645   2.645   2.653   2.665
  2.681   2.685   2.686   2.688   2.710   2.716   2.719   2.726
  2.728   2.732   2.732   2.750   2.757   2.762   2.771   2.773
  2.774   2.782   2.784   2.787   2.789   2.789   2.792   2.796
  2.805   2.808   2.812   2.815   2.820   2.821   2.842   2.850
  2.854   2.859   2.872   2.875   2.894   2.897   2.901   2.903
  2.918   2.927   2.939   2.940   2.955   2.979   2.997   3.005
  3.009   3.026   3.046   3.059   3.077   3.078   3.081   3.082
  3.100   3.111   3.118   3.234   3.252   3.255   3.312   3.313
  3.402   3.440   3.446   3.488   3.491   3.494   3.543   3.552
  3.664   3.678   9.579   9.732  13.141  13.176  13.401  13.476
 13.494  13.513  13.526  13.548  13.672  13.678  13.725  13.758
 13.766  13.773  13.773  13.793  13.801  13.805  13.859  13.875
 13.882  13.899  13.920  13.985  13.997  14.019  14.034  14.038
 14.039  14.044  14.048  14.050  14.154  14.161  14.161  14.197
 14.219  14.223  14.223  14.274  14.284  14.289  14.307  14.312
 14.342  14.343  14.510  14.515  14.559  14.570  14.574  14.581
 14.582  14.584  25.785  25.785
 --------------------------------------------------------------
 
          Ground-State Mulliken Net Atomic Charges

     Atom                 Charge (a.u.)
  ----------------------------------------
      1 C                    -0.153349
      2 C                    -0.400369
      3 H                     0.250086
      4 C                     0.094936
      5 C                     0.068327
      6 C                    -0.390996
      7 H                     0.248100
      8 C                    -0.154630
      9 C                     0.178750
     10 C                    -0.397981
     11 H                     0.252480
     12 C                    -0.066900
     13 C                     0.221580
     14 C                     0.177754
     15 C                    -0.388465
     16 H                     0.252561
     17 C                    -0.231784
     18 H                     0.257164
     19 C                    -0.350664
     20 H                     0.254585
     21 C                    -0.234719
     22 H                     0.257656
     23 C                    -0.346361
     24 H                     0.254188
     25 B                     0.656805
     26 B                     0.656275
     27 C                    -0.155277
     28 C                    -0.398628
     29 H                     0.249630
     30 C                     0.095989
     31 C                     0.068278
     32 C                    -0.391071
     33 H                     0.250723
     34 C                    -0.153119
     35 C                     0.178091
     36 C                    -0.390196
     37 H                     0.252019
     38 C                    -0.066890
     39 C                     0.221004
     40 C                     0.179759
     41 C                    -0.399448
     42 H                     0.252055
     43 C                    -0.234185
     44 H                     0.257611
     45 C                    -0.345978
     46 H                     0.254272
     47 C                    -0.231375
     48 H                     0.256977
     49 C                    -0.350630
     50 H                     0.254705
     51 C                    -0.223185
     52 C                     0.074346
     53 C                    -0.447351
     54 H                     0.254728
     55 C                     0.389282
     56 O                    -0.469680
     57 C                    -0.403607
     58 H                     0.238417
     59 C                     0.066830
     60 C                    -0.428812
     61 H                     0.253546
     62 H                     0.220173
     63 H                     0.220201
     64 C                    -0.552825
     65 H                     0.241121
     66 H                     0.253569
     67 C                    -0.556132
     68 H                     0.243465
     69 H                     0.255690
     70 C                    -0.657412
     71 H                     0.238470
     72 H                     0.228191
     73 H                     0.221554
     74 C                    -0.657298
     75 H                     0.238010
     76 H                     0.222793
     77 H                     0.227320
     78 C                    -0.230943
     79 C                     0.063928
     80 C                    -0.443625
     81 H                     0.254979
     82 C                     0.389121
     83 O                    -0.470149
     84 C                    -0.397069
     85 H                     0.238190
     86 C                     0.070923
     87 C                    -0.428752
     88 H                     0.253592
     89 H                     0.220428
     90 H                     0.220356
     91 C                    -0.552007
     92 H                     0.242787
     93 H                     0.252238
     94 C                    -0.555086
     95 H                     0.257422
     96 H                     0.242272
     97 C                    -0.656289
     98 H                     0.235678
     99 H                     0.222799
    100 H                     0.227923
    101 C                    -0.653754
    102 H                     0.235173
    103 H                     0.221438
    104 H                     0.227677
  ----------------------------------------
  Sum of atomic charges =    -0.000000

 -----------------------------------------------------------------
                    Cartesian Multipole Moments
 -----------------------------------------------------------------
    Charge (ESU x 10^10)
                -0.0000
    Dipole Moment (Debye)
         X       0.2188      Y      -0.0899      Z      -0.3840
       Tot       0.4510
    Quadrupole Moments (Debye-Ang)
        XX    -277.4632     XY      21.5418     YY    -333.8855
        XZ      -3.2777     YZ      12.3484     ZZ    -272.9242
    Octopole Moments (Debye-Ang^2)
       XXX       1.5714    XXY     160.5021    XYY     -58.3765
       YYY     504.7766    XXZ     420.6389    XYZ     -42.6099
       YYZ     475.1604    XZZ     -21.9707    YZZ      96.7906
       ZZZ    1204.9944
    Hexadecapole Moments (Debye-Ang^3)
      XXXX  -21843.0695   XXXY     735.8902   XXYY   -4932.7605
      XYYY    -193.1706   YYYY   -4243.6713   XXXZ    1889.2386
      XXYZ     341.9175   XYYZ    1262.9281   YYYZ    -713.5758
      XXZZ   -8080.9791   XYZZ     360.8988   YYZZ   -6962.4295
      XZZZ     934.9055   YZZZ    -375.5544   ZZZZ  -28768.1983
 -----------------------------------------------------------------
Archival summary:
1\1\ctcp026\OPT\ProcedureUnspecified\BasisUnspecified\254246\mewes\ThuOct2509:25:402018ThuOct2509:25:402018\0\\#,OPT,ProcedureUnspecified,BasisUnspecified,\\0,1\C\C,1,1.39528\H,2,1.08443,1,120.14\C,2,1.3803,1,119.892,3,-179.804,0\C,4,1.41294,2,120.862,1,0.351012,0\C,5,1.38463,4,119.596,2,0.00961487,0\H,6,1.08429,5,120.065,4,179.183,0\C,6,1.40159,5,120.106,4,-0.479618,0\C,4,1.45914,2,130.43,1,179.92,0\C,9,1.37158,4,134.952,2,0.359075,0\H,10,1.08327,9,121.949,4,0.166506,0\C,9,1.40558,4,106.052,2,-179.508,0\C,12,1.3919,9,123.743,4,179.795,0\C,12,1.4088,9,111.448,4,-0.0446953,0\C,14,1.37075,12,117.987,9,179.816,0\H,15,1.08274,14,121.938,12,-179.909,0\C,13,1.41515,12,115.988,9,-179.818,0\H,17,1.08326,13,120.101,12,179.979,0\C,17,1.37635,13,119.857,12,0.0205745,0\H,19,1.08214,17,118.95,13,179.955,0\C,10,1.41538,9,118.459,4,-179.822,0\H,21,1.08243,10,118.571,9,-180,0\C,21,1.37639,10,122.28,9,0.0336332,0\H,23,1.08328,21,119.884,10,179.935,0\B,1,1.55529,2,119.536,3,0.277309,0\C,25,1.55648,1,119.075,2,-178.804,0\C,26,1.39546,25,119.595,1,178.248,0\H,27,1.08461,26,119.979,25,-0.338596,0\C,27,1.38142,26,119.986,25,179.499,0\C,29,1.4131,27,120.831,26,-0.423133,0\C,30,1.38576,29,119.558,27,0.244416,0\H,31,1.08446,30,120.039,29,-179.948,0\C,31,1.4015,30,120.149,29,0.037491,0\C,29,1.45819,27,130.416,26,-179.967,0\C,34,1.37119,29,134.805,27,-0.366227,0\H,35,1.08341,34,121.969,29,-0.107144,0\C,34,1.40638,29,106.004,27,179.552,0\C,37,1.39037,34,123.715,29,-179.864,0\C,37,1.40964,34,111.444,29,0.0318642,0\C,39,1.37035,37,118.123,34,-179.9,0\H,40,1.08288,39,121.977,37,179.957,0\C,35,1.41498,34,118.274,29,179.882,0\H,42,1.08238,35,118.586,34,179.999,0\C,42,1.37683,35,122.292,34,-0.0181652,0\H,44,1.08319,42,119.771,35,-179.972,0\C,38,1.4157,37,115.86,34,179.905,0\H,46,1.08308,38,120.099,37,-179.998,0\C,46,1.37657,38,119.948,37,-0.0203353,0\H,48,1.08209,46,118.923,38,-179.967,0\B,8,1.55867,6,120.33,5,179.008,0\C,50,1.56792,8,119.818,6,-2.09472,0\C,51,1.39733,50,121.115,8,81.0017,0\C,52,1.39453,51,120.621,50,179.622,0\H,53,1.08333,52,118.6,51,-179.577,0\C,53,1.3895,52,120.18,51,0.359837,0\O,55,1.34932,53,124.407,52,-179.999,0\C,55,1.39326,53,119.424,52,0.0531937,0\H,57,1.08486,55,119.191,53,179.631,0\C,57,1.38546,55,120.758,53,-0.312863,0\C,56,1.40952,55,118.414,53,0.402395,0\H,60,1.0877,56,106.587,55,179.798,0\H,60,1.0938,56,112.12,55,-61.4473,0\H,60,1.09384,56,112.124,55,61.0584,0\C,52,1.50761,51,120.69,50,2.50723,0\H,64,1.09279,52,109.621,51,-149.748,0\H,64,1.0936,52,110.357,51,-33.5985,0\C,59,1.50875,57,118.852,55,177.383,0\H,67,1.09265,59,109.579,57,33.7414,0\H,67,1.09343,59,110.386,57,149.933,0\C,64,1.52762,52,112.474,51,88.5128,0\H,70,1.09038,64,111.315,52,-61.1151,0\H,70,1.09058,64,111.106,52,58.9653,0\H,70,1.09061,64,110.88,52,179.053,0\C,67,1.52814,59,112.551,57,-87.882,0\H,74,1.09039,67,111.435,59,-60.5441,0\H,74,1.09059,67,111.086,59,59.6106,0\H,74,1.09079,67,110.844,59,179.569,0\C,25,1.57508,1,120.014,2,2.34477,0\C,78,1.39795,25,120.108,1,81.9774,0\C,79,1.3941,78,120.975,25,-179.341,0\H,80,1.08348,79,118.465,78,-179.823,0\C,80,1.38809,79,120.271,78,-0.0851392,0\O,82,1.34941,80,124.466,79,-179.918,0\C,82,1.3926,80,119.181,79,0.0988134,0\H,84,1.08497,82,119.109,80,179.733,0\C,84,1.38621,82,120.847,80,0.035022,0\C,83,1.41028,82,118.489,80,0.0607514,0\H,87,1.08771,83,106.582,82,179.971,0\H,87,1.09383,83,112.143,82,61.229,0\H,87,1.09386,83,112.166,82,-61.2963,0\C,86,1.50658,84,118.39,82,176.576,0\H,91,1.09276,86,109.642,84,38.2834,0\H,91,1.09358,86,110.548,84,154.691,0\C,79,1.50806,78,121.21,25,3.6415,0\H,94,1.09317,79,109.666,78,-142.434,0\H,94,1.0933,79,110.564,78,-26.2154,0\C,94,1.5272,79,112.053,78,96.0168,0\H,97,1.09055,94,111.015,79,-179.297,0\H,97,1.09064,94,111.08,79,-59.2495,0\H,97,1.09074,94,111.075,79,60.6259,0\C,91,1.52767,86,111.915,84,-83.0787,0\H,101,1.09034,91,111.186,86,-60.6651,0\H,101,1.09051,91,111.04,86,179.293,0\H,101,1.09067,91,110.966,86,59.1926,0\\\@

 Total job time:  45626.50s(wall), 105365.84s(cpu) 
 Thu Oct 25 09:25:40 2018

        *************************************************************
        *                                                           *
        *  Thank you very much for using Q-Chem.  Have a nice day.  *
        *                                                           *
        *************************************************************


0 sent ACK to 0 
now end server 0 ... 
