mFile = /cm/shared/apps/q-chem/intel/QCHEM_5.0.1_Trunk/bin/mpi/machines
Process 0 of 1 is on ctcp044 - thread support 0
initial socket setup ...start
initial socket setup ...done 
now start server 0 ... 
ctcp044.cm.cluster 10.141.0
Q-Chem Developer Version! Running on 10.141.0.*
                  Welcome to Q-Chem
     A Quantum Leap Into The Future Of Chemistry


 Q-Chem 5.0, Q-Chem, Inc., Pleasanton, CA (2017)

 Yihan Shao,  Zhengting Gan,  E. Epifanovsky,  A. T. B. Gilbert,  M. Wormit,  
 J. Kussmann,  A. W. Lange,  A. Behn,  Jia Deng,  Xintian Feng,  D. Ghosh,  
 M. Goldey,  P. R. Horn,  L. D. Jacobson,  I. Kaliman,  T. Kus,  A. Landau,  
 Jie Liu,  E. I. Proynov,  R. M. Richard,  R. P. Steele,  E. J. Sundstrom,  
 H. L. Woodcock III,  P. M. Zimmerman,  D. Zuev,  B. Albrecht,  E. Alguire,  
 S. A. Baeppler,  Z. Benda,  Y. A. Bernard,  E. J. Berquist,  K. B. Bravaya,  
 D. Casanova,  Chun-Min Chang,  Yunqing Chen,  A. Chien,  K. D. Closser,  
 M. P. Coons,  S. Dasgupta,  M. Diedenhofen,  Hainam Do,  R. G. Edgar,  
 Po-Tung Fang,  S. Fatehi,  Qingguo Feng,  Qinghui Ge,  A. Ghysels,  
 J. Gomes,  J. Gonthier,  A. Gunina,  M. W. D. Hanson-Heine,  
 P. H. P. Harbach,  A. W. Hauser,  J. E. Herr,  E. G. Hohenstein,  
 Z. C. Holden,  Kerwin Hui,  T.-C. Jagau,  Hyunjun Ji,  B. Kaduk,  
 K. Khistyaev,  Jaehoon Kim,  P. Klunzinger,  K. Koh,  D. Kosenkov,  
 T. Kowalczyk,  C. M. Krauter,  A. Kunitsa,  Ka Un Lao,  A. Laurent,  
 K. V. Lawler,  Joonho Lee,  D. Lefrancois,  S. Lehtola,  D. S. Levine,  
 Yi-Pei Li,  You-Sheng Lin,  Fenglai Liu,  E. Livshits,  A. Luenser,  
 P. Manohar,  E. Mansoor,  S. F. Manzer,  Shan-Ping Mao,  Yuezhi Mao,  
 N. Mardirossian,  A. V. Marenich,  L. A. Martinez-Martinez,  S. A. Maurer,  
 N. J. Mayhall,  S. C. McKenzie,  J.-M. Mewes,  A. F. Morrison,  K. Nanda,  
 T. S. Nguyen-Beck,  R. Olivares-Amaya,  J. A. Parkhill,  T. M. Perrine,  
 F. Plasser,  S. Prager,  A. Prociuk,  D. R. Rehn,  F. Rob,  M. Schneider,  
 N. Sergueev,  S. M. Sharada,  S. Sharma,  D. W. Small,  T. Stauch,  
 T. Stein,  Yu-Chuan Su,  A. J. W. Thom,  T. Tsuchimochi,  L. Vogt,  
 O. Vydrov,  M. A. Watson,  J. Wenzel,  M. de Wergifosse,  T. A. Wesolowski,  
 A. White,  J. Witte,  A. Yamada,  Jun Yang,  K. Yao,  S. Yeganeh,  
 S. R. Yost,  Zhi-Qiang You,  A. Zech,  Igor Ying Zhang,  Xing Zhang,  
 Yan Zhao,  Ying Zhu,  B. R. Brooks,  G. K. L. Chan,  C. J. Cramer,  
 M. S. Gordon,  W. J. Hehre,  A. Klamt,  M. W. Schmidt,  C. D. Sherrill,  
 D. G. Truhlar,  A. Aspuru-Guzik,  R. Baer,  A. T. Bell,  N. A. Besley,  
 Jeng-Da Chai,  A. Dreuw,  B. D. Dunietz,  T. R. Furlani,  Chao-Ping Hsu,  
 Yousung Jung,  Jing Kong,  D. S. Lambrecht,  WanZhen Liang,  C. Ochsenfeld,  
 V. A. Rassolov,  L. V. Slipchenko,  J. E. Subotnik,  T. Van Voorhis,  
 J. M. Herbert,  A. I. Krylov,  P. M. W. Gill,  M. Head-Gordon

 Contributors to earlier versions of Q-Chem not listed above: 
 R. D. Adamson,  B. Austin,  J. Baker,  G. J. O. Beran,  K. Brandhorst,  
 S. T. Brown,  E. F. C. Byrd,  A. K. Chakraborty,  C.-L. Cheng,  
 Siu Hung Chien,  D. M. Chipman,  D. L. Crittenden,  H. Dachsel,  
 R. A. DiStasio Jr.,  R. J. Doerksen,  A. D. Dutoi,  L. Fusti-Molnar,  
 W. A. Goddard III,  A. Golubeva-Zadorozhnaya,  S. R. Gwaltney,  G. Hawkins,  
 A. Heyden,  S. Hirata,  G. Kedziora,  F. J. Keil,  C. Kelley,  Jihan Kim,  
 R. A. King,  R. Z. Khaliullin,  P. P. Korambath,  W. Kurlancheek,  
 A. M. Lee,  M. S. Lee,  S. V. Levchenko,  Ching Yeh Lin,  D. Liotard,  
 R. C. Lochan,  I. Lotan,  P. E. Maslen,  N. Nair,  D. P. O'Neill,  
 D. Neuhauser,  E. Neuscamman,  C. M. Oana,  R. Olson,  B. Peters,  
 R. Peverati,  P. A. Pieniazek,  Y. M. Rhee,  J. Ritchie,  M. A. Rohrdanz,  
 E. Rosta,  N. J. Russ,  H. F. Schaefer III,  N. E. Schultz,  N. Shenvi,  
 A. C. Simmonett,  A. Sodt,  D. Stuck,  K. S. Thanthiriwatte,  V. Vanovschi,  
 Tao Wang,  A. Warshel,  C. F. Williams,  Q. Wu,  X. Xu,  W. Zhang

 Please cite Q-Chem as follows:
 Y. Shao et al., Mol. Phys. 113, 184-215 (2015)
 DOI: 10.1080/00268976.2014.952696

 Q-Chem 5.0.1 for Intel X86 EM64T Linux

 Parts of Q-Chem use Armadillo 5.200.1 (Boston Tea Smuggler).
 http://arma.sourceforge.net/

 Q-Chem begins on Wed Oct 24 20:57:44 2018  

Host: ctcp044
0

     Scratch files written to /scratch/mewes/138301/qchem18012//
 Parallel job on  1  processors
The previous job contains 0 fragments, simply inherited here
Symmetry turned off for PCM/SM12/SMD calculation

Checking the input file for inconsistencies... 	...done.

--------------------------------------------------------------
User input:
--------------------------------------------------------------
$rem
threads 4
jobtype	opt
method PBEh-3c
basis def2-mSVP
mem_static	1024
mem_total	4000
sym_ignore	true
scf_convergence	9
solvent_method	pcm
$end

$molecule
read gsopt.mol
$end

$solvent
dielectric	4.33 
$end

$pcm
theory iefpcm
$end
--------------------------------------------------------------
 Adding empirical dispersion correction 
 ----------------------------------------------------------------
 Doing -D3(BJ) with
 s6 =   1.00000
 s8 =   0.00000
 a1 =   0.48600
 a2 =   4.50000
 -D3 energy including 3body term =     -0.0962387435 hartrees
 ----------------------------------------------------------------
 Adding gCP correction 
 ----------------------------------------------------------------
 gCP energy =      0.1524426683 hartrees
 ----------------------------------------------------------------
             Standard Nuclear Orientation (Angstroms)
    I     Atom           X                Y                Z
 ----------------------------------------------------------------
    1      C       0.0000000000     0.0000000000     0.0000000000
    2      C       0.0000000000     0.0000000000     1.3978960000
    3      H       0.9412462225     0.0000000000     1.9360806975
    4      C      -1.1947814913    -0.0595104967     2.0875737963
    5      C      -2.4168610964    -0.1530119778     1.3852269249
    6      C      -2.4276371305    -0.1468403787     0.0043647626
    7      H      -3.3617658954    -0.2490713641    -0.5369272955
    8      C      -1.2247971873    -0.0531637863    -0.7026245093
    9      C      -1.4846158277    -0.1555170999     3.5194075821
   10      C      -0.7347188355    -0.1721574223     4.6654852595
   11      H       0.3427305260    -0.0676222146     4.6454462642
   12      C      -2.8773698484    -0.3208090706     3.6270787999
   13      C      -3.5519234285    -0.5212378768     4.8269563917
   14      C      -3.4931883247    -0.3338675170     2.3619536827
   15      C      -4.8432826315    -0.5583275780     2.2944630376
   16      H      -5.3705973893    -0.5993244796     1.3495128748
   17      C      -1.3951125232    -0.3496536746     5.9042967980
   18      H      -0.8014568575    -0.3638167740     6.8089977128
   19      C      -2.7559756933    -0.5214226819     5.9971360722
   20      H      -3.2166466391    -0.6712186596     6.9660429340
   21      C      -5.5580246506    -0.7583013085     3.4994487968
   22      H      -6.6235754222    -0.9396042186     3.4440655859
   23      C      -4.9470033968    -0.7409182331     4.7308176173
   24      H      -5.5327184446    -0.9097859184     5.6262808028
   25      B      -1.2232209851    -0.1248265642    -2.2561417093
   26      B       1.3455201432    -0.0932141885    -0.7756946139
   27      C       1.3526628012     0.0316181824    -2.3278414633
   28      C       2.5588022158     0.0429620106    -3.0358598828
   29      H       3.4966274394     0.0190536769    -2.4917269130
   30      C       2.5513743594     0.0246327737    -4.4184424395
   31      C       1.3243350854    -0.0333835186    -5.1159610749
   32      C       0.1275933878    -0.0403176530    -4.4265666084
   33      H      -0.8129181985    -0.1190583755    -4.9610099844
   34      C       0.1246109033    -0.0031481590    -3.0297022297
   35      C       1.6121767912    -0.1985158970    -6.5384443507
   36      C       0.8538842239    -0.4045883479    -7.6598131297
   37      H      -0.2284585429    -0.4184842989    -7.6236466380
   38      C       3.0136933508    -0.2201046625    -6.6553672906
   39      C       3.6922351328    -0.4469614126    -7.8469547611
   40      C       3.6340871553    -0.0779402891    -5.3996417203
   41      C       5.0009142549    -0.1347134824    -5.3387766631
   42      H       5.5353668816    -0.0496001791    -4.4008974420
   43      C       1.5166188252    -0.6253482287    -8.8897696764
   44      H       0.9192974616    -0.7930211243    -9.7764879565
   45      C       2.8875024771    -0.6486941959    -8.9940720286
   46      H       3.3508582909    -0.8354848689    -9.9550582837
   47      C       5.7228258236    -0.3329534953    -6.5399556568
   48      H       6.8028116561    -0.3795610551    -6.4904949655
   49      C       5.1042523469    -0.4910441767    -7.7578564947
   50      H       5.6990672828    -0.6627125160    -8.6465258969
   51      C       2.6511983885    -0.4578581997     0.0142143258
   52      C       3.6031894266     0.5012601528     0.3590994077
   53      C       4.7450122487     0.1490898722     1.0793072411
   54      H       5.4573076920     0.9252596351     1.3314595106
   55      C       4.9505719949    -1.1690235400     1.4585351849
   56      O       6.0221882386    -1.6127341761     2.1483601387
   57      C       4.0028467111    -2.1311786309     1.1203400399
   58      H       4.1723893555    -3.1591182842     1.4208246615
   59      C       2.8645275913    -1.7915929719     0.4123975855
   60      C       7.0167584750    -0.6925126030     2.5061745445
   61      H       7.7813179337    -1.2521806142     3.0411446768
   62      H       6.6381861928     0.0948268363     3.1664638985
   63      H       7.4797366372    -0.2198217050     1.6335561132
   64      C       3.3864142604     1.9555760607     0.0291462960
   65      H       4.3481525283     2.4343709494    -0.1735045637
   66      H       2.8040366366     2.0545737263    -0.8911280462
   67      C       1.9013424644    -2.8891351224     0.0316629671
   68      H       1.9433225521    -3.6819562345     0.7827816465
   69      H       0.8721086526    -2.5218139845     0.0512146509
   70      C       2.6772863259     2.7049087708     1.1555075309
   71      H       1.6809362856     2.3001829789     1.3329921558
   72      H       2.5650986513     3.7625602702     0.9147586295
   73      H       3.2351546205     2.6303869284     2.0897996483
   74      C       2.2000968795    -3.4861591577    -1.3425137951
   75      H       2.1310465954    -2.7354040570    -2.1298548560
   76      H       3.2047388539    -3.9085660487    -1.3767087808
   77      H       1.4928927054    -4.2821595705    -1.5805926179
   78      C      -2.5645530306    -0.4003713850    -3.0261501349
   79      C      -2.8704855949    -1.6996591170    -3.4395332487
   80      C      -4.0637056050    -1.9700877878    -4.1074187675
   81      H      -4.2640267338    -2.9901040502    -4.4132875518
   82      C      -4.9686856831    -0.9513568344    -4.3666971768
   83      O      -6.1437753824    -1.1193397312    -5.0091361356
   84      C      -4.6752881388     0.3434513873    -3.9481767549
   85      H      -5.3875082880     1.1346780322    -4.1529611246
   86      C      -3.4920716117     0.6216134516    -3.2857337631
   87      C      -6.4787524119    -2.4023143503    -5.4649188224
   88      H      -7.4461782475    -2.3159250633    -5.9554031471
   89      H      -6.5680015074    -3.1255814791    -4.6475303920
   90      H      -5.7554420120    -2.7884643249    -6.1909194607
   91      C      -3.1881127570     2.0476157969    -2.9083302468
   92      H      -4.1211031116     2.5794521459    -2.7056994660
   93      H      -2.6166856062     2.0824509379    -1.9764856199
   94      C      -1.9616243257    -2.8592264971    -3.1139892956
   95      H      -0.9268680413    -2.5217302493    -3.0126612488
   96      H      -1.9577478056    -3.5685513294    -3.9462840399
   97      C      -2.4171546162     2.7813818391    -4.0030347905
   98      H      -1.4493995717     2.3149328948    -4.1871167778
   99      H      -2.9720164590     2.7757694607    -4.9416120376
  100      H      -2.2354193654     3.8199720295    -3.7247924282
  101      C      -2.3793572058    -3.5835174235    -1.8352841078
  102      H      -2.3671709163    -2.9098999832    -0.9780403067
  103      H      -3.3882839003    -3.9883064019    -1.9220068563
  104      H      -1.7038925759    -4.4119403823    -1.6172450800
 ----------------------------------------------------------------
 Nuclear Repulsion Energy =  7631.1316720726 hartrees
 There are      198 alpha and      198 beta electrons
 Requested basis set is def2-mSVP
 There are 498 shells and 962 basis functions

 Total QAlloc Memory Limit   4000 MB
 Mega-Array Size      1001 MB
 MEM_STATIC part      1024 MB
 Discretize the solute cavity surface with Lebedev spheres
	Using 302 Lebedev grid points for each H atom
	Using 302 Lebedev grid points for other atoms
	Atomic van der Waals radii will be scaled by 1.20
 Remove points where switching function is < 1.0e-08
 Keep 10975 surface tesserae and discard 20433 interior tesserae
 Molecular Surface Area = 794.522 Angst**2
 A cutoff of  1.0D-12 yielded  48555 shell pairs
 There are    188531 function pairs (    207494 Cartesian)
 
 -------------------------------------------------------
 OpenMP Integral Computing Module                       
 Release: version 1.0, May 2013, Q-Chem Inc. Pittsburgh 
 -------------------------------------------------------
 Integral Job Info:
 Integral job number is                      11
 Integral operator is                         1
 short-range coefficients                     0
 long-range coefficients              100000000
 Omega coefficients                           0
 if combine SR and LR in K                    0
 Integral screening is                        0
 Integral computing path is                   2
 max size of driver memory is            800000
 size of driver memory is                593474
 size of scratch memory is              1809772
 max col of scratch BK array               1296
 max len of scratch array in speh3          155
 max len of scratch index in speh4           18
 max int batch size is                      520
 min int batch size is                       52
 fixed nKL is                                52
 max L of basis functions is                  2
 order of int derivative is                   0
 number of shells is                        498
 number of basis is                        1020
 number of cartesian basis is              1020
 number of contracted shell pairs         48555
 number of primitive shell pairs         100900
 maxK2 (contraction) of shell pair           25
 max number of K2 of shell pair               1
 max number of CS2 of shell pair          11912
 max number of PS2 of shell pair          17825
 mem total for path MDJ                  490248
 -------------------------------------------------------
 Smallest overlap matrix eigenvalue = 1.97E-04

 Scale SEOQF with 1.000000e-02/1.000000e-01/1.000000e-02

 Standard Electronic Orientation quadrupole field applied
 Nucleus-field energy     =     0.0000000030 hartrees
 Guess from superposition of atomic densities
 Warning:  Energy on first SCF cycle will be non-variational
 A restricted hybrid HF-DFT SCF calculation will be
 performed using Pulay DIIS extrapolation
 Polarizable Continuum solvation model will be applied
 Exchange:     0.4200 Hartree-Fock + 0.5800 PBEh-3c
 Correlation:  1.0000 PBEh-3c
 Using SG-1 standard quadrature grid
 Dispersion:   Grimme D3
 SCF converges when DIIS error is below 1.0E-09
 using 4 threads for integral computing
 -------------------------------------------------------
 OpenMP Integral computing Module                
 Release: version 1.0, May 2013, Q-Chem Inc. Pittsburgh 
 -------------------------------------------------------
 ---------------------------------------
  Cycle       Energy         DIIS Error
 ---------------------------------------
    1   -2300.0351361693      2.70E-02
 Using non-symmetric K matrix
    2   -2280.2779424186      1.86E-03
    3   -2280.4909414431      1.40E-03
    4   -2280.7088816751      4.16E-04
    5   -2280.7271121695      1.88E-04
    6   -2280.7314956242      4.51E-05
    7   -2280.7317237088      1.38E-05
    8   -2280.7317463825      3.66E-06
    9   -2280.7317481549      8.81E-07
   10   -2280.7317483044      3.71E-07
   11   -2280.7317483306      1.07E-07
   12   -2280.7317483343      5.78E-08
   13   -2280.7317483362      1.50E-08
   14   -2280.7317483373      6.49E-09
   15   -2280.7317483373      2.06E-09
   16   -2280.7317483320      1.12E-09
   17   -2280.7317483379      3.35E-10 Convergence criterion met
 ---------------------------------------

************** Final PCM Free Energy Summary **************
 G_electrostatic  =      -0.02197748 hartree =     -13.79107624 kcal/mol
 G_cavitation     =       0.00000000 hartree =       0.00000000 kcal/mol
 G_dispersion     =       0.00000000 hartree =       0.00000000 kcal/mol
 G_repulsion      =       0.00000000 hartree =       0.00000000 kcal/mol
 --------------------------------------------------
 Non-electrostatic Free Energy =       0.00000000 hartree =       0.00000000 kcal/mol
 Total                         =      -0.02197748 hartree =     -13.79107624 kcal/mol
 --------------------------------------------------
 SCF Energy (H0 + V/2)                       =   -2280.73174834 
 Solute Internal Energy (H0)                 =   -2280.70977086 
 Total Free Energy (H0 + V/2 + non-elec)     =   -2280.73174834 hartree
                                             = -1431180.77289241 kcal/mol
***********************************************************

 SCF time:  CPU 6245.05 s  wall 2755.83 s
 SCF   energy in the final basis set = -2280.73174834
 Total energy in the final basis set = -2280.73174834
 
 --------------------------------------------------------------
 
                    Orbital Energies (a.u.)
 --------------------------------------------------------------
 
 Alpha MOs
 -- Occupied --
-19.526 -19.526 -10.503 -10.503 -10.483 -10.483 -10.464 -10.464
-10.464 -10.464 -10.463 -10.463 -10.463 -10.463 -10.463 -10.463
-10.461 -10.461 -10.461 -10.460 -10.460 -10.460 -10.460 -10.460
-10.457 -10.457 -10.457 -10.457 -10.454 -10.453 -10.453 -10.453
-10.452 -10.452 -10.451 -10.451 -10.447 -10.447 -10.435 -10.435
-10.434 -10.434 -10.434 -10.434 -10.434 -10.434 -10.433 -10.432
-10.431 -10.431 -10.421 -10.420 -10.419 -10.418 -10.418 -10.418
 -6.950  -6.949  -1.184  -1.183  -1.017  -1.016  -0.964  -0.960
 -0.957  -0.956  -0.933  -0.932  -0.909  -0.901  -0.889  -0.889
 -0.867  -0.865  -0.854  -0.854  -0.846  -0.845  -0.825  -0.821
 -0.818  -0.813  -0.812  -0.805  -0.802  -0.802  -0.774  -0.773
 -0.734  -0.728  -0.726  -0.720  -0.712  -0.711  -0.703  -0.703
 -0.688  -0.681  -0.679  -0.665  -0.658  -0.647  -0.647  -0.645
 -0.631  -0.631  -0.593  -0.593  -0.590  -0.587  -0.584  -0.584
 -0.582  -0.574  -0.573  -0.564  -0.563  -0.544  -0.542  -0.537
 -0.533  -0.533  -0.527  -0.522  -0.513  -0.507  -0.504  -0.503
 -0.502  -0.501  -0.499  -0.495  -0.493  -0.490  -0.489  -0.486
 -0.485  -0.483  -0.483  -0.481  -0.480  -0.478  -0.476  -0.465
 -0.463  -0.460  -0.459  -0.456  -0.453  -0.452  -0.442  -0.438
 -0.436  -0.435  -0.433  -0.430  -0.429  -0.427  -0.424  -0.418
 -0.412  -0.412  -0.409  -0.406  -0.400  -0.400  -0.397  -0.395
 -0.395  -0.393  -0.392  -0.391  -0.390  -0.387  -0.382  -0.382
 -0.379  -0.372  -0.364  -0.363  -0.360  -0.357  -0.355  -0.350
 -0.341  -0.339  -0.318  -0.313  -0.295  -0.294  -0.282  -0.277
 -0.277  -0.262  -0.258  -0.256  -0.253  -0.250
 -- Virtual --
 -0.091  -0.059  -0.038  -0.029  -0.005   0.006   0.014   0.022
  0.025   0.034   0.037   0.046   0.068   0.082   0.085   0.091
  0.112   0.123   0.144   0.150   0.151   0.152   0.158   0.159
  0.161   0.163   0.165   0.165   0.167   0.169   0.172   0.178
  0.183   0.186   0.187   0.189   0.191   0.193   0.198   0.201
  0.202   0.203   0.204   0.205   0.207   0.208   0.210   0.214
  0.215   0.216   0.218   0.221   0.222   0.223   0.224   0.226
  0.227   0.230   0.230   0.231   0.233   0.235   0.240   0.241
  0.244   0.247   0.251   0.251   0.253   0.254   0.255   0.257
  0.263   0.266   0.270   0.271   0.272   0.276   0.282   0.285
  0.286   0.287   0.290   0.291   0.296   0.300   0.304   0.312
  0.313   0.313   0.314   0.316   0.321   0.327   0.327   0.332
  0.336   0.338   0.341   0.345   0.351   0.356   0.358   0.365
  0.372   0.382   0.389   0.397   0.398   0.403   0.406   0.414
  0.418   0.421   0.424   0.428   0.433   0.444   0.449   0.456
  0.457   0.461   0.463   0.470   0.476   0.482   0.485   0.489
  0.492   0.495   0.499   0.499   0.502   0.503   0.507   0.510
  0.519   0.524   0.524   0.526   0.527   0.528   0.529   0.532
  0.534   0.538   0.539   0.540   0.542   0.544   0.546   0.551
  0.552   0.553   0.555   0.558   0.560   0.564   0.565   0.565
  0.569   0.572   0.575   0.576   0.581   0.584   0.585   0.588
  0.588   0.589   0.591   0.593   0.595   0.598   0.598   0.600
  0.600   0.603   0.604   0.608   0.615   0.617   0.618   0.622
  0.623   0.625   0.629   0.632   0.632   0.637   0.638   0.642
  0.646   0.651   0.652   0.653   0.655   0.658   0.660   0.660
  0.661   0.663   0.664   0.666   0.673   0.677   0.679   0.681
  0.685   0.687   0.695   0.700   0.704   0.706   0.707   0.713
  0.716   0.717   0.719   0.722   0.724   0.732   0.734   0.735
  0.741   0.742   0.745   0.750   0.752   0.757   0.759   0.765
  0.769   0.772   0.775   0.780   0.782   0.784   0.790   0.791
  0.792   0.800   0.803   0.808   0.810   0.822   0.823   0.834
  0.837   0.840   0.848   0.851   0.853   0.858   0.862   0.864
  0.876   0.881   0.892   0.902   0.902   0.906   0.909   0.913
  0.919   0.922   0.926   0.934   0.943   0.948   0.949   0.954
  0.955   0.961   0.962   0.967   0.968   0.975   0.976   0.982
  0.988   0.988   0.989   0.992   0.992   0.994   0.997   1.002
  1.004   1.005   1.006   1.007   1.012   1.012   1.018   1.022
  1.024   1.030   1.032   1.033   1.036   1.037   1.041   1.042
  1.045   1.047   1.047   1.053   1.057   1.058   1.061   1.070
  1.071   1.071   1.076   1.078   1.080   1.083   1.086   1.089
  1.091   1.092   1.097   1.100   1.100   1.108   1.116   1.123
  1.124   1.126   1.128   1.135   1.145   1.147   1.148   1.151
  1.154   1.159   1.162   1.165   1.168   1.172   1.174   1.178
  1.182   1.185   1.187   1.198   1.203   1.208   1.216   1.218
  1.225   1.227   1.243   1.245   1.250   1.255   1.260   1.263
  1.267   1.271   1.278   1.281   1.286   1.290   1.290   1.293
  1.304   1.306   1.310   1.311   1.315   1.316   1.323   1.324
  1.327   1.337   1.338   1.340   1.349   1.351   1.353   1.359
  1.366   1.373   1.380   1.390   1.394   1.394   1.399   1.401
  1.406   1.413   1.416   1.426   1.430   1.434   1.435   1.439
  1.443   1.447   1.447   1.450   1.452   1.457   1.459   1.473
  1.491   1.495   1.500   1.511   1.512   1.513   1.518   1.519
  1.519   1.522   1.523   1.529   1.530   1.532   1.534   1.536
  1.545   1.547   1.549   1.556   1.562   1.564   1.571   1.574
  1.578   1.583   1.589   1.590   1.591   1.594   1.599   1.609
  1.609   1.618   1.626   1.633   1.634   1.637   1.645   1.649
  1.669   1.671   1.682   1.696   1.711   1.724   1.743   1.750
  1.753   1.755   1.759   1.761   1.771   1.775   1.779   1.785
  1.790   1.795   1.799   1.808   1.810   1.811   1.812   1.816
  1.816   1.820   1.825   1.830   1.840   1.847   1.858   1.866
  1.883   1.893   1.899   1.904   1.907   1.920   1.922   1.929
  1.936   1.941   1.946   1.952   1.955   1.969   1.974   1.978
  1.982   1.983   1.985   1.989   1.993   1.997   1.998   2.000
  2.021   2.022   2.028   2.031   2.033   2.041   2.042   2.048
  2.056   2.058   2.062   2.066   2.073   2.075   2.080   2.082
  2.085   2.088   2.098   2.102   2.113   2.113   2.115   2.117
  2.128   2.132   2.135   2.137   2.150   2.157   2.160   2.160
  2.162   2.164   2.168   2.169   2.177   2.188   2.196   2.205
  2.206   2.206   2.206   2.223   2.231   2.232   2.235   2.247
  2.249   2.256   2.260   2.264   2.266   2.268   2.273   2.275
  2.278   2.285   2.293   2.294   2.308   2.316   2.320   2.323
  2.325   2.326   2.330   2.332   2.335   2.336   2.340   2.342
  2.342   2.347   2.349   2.354   2.355   2.361   2.362   2.366
  2.370   2.372   2.384   2.391   2.392   2.397   2.400   2.413
  2.417   2.420   2.421   2.425   2.428   2.431   2.436   2.443
  2.450   2.452   2.468   2.471   2.474   2.476   2.478   2.487
  2.496   2.497   2.499   2.505   2.519   2.520   2.523   2.527
  2.533   2.553   2.560   2.567   2.577   2.592   2.614   2.627
  2.632   2.635   2.643   2.644   2.646   2.650   2.658   2.663
  2.686   2.687   2.689   2.690   2.712   2.719   2.721   2.727
  2.729   2.733   2.733   2.753   2.759   2.764   2.777   2.777
  2.780   2.784   2.786   2.788   2.793   2.794   2.795   2.799
  2.807   2.809   2.816   2.817   2.821   2.823   2.844   2.850
  2.854   2.858   2.874   2.876   2.893   2.899   2.902   2.906
  2.918   2.927   2.939   2.943   2.957   2.982   2.998   3.008
  3.009   3.028   3.044   3.063   3.079   3.081   3.082   3.087
  3.100   3.113   3.121   3.234   3.254   3.256   3.317   3.320
  3.401   3.439   3.451   3.493   3.494   3.494   3.547   3.556
  3.669   3.682   9.581   9.722  13.142  13.177  13.396  13.459
 13.492  13.512  13.525  13.547  13.673  13.685  13.724  13.757
 13.767  13.777  13.778  13.795  13.803  13.806  13.860  13.880
 13.881  13.902  13.922  13.971  13.995  14.024  14.036  14.037
 14.042  14.046  14.048  14.055  14.155  14.163  14.164  14.193
 14.225  14.227  14.228  14.271  14.284  14.290  14.308  14.312
 14.345  14.350  14.513  14.517  14.563  14.572  14.578  14.586
 14.586  14.588  25.786  25.787
 --------------------------------------------------------------
 
          Ground-State Mulliken Net Atomic Charges

     Atom                 Charge (a.u.)
  ----------------------------------------
      1 C                    -0.150072
      2 C                    -0.392094
      3 H                     0.247724
      4 C                     0.086572
      5 C                     0.082134
      6 C                    -0.391531
      7 H                     0.246859
      8 C                    -0.154965
      9 C                     0.180043
     10 C                    -0.391896
     11 H                     0.245147
     12 C                    -0.065220
     13 C                     0.227801
     14 C                     0.181303
     15 C                    -0.392040
     16 H                     0.245549
     17 C                    -0.226366
     18 H                     0.250525
     19 C                    -0.346034
     20 H                     0.246637
     21 C                    -0.226285
     22 H                     0.250661
     23 C                    -0.345579
     24 H                     0.246559
     25 B                     0.648700
     26 B                     0.640902
     27 C                    -0.155824
     28 C                    -0.390909
     29 H                     0.242457
     30 C                     0.087673
     31 C                     0.080307
     32 C                    -0.391869
     33 H                     0.248006
     34 C                    -0.154234
     35 C                     0.177232
     36 C                    -0.388695
     37 H                     0.245549
     38 C                    -0.063851
     39 C                     0.228613
     40 C                     0.178635
     41 C                    -0.391520
     42 H                     0.244814
     43 C                    -0.227086
     44 H                     0.250677
     45 C                    -0.345499
     46 H                     0.246521
     47 C                    -0.225828
     48 H                     0.250437
     49 C                    -0.346842
     50 H                     0.246746
     51 C                    -0.222026
     52 C                     0.088455
     53 C                    -0.437129
     54 H                     0.246656
     55 C                     0.393883
     56 O                    -0.463655
     57 C                    -0.400533
     58 H                     0.234784
     59 C                     0.065028
     60 C                    -0.424122
     61 H                     0.250242
     62 H                     0.214833
     63 H                     0.215226
     64 C                    -0.547931
     65 H                     0.236743
     66 H                     0.250734
     67 C                    -0.554834
     68 H                     0.241123
     69 H                     0.260245
     70 C                    -0.653729
     71 H                     0.237183
     72 H                     0.227580
     73 H                     0.219632
     74 C                    -0.655806
     75 H                     0.241791
     76 H                     0.223079
     77 H                     0.223280
     78 C                    -0.227236
     79 C                     0.063418
     80 C                    -0.441996
     81 H                     0.247234
     82 C                     0.392932
     83 O                    -0.464155
     84 C                    -0.395932
     85 H                     0.234711
     86 C                     0.087278
     87 C                    -0.424886
     88 H                     0.250332
     89 H                     0.215442
     90 H                     0.215590
     91 C                    -0.549967
     92 H                     0.239300
     93 H                     0.251378
     94 C                    -0.558009
     95 H                     0.262298
     96 H                     0.238932
     97 C                    -0.655274
     98 H                     0.238080
     99 H                     0.221675
    100 H                     0.226413
    101 C                    -0.652778
    102 H                     0.239350
    103 H                     0.219742
    104 H                     0.224854
  ----------------------------------------
  Sum of atomic charges =    -0.000000

 -----------------------------------------------------------------
                    Cartesian Multipole Moments
 -----------------------------------------------------------------
    Charge (ESU x 10^10)
                -0.0000
    Dipole Moment (Debye)
         X       0.9022      Y      -1.3931      Z      -0.0363
       Tot       1.6601
    Quadrupole Moments (Debye-Ang)
        XX    -281.1966     XY      20.6619     YY    -334.0740
        XZ      -2.3920     YZ      15.6569     ZZ    -279.7347
    Octopole Moments (Debye-Ang^2)
       XXX      72.6339    XXY     108.7721    XYY     -80.0022
       YYY     456.6075    XXZ     458.1670    XYZ     -12.0838
       YYZ     465.4681    XZZ       0.0033    YZZ      16.0438
       ZZZ    1260.6410
    Hexadecapole Moments (Debye-Ang^3)
      XXXX  -21457.4791   XXXY     481.2338   XXYY   -4795.4234
      XYYY    -187.1755   YYYY   -4283.6389   XXXZ    1890.5237
      XXYZ     198.9249   XYYZ    1244.2257   YYYZ    -670.1917
      XXZZ   -8223.0060   XYZZ     198.2134   YYZZ   -6827.7528
      XZZZ    1054.2765   YZZZ     102.1033   ZZZZ  -29413.8200
 -----------------------------------------------------------------
 Calculating analytic gradient of the SCF energy
 -1.180110352817164E-003 -1.180116072048413E-003
 -1.180118973694276E-003 -1.180107526866331E-003
 -1.180103446214273E-003 -1.180122971801085E-003
 -1.180120261792440E-003 -1.180106149307148E-003
 -1.180113011694549E-003 -1.180113503348473E-003
 -1.180100891220820E-003 -1.180125549066983E-003
 -1.180126753365452E-003 -1.180099673189971E-003
 -1.180105857323160E-003 -1.180120612769064E-003
 -1.180105751197489E-003 -1.180120687034073E-003
 -1.180130224308423E-003 -1.180096207741556E-003
 -1.180120882480640E-003 -1.180105632055448E-003
 -1.180081049843745E-003 -1.180145379140106E-003
 -1.180130557326168E-003 -1.180095868555399E-003
 -1.180120894648207E-003 -1.180105619909116E-003
 -1.180083179324198E-003 -1.180143258531594E-003
 -1.180120157303220E-003 -1.180106285717279E-003
 -1.180114605617975E-003 -1.180111908543648E-003
 -1.180098167258387E-003 -1.180128239650200E-003
 -1.180114676359654E-003 -1.180111770411219E-003
 -1.180104063898274E-003 -1.180122405622871E-003
 -1.180097078153746E-003 -1.180129337055436E-003
 -1.180121505921972E-003 -1.180104915112507E-003
 -1.180119654211212E-003 -1.180106845102800E-003
 -1.180112343986568E-003 -1.180114074763870E-003
 -1.180118633348758E-003 -1.180107777147369E-003
 -1.180116071943498E-003 -1.180110447476969E-003
 -1.180110694310737E-003 -1.180115749116846E-003
 -1.180155425977162E-003 -1.180071014657790E-003
 -1.180115057905156E-003 -1.180111452739532E-003
 -1.180091668883507E-003 -1.180134751483024E-003
 -1.180120528176322E-003 -1.180105906963482E-003
 -1.180112938531707E-003 -1.180113512642904E-003
 -1.180105966782074E-003 -1.180120436665494E-003
 -1.180130474855047E-003 -1.180095968883410E-003
 -1.180116969409042E-003 -1.180109549020473E-003
 -1.180084244070874E-003 -1.180142200793952E-003
 -1.180096699720184E-003 -1.180129715540074E-003
 -1.180102465579761E-003 -1.180124034393527E-003
 -1.180143379560668E-003 -1.180083060159566E-003
 -1.180111473948936E-003 -1.180114945681530E-003
 -1.180115942243804E-003 -1.180110573796272E-003
 -1.180105319347996E-003 -1.180121117392505E-003
 -1.180112324447609E-003 -1.180114111199324E-003
 -1.180112290344128E-003 -1.180114218354338E-003
 -1.180065027496856E-003 -1.180161399455400E-003
 -1.180115758542231E-003 -1.180110646502834E-003
 -1.180112009294703E-003 -1.180114442427596E-003
 -1.180103828098174E-003 -1.180122601990490E-003
 -1.180098288773069E-003 -1.180128100109028E-003
 -1.180104765479915E-003 -1.180121737205036E-003
 -1.180134763781821E-003 -1.180091690837865E-003
 -1.180124771792309E-003 -1.180101621503227E-003
 -1.180109861739008E-003 -1.180116591760958E-003
 -1.180101624110378E-003 -1.180124814507571E-003
 -1.180129699830331E-003 -1.180096741125464E-003
 -1.180112762090668E-003 -1.180113742895203E-003
 -1.180084193416422E-003 -1.180142214716962E-003
 -1.180102861830153E-003 -1.180123588904827E-003
 -1.180105084861965E-003 -1.180121390705138E-003
 -1.180128164027278E-003 -1.180098237949882E-003
 -1.180102785139193E-003 -1.180123628802949E-003
 -1.180104223332384E-003 -1.180122276523526E-003
 -1.180138076498705E-003 -1.180088357712439E-003
 -1.180118526399518E-003 -1.180107890916889E-003
 -1.180108828042276E-003 -1.180117621497478E-003
 -1.180097617310357E-003 -1.180128802909506E-003
 -1.180130162441481E-003 -1.180096260912928E-003
 -1.180112616686576E-003 -1.180113885647678E-003
 -1.180084359179433E-003 -1.180142068294803E-003
 -1.180106839926500E-003 -1.180119600902856E-003
 -1.180104928199498E-003 -1.180121545856121E-003
 -1.180130172914167E-003 -1.180096240221643E-003
 -1.180119857400537E-003 -1.180106568687719E-003
 -1.180112561801609E-003 -1.180113918837923E-003
 -1.180115491331538E-003 -1.180110948026045E-003
 -1.180105704102932E-003 -1.180120723152701E-003
 -1.180110664879175E-003 -1.180115813574376E-003
 -1.180110099463781E-003 -1.180116338572277E-003
 -1.180103320195666E-003 -1.180123099272602E-003
 -1.180118020890643E-003 -1.180108481531986E-003
 -1.180116647822037E-003 -1.180109771303495E-003
 -1.180105291015711E-003 -1.180121156119610E-003
 -1.180116363784448E-003 -1.180110153674182E-003
 -1.180128140903250E-003 -1.180098267384713E-003
 -1.180112448613917E-003 -1.180114002169409E-003
 -1.180104197375539E-003 -1.180122275408477E-003
 -1.180129972697818E-003 -1.180096444655201E-003
 -1.180094560489422E-003 -1.180131864093367E-003
 -1.180122771309279E-003 -1.180103744167506E-003
 -1.180142223761712E-003 -1.180084216149992E-003
 -1.180095150868153E-003 -1.180131282230198E-003
 -1.180121162080661E-003 -1.180105350934770E-003
 -1.180142928113536E-003 -1.180083503393841E-003
 -1.180103057319563E-003 -1.180123354704176E-003
 -1.180112125965325E-003 -1.180114387454932E-003
 -1.180124179201572E-003 -1.180102261087151E-003
 -1.180098574513055E-003 -1.180127849901316E-003
 -1.180105371114956E-003 -1.180121096737792E-003
 -1.180121475972953E-003 -1.180104961081751E-003
 -1.180114540919265E-003 -1.180111883781336E-003
 -1.180118637235651E-003 -1.180107864088814E-003
 -1.180123680791901E-003 -1.180102738147915E-003
 -1.180104868767887E-003 -1.180121539807334E-003
 -1.180115852944748E-003 -1.180110659584190E-003
 -1.180113089652874E-003 -1.180113354618447E-003
 -1.180072487578600E-003 -1.180153953038996E-003
 -1.180112773211075E-003 -1.180113730812476E-003
 -1.180138073637324E-003 -1.180088349183559E-003
 -1.180106150203190E-003 -1.180120282974813E-003
 -1.180113497165936E-003 -1.180112954109224E-003
 -1.180119844637432E-003 -1.180106559751539E-003
 -1.180096718687675E-003 -1.180129724492337E-003
 -1.180117961131478E-003 -1.180108554350595E-003
 -1.180140901422853E-003 -1.180085544407136E-003
 -1.180128339920508E-003 -1.180098074182750E-003
 -1.180100975235860E-003 -1.180125520839184E-003
 -1.180082500379576E-003 -1.180143941133722E-003
 -1.180114181203638E-003 -1.180112236494844E-003
 -1.180118553695788E-003 -1.180107964236538E-003
 -1.180118429522299E-003 -1.180108008582179E-003
 -1.180115060863350E-003 -1.180111372650921E-003
 -1.180115695606157E-003 -1.180110814449770E-003
 -1.180159270226591E-003 -1.180067159498391E-003
 -1.180110868399557E-003 -1.180115538352697E-003
 -1.180112335870434E-003 -1.180114115857462E-003
 -1.180120643356479E-003 -1.180105787737221E-003
 -1.180127237560201E-003 -1.180099149600797E-003
 -1.180103479722602E-003 -1.180123017472453E-003
 -1.180091432289991E-003 -1.180135030765544E-003
 -1.180102862802084E-003 -1.180123531084519E-003
 -1.180109071656617E-003 -1.180117376806148E-003
 -1.180126526481514E-003 -1.180099917434718E-003
 -1.180099144910585E-003 -1.180127292710657E-003
 -1.180112943284519E-003 -1.180113555644807E-003
 -1.180143962797351E-003 -1.180082451412727E-003
 -1.180123839239996E-003 -1.180102610461548E-003
 -1.180103932792163E-003 -1.180122539403924E-003
 -1.180099328372687E-003 -1.180127077413749E-003
 -1.180123415140144E-003 -1.180102995586648E-003
 -1.180103274359874E-003 -1.180123225904704E-003
 -1.180087879352042E-003 -1.180138558177109E-003
 -1.180108485371094E-003 -1.180117931676203E-003
 -1.180108445512295E-003 -1.180118007291422E-003
 -1.180128472044909E-003 -1.180097949521702E-003
 -1.180098227223279E-003 -1.180128192321941E-003
 -1.180112166385564E-003 -1.180114333158296E-003
 -1.180142279184893E-003 -1.180084149836724E-003
 -1.180119601453716E-003 -1.180106837133224E-003
 -1.180103608819625E-003 -1.180122863075615E-003
 -1.180097407937193E-003 -1.180129007473036E-003
 -1.180111018253124E-003 -1.180115427801506E-003
 -1.180088595392376E-003 -1.180137822076084E-003
 -1.180114384486968E-003 -1.180112050504752E-003
 -1.180093050670482E-003 -1.180133378802241E-003
 -1.180140551592869E-003 -1.180085878462397E-003
 -1.180096994275175E-003 -1.180129434495428E-003
 -1.180109619782619E-003 -1.180116833287174E-003
 -1.180089215161922E-003 -1.180137185866865E-003
 -1.180111520602370E-003 -1.180114927171161E-003
 -1.180095898115157E-003 -1.180130567378491E-003
 -1.180127634217978E-003 -1.180098763464358E-003
 -1.180097708535644E-003 -1.180128740297837E-003
 -1.180070581563566E-003 -1.180155853862373E-003
 -1.180126587948293E-003 -1.180099834414667E-003
 -1.180085850602810E-003 -1.180140595320523E-003
 -1.180108004599178E-003 -1.180118482190833E-003
 -1.180091506706457E-003 -1.180134901173605E-003
 -1.180116153141436E-003 -1.180110324539396E-003
 -1.180115174507164E-003 -1.180111271103048E-003
 -1.180100797579803E-003 -1.180125589051160E-003
 -1.180120114421550E-003 -1.180106337447763E-003
 -1.180090279320711E-003 -1.180136139446496E-003
 -1.180127393489217E-003 -1.180099017631181E-003
 -1.180100661797267E-003 -1.180125770518549E-003
 -1.180072242859480E-003 -1.180154185745876E-003
 -1.180106153277995E-003 -1.180120256787076E-003
 -1.180090529730561E-003 -1.180135904512253E-003
 -1.180104055670935E-003 -1.180122389547603E-003
 -1.180141908400609E-003 -1.180084468918431E-003
 -1.180105937206145E-003 -1.180120531514074E-003
 -1.180111265160530E-003 -1.180115199851970E-003
 -1.180099791704342E-003 -1.180126626440500E-003
 -1.180115046382728E-003 -1.180111411765496E-003
 -1.180109120763692E-003 -1.180117287646876E-003
 -1.180116181687890E-003 -1.180110224654484E-003
 -1.180112667925547E-003 -1.180113752484340E-003
 -1.180112035339326E-003 -1.180114362093721E-003
 -1.180116463545210E-003 -1.180109951548880E-003
 -1.180108884870043E-003 -1.180117541811402E-003
 -1.180099911955685E-003 -1.180126507984897E-003
 -1.180092286844373E-003 -1.180134153257697E-003
 -1.180118710084664E-003 -1.180107723831699E-003
 -1.180111399700569E-003 -1.180115034015025E-003
 -1.180103346974906E-003 -1.180123090553671E-003
 -1.180102013544241E-003 -1.180124418452646E-003
 -1.180104234706206E-003 -1.180122205355375E-003
 -1.180121284703371E-003 -1.180105147091024E-003
 -1.180099522553544E-003 -1.180126909348962E-003
 -1.180108773781558E-003 -1.180117667177705E-003
 -1.180123715075716E-003 -1.180102687616997E-003
 -1.180112898244440E-003 -1.180113527875185E-003
 -1.180091310477650E-003 -1.180135119574392E-003
 -1.180128392234270E-003 -1.180098009403377E-003
 -1.180105029339161E-003 -1.180121410660039E-003
 -1.180095971488234E-003 -1.180130452282931E-003
 -1.180118671723238E-003 -1.180107756542727E-003
 -1.180119717490380E-003 -1.180106706495107E-003
 -1.180103870661417E-003 -1.180122552636234E-003
 -1.180119660510395E-003 -1.180106783606186E-003
 -1.180094979136751E-003 -1.180131431173570E-003
 -1.180097095316193E-003 -1.180129332504786E-003
 -1.180111107584365E-003 -1.180115327644029E-003
 -1.180116978954153E-003 -1.180109443772557E-003
 -1.180095167370107E-003 -1.180131243121912E-003
 -1.180084244996626E-003 -1.180142195424620E-003
 -1.180099547075948E-003 -1.180126864305338E-003
 -1.180106817372460E-003 -1.180119610981474E-003
 -1.180089011668162E-003 -1.180137419150692E-003
 -1.180119683341279E-003 -1.180106744652514E-003
 -1.180091140752631E-003 -1.180135251395475E-003
 -1.180119984907696E-003 -1.180106428286105E-003
 -1.180097502939156E-003 -1.180128942882006E-003
 -1.180109972282878E-003 -1.180116444286780E-003
 -1.180123797009255E-003 -1.180102609422687E-003
 -1.180102944567805E-003 -1.180123477509318E-003
 -1.180105002848083E-003 -1.180121426619140E-003
 -1.180138473292467E-003 -1.180087954888005E-003
 -1.180102174050420E-003 -1.180124259937589E-003
 -1.180107245887409E-003 -1.180119169870107E-003
 -1.180145820782709E-003 -1.180080583044754E-003
 -1.180109789550208E-003 -1.180116629744234E-003
 -1.180114086329673E-003 -1.180112357542982E-003
 -1.180091445336535E-003 -1.180134972350772E-003
 -1.180110538098784E-003 -1.180115893419300E-003
 -1.180162202680238E-003 -1.180064217972216E-003
 -1.180100902473847E-003 -1.180125510670377E-003
 -1.180138213244105E-003 -1.180088218757255E-003
 -1.180117591722762E-003 -1.180108856007727E-003
 -1.180109500875597E-003 -1.180116896355232E-003
 -1.180111658580903E-003 -1.180114792336925E-003
 -1.180143571549127E-003 -1.180082852477117E-003
 -1.180117561798590E-003 -1.180108854833827E-003
 -1.180126792701946E-003 -1.180099645293913E-003
 -1.180153196592024E-003 -1.180073238139967E-003
 -1.180140527699838E-003 -1.180085896772881E-003
 -1.180140887920704E-003 -1.180085557107494E-003
 -1.180104959913736E-003 -1.180121496344712E-003
 -1.180124491937260E-003 -1.180101942857809E-003
 -1.180112846733688E-003 -1.180113629352914E-003
 -1.180105533049628E-003 -1.180120923541583E-003
 -1.180091995731332E-003 -1.180134391012171E-003
 -1.180109427312130E-003 -1.180117020728203E-003
 -1.180129895647269E-003 -1.180096562034829E-003
 -1.180116493242001E-003 -1.180109903270424E-003
 -1.180125941131137E-003 -1.180100500849729E-003
 -1.180132556418942E-003 -1.180093875155858E-003
 -1.180135094686606E-003 -1.180091332429768E-003
 -1.180127680375214E-003 -1.180098751884578E-003
 -1.180140853426209E-003 -1.180085544754809E-003
 -1.180096639397829E-003 -1.180129792546119E-003
 -1.180127753379452E-003 -1.180098713363709E-003
 -1.180105465765330E-003 -1.180120973041987E-003
 -1.180124259701552E-003 -1.180102184644489E-003
 -1.180111312095144E-003 -1.180115146285714E-003
 -1.180115962233357E-003 -1.180110435830126E-003
 -1.180111064153339E-003 -1.180115335823865E-003
 -1.180116478775511E-003 -1.180109956169987E-003
 -1.180118478752634E-003 -1.180107936520501E-003
 -1.180110389029389E-003 -1.180116023290192E-003
 -1.180112135785310E-003 -1.180114274916003E-003
 -1.180124923793048E-003 -1.180101499548580E-003
 -1.180094629690841E-003 -1.180131812284190E-003
 -1.180107741307983E-003 -1.180118693683047E-003
 -1.180118175661294E-003 -1.180108260373438E-003
 -1.180102805682761E-003 -1.180123628641120E-003
 -1.180126725979936E-003 -1.180099707566160E-003
 -1.180123192050470E-003 -1.180103247769814E-003
 -1.180120329219913E-003 -1.180106106098387E-003
 -1.180130398785462E-003 -1.180096026457533E-003
 -1.180115447353246E-003 -1.180110982360395E-003
 -1.180126504821982E-003 -1.180099908559978E-003
 -1.180113680068277E-003 -1.180112742832955E-003
 -1.180128272003438E-003 -1.180098155332032E-003
 -1.180116779924513E-003 -1.180109654662115E-003
 -1.180107365168352E-003 -1.180119059889117E-003
 -1.180132179057593E-003 -1.180094249973036E-003
 -1.180125800931542E-003 -1.180100607613627E-003
 -1.180119905181748E-003 -1.180106531982133E-003
 -1.180125652109663E-003 -1.180100778063402E-003
 -1.180117355245261E-003 -1.180109087524313E-003
 -1.180131136387817E-003 -1.180095268618737E-003
 -1.180128565879689E-003 -1.180097862481762E-003
 -1.180111869814674E-003 -1.180114562502870E-003
 -1.180108531511158E-003 -1.180117891991403E-003
 -1.180121429884936E-003 -1.180105000791864E-003
 -1.180090349707012E-003 -1.180136083614382E-003
 -1.180106478523783E-003 -1.180119946727774E-003
 -1.180131821627171E-003 -1.180094589346629E-003
 -1.180084875274227E-003 -1.180141561262309E-003
 -1.180126578753020E-003 -1.180099834877133E-003
 -1.180139307322069E-003 -1.180087083317952E-003
 -1.180116752981518E-003 -1.180109671774217E-003
 -1.180127264877770E-003 -1.180099178070605E-003
 -1.180118224386179E-003 -1.180108193202870E-003
 -1.180126743153059E-003 -1.180099667313224E-003
 -1.180124548946679E-003 -1.180101875339683E-003
 -1.180119099318128E-003 -1.180107332762530E-003
 -1.180138023410108E-003 -1.180088411912100E-003
 -1.180122212207256E-003 -1.180104222726141E-003
 -1.180119588227149E-003 -1.180106823296229E-003
 -1.180148654605178E-003 -1.180077759311558E-003
 -1.180116390822619E-003 -1.180110025599931E-003
 Gradient of SCF Energy
            1           2           3           4           5           6
    1  -0.0015956  -0.0019486  -0.0010535  -0.0008772   0.0034487   0.0008038
    2   0.0005909   0.0001880  -0.0002845   0.0010436   0.0014827  -0.0002387
    3  -0.0003878  -0.0007176  -0.0001483  -0.0059745  -0.0037500   0.0008918
            7           8           9          10          11          12
    1   0.0009548   0.0001918  -0.0010613  -0.0048823   0.0016770  -0.0003322
    2  -0.0002270   0.0003229  -0.0004111  -0.0004739  -0.0001424   0.0012488
    3   0.0008761   0.0017181   0.0017521  -0.0011297   0.0005361  -0.0021104
           13          14          15          16          17          18
    1  -0.0004591  -0.0026156   0.0038582  -0.0010254  -0.0024884   0.0014275
    2   0.0000312  -0.0008974  -0.0000638  -0.0003267  -0.0001107  -0.0002154
    3   0.0010123   0.0019836   0.0040918  -0.0009171  -0.0031225   0.0024760
           19          20          21          22          23          24
    1   0.0032519  -0.0009697   0.0045526  -0.0025778   0.0028469  -0.0016412
    2   0.0008558  -0.0005653   0.0002827  -0.0005830   0.0005289  -0.0006980
    3  -0.0042039   0.0028473   0.0012515   0.0001491  -0.0044258   0.0024584
           25          26          27          28          29          30
    1   0.0013920  -0.0010614   0.0001856  -0.0015483  -0.0008282  -0.0035795
    2  -0.0002251   0.0004399   0.0001368  -0.0006394  -0.0002780   0.0012224
    3   0.0008173   0.0000997  -0.0025168  -0.0011873  -0.0003797  -0.0003862
           31          32          33          34          35          36
    1  -0.0002391   0.0015636   0.0010423   0.0017101   0.0001210   0.0049388
    2   0.0015038   0.0005085  -0.0003414   0.0006538  -0.0005011  -0.0002202
    3   0.0016006   0.0004370   0.0005097  -0.0006460  -0.0030192   0.0018658
           37          38          39          40          41          42
    1  -0.0017911  -0.0006109   0.0001255   0.0016549  -0.0033618   0.0013618
    2  -0.0003046   0.0011515  -0.0002490   0.0002795  -0.0003406  -0.0001207
    3  -0.0001096  -0.0019508  -0.0003504  -0.0015414  -0.0030056   0.0018469
           43          44          45          46          47          48
    1   0.0030289  -0.0014001  -0.0026219   0.0011067  -0.0041902   0.0028951
    2   0.0002448  -0.0005850   0.0004781  -0.0006686   0.0001403  -0.0002729
    3   0.0040313  -0.0022003   0.0053380  -0.0025317  -0.0002203   0.0001844
           49          50          51          52          53          54
    1  -0.0021994   0.0018966   0.0006223   0.0001622  -0.0031760   0.0013887
    2   0.0005956  -0.0006275  -0.0007362  -0.0026960  -0.0037416   0.0015333
    3   0.0053056  -0.0021329   0.0006100   0.0004914  -0.0007759   0.0004760
           55          56          57          58          59          60
    1  -0.0005943   0.0003437  -0.0001875  -0.0001960   0.0042950  -0.0068900
    2  -0.0011799   0.0023664   0.0023599   0.0015302   0.0017111  -0.0061971
    3   0.0001571  -0.0002430  -0.0005445  -0.0004959   0.0025342  -0.0026785
           61          62          63          64          65          66
    1   0.0022945   0.0001587   0.0017657  -0.0017295   0.0012019   0.0008352
    2  -0.0004193   0.0025605   0.0019522  -0.0013715   0.0007060   0.0000769
    3   0.0013383   0.0016662  -0.0014664  -0.0005327  -0.0001152   0.0008081
           67          68          69          70          71          72
    1  -0.0019028  -0.0000630   0.0015487  -0.0018166   0.0015992   0.0001080
    2   0.0008884  -0.0000810  -0.0010434  -0.0007354   0.0005859   0.0003534
    3   0.0009410  -0.0001408   0.0003692   0.0001157   0.0001275   0.0001620
           73          74          75          76          77          78
    1   0.0002063   0.0012073   0.0002222  -0.0012486   0.0001813  -0.0015913
    2   0.0001633   0.0007988  -0.0018951   0.0002557   0.0000775  -0.0007572
    3   0.0001713  -0.0027709   0.0018089   0.0000831   0.0002674  -0.0001705
           79          80          81          82          83          84
    1  -0.0024646   0.0006481  -0.0001346  -0.0006560   0.0011853   0.0010122
    2   0.0019488   0.0047946  -0.0019160   0.0010010  -0.0021240  -0.0017845
    3  -0.0007639   0.0015714  -0.0005319  -0.0001337   0.0002160   0.0001813
           85          86          87          88          89          90
    1   0.0010573  -0.0022810   0.0027109  -0.0020699  -0.0003032   0.0012857
    2  -0.0009941  -0.0032024   0.0085743  -0.0008089  -0.0027332  -0.0020123
    3   0.0003149  -0.0014748   0.0033002  -0.0013074   0.0011494  -0.0018346
           91          92          93          94          95          96
    1   0.0014070   0.0000006  -0.0009021   0.0019860  -0.0012104   0.0000389
    2  -0.0011698   0.0002797   0.0002158   0.0014375  -0.0009041  -0.0006314
    3   0.0019392   0.0000656  -0.0009298   0.0006826  -0.0000461  -0.0005044
           97          98          99         100         101         102
    1   0.0021065  -0.0018165   0.0005273  -0.0001693   0.0000192  -0.0000849
    2  -0.0004335   0.0010404   0.0001735  -0.0003146   0.0011019  -0.0015089
    3  -0.0014523   0.0005263   0.0009606  -0.0000906   0.0025542  -0.0014508
          103         104
    1   0.0002684   0.0000172
    2  -0.0001902  -0.0002236
    3  -0.0000730  -0.0000761
 Max gradient component =       8.574E-03
 RMS gradient           =       1.824E-03
 Computing fast IEFPCM-SWIG gradient.
 Updating gradient with PCM contributions...
 -- total gradient after adding PCM contribution --
---------------------------------------------------
  Atom         X              Y              Z     
---------------------------------------------------
   1      -0.000594       0.000439      -0.001073
   2      -0.001256       0.000277      -0.000011
   3       0.000217      -0.000496      -0.000204
   4      -0.000788       0.001080      -0.002919
   5       0.000767       0.001170      -0.002356
   6      -0.000068      -0.000108       0.000851
   7       0.000259      -0.000363      -0.000348
   8       0.000197       0.000424       0.000484
   9      -0.000482      -0.000087      -0.000515
  10      -0.001097      -0.000160       0.000195
  11      -0.000179      -0.000322       0.000149
  12      -0.000629       0.001262      -0.001573
  13      -0.000191       0.000075       0.000536
  14      -0.000980      -0.000457       0.000330
  15       0.000856      -0.000404       0.001536
  16       0.000203      -0.000174       0.000430
  17      -0.000351      -0.000138      -0.000039
  18      -0.000044      -0.000171       0.000159
  19       0.001178       0.000191      -0.000286
  20       0.000181      -0.000155       0.000153
  21       0.000871      -0.000352       0.000983
  22       0.000105      -0.000109       0.000243
  23       0.000620      -0.000162      -0.000653
  24       0.000040      -0.000219       0.000088
  25       0.000529      -0.000097       0.000262
  26      -0.000305       0.000306       0.000599
  27       0.000299       0.000248      -0.001325
  28      -0.000509      -0.000226      -0.001030
  29      -0.000426      -0.000531       0.000681
  30      -0.000937       0.001152      -0.001782
  31      -0.000333       0.001442      -0.001306
  32       0.000992       0.000335      -0.000382
  33      -0.000284      -0.000451       0.000602
  34       0.000704       0.000438       0.000072
  35      -0.000440      -0.000037      -0.000928
  36       0.001086      -0.000516       0.000601
  37       0.000167      -0.000181       0.000253
  38      -0.000305       0.001242      -0.002442
  39      -0.000122      -0.000201       0.000053
  40       0.000139       0.000530       0.000028
  41      -0.000188      -0.000112      -0.000213
  42      -0.000070      -0.000268       0.000190
  43       0.000870      -0.000354       0.000967
  44       0.000135      -0.000119       0.000148
  45      -0.000581      -0.000300       0.001449
  46      -0.000075      -0.000126       0.000215
  47      -0.000401      -0.000004       0.000044
  48       0.000005      -0.000140       0.000075
  49       0.000130      -0.000160       0.001589
  50       0.000119      -0.000143       0.000295
  51       0.000077       0.000166      -0.000077
  52      -0.000112      -0.000475       0.000142
  53      -0.000860      -0.000750      -0.000094
  54      -0.000046      -0.000029      -0.000040
  55      -0.000654       0.000301      -0.000244
  56       0.002859       0.001930       0.001269
  57      -0.000606       0.000546      -0.000169
  58       0.000397       0.000445       0.000097
  59       0.000916      -0.000141       0.000938
  60      -0.003188      -0.002937      -0.001282
  61      -0.000005      -0.000199       0.000024
  62       0.000081       0.000302       0.000339
  63       0.000263       0.000236      -0.000222
  64      -0.000211      -0.000457       0.000609
  65       0.000185       0.000067      -0.000162
  66       0.000161      -0.000173       0.000029
  67       0.000354      -0.000144      -0.000403
  68      -0.000092      -0.000014       0.000223
  69       0.000034      -0.000163       0.000545
  70       0.000166      -0.000091      -0.000162
  71       0.000283       0.000023       0.000175
  72      -0.000112       0.000006       0.000261
  73      -0.000135      -0.000036       0.000049
  74       0.000156      -0.000036       0.000150
  75       0.000206      -0.000160       0.000219
  76      -0.000091       0.000139      -0.000001
  77       0.000058       0.000004       0.000081
  78      -0.000678      -0.000324       0.000291
  79      -0.000693      -0.000040      -0.000045
  80       0.000177       0.001152       0.000508
  81       0.000281      -0.000113       0.000043
  82       0.000203      -0.000183       0.000038
  83      -0.001247      -0.002993      -0.001220
  84       0.000426       0.000095       0.000444
  85      -0.000001      -0.000558      -0.000100
  86      -0.000701      -0.000244      -0.000247
  87       0.001365       0.004031       0.001601
  88      -0.000016       0.000164      -0.000019
  89      -0.000068      -0.000418       0.000128
  90       0.000230      -0.000248      -0.000366
  91       0.000882      -0.000725      -0.000308
  92      -0.000029       0.000072       0.000202
  93      -0.000090      -0.000010       0.000278
  94       0.000060      -0.000139       0.000769
  95       0.000061      -0.000148       0.000044
  96       0.000262       0.000064      -0.000174
  97      -0.000070      -0.000279       0.000172
  98      -0.000004       0.000108       0.000284
  99       0.000172      -0.000111       0.000171
 100       0.000066      -0.000038      -0.000044
 101       0.000208      -0.000131       0.000143
 102      -0.000016      -0.000180      -0.000037
 103       0.000133       0.000072       0.000164
 104      -0.000028      -0.000005       0.000114
---------------------------------------------------
 Number of fixed atoms: 0
 Gradient time:  CPU 1251.45 s  wall 572.61 s
 Geometry Optimization Parameters
   NAtoms,    NIC,     NZ,  NCons,   NDum,   NFix, NCnnct, MaxDiis
      104     816     104       0       0       0       0       0


** GEOMETRY OPTIMIZATION IN DELOCALIZED INTERNAL COORDINATES **
   Searching for a Minimum

   Optimization Cycle:   1

                       Coordinates (Angstroms)
     ATOM                X               Y               Z
      1  C         0.0000000000    0.0000000000    0.0000000000
      2  C         0.0000000000    0.0000000000    1.3978960000
      3  H         0.9412462225    0.0000000000    1.9360806975
      4  C        -1.1947814913   -0.0595104967    2.0875737963
      5  C        -2.4168610964   -0.1530119778    1.3852269249
      6  C        -2.4276371305   -0.1468403787    0.0043647626
      7  H        -3.3617658954   -0.2490713641   -0.5369272955
      8  C        -1.2247971873   -0.0531637863   -0.7026245093
      9  C        -1.4846158277   -0.1555170999    3.5194075821
     10  C        -0.7347188355   -0.1721574223    4.6654852595
     11  H         0.3427305260   -0.0676222146    4.6454462642
     12  C        -2.8773698484   -0.3208090706    3.6270787999
     13  C        -3.5519234285   -0.5212378768    4.8269563917
     14  C        -3.4931883247   -0.3338675170    2.3619536827
     15  C        -4.8432826315   -0.5583275780    2.2944630376
     16  H        -5.3705973893   -0.5993244796    1.3495128748
     17  C        -1.3951125232   -0.3496536746    5.9042967980
     18  H        -0.8014568575   -0.3638167740    6.8089977128
     19  C        -2.7559756933   -0.5214226819    5.9971360722
     20  H        -3.2166466391   -0.6712186596    6.9660429340
     21  C        -5.5580246506   -0.7583013085    3.4994487968
     22  H        -6.6235754222   -0.9396042186    3.4440655859
     23  C        -4.9470033968   -0.7409182331    4.7308176173
     24  H        -5.5327184446   -0.9097859184    5.6262808028
     25  B        -1.2232209851   -0.1248265642   -2.2561417093
     26  B         1.3455201432   -0.0932141885   -0.7756946139
     27  C         1.3526628012    0.0316181824   -2.3278414633
     28  C         2.5588022158    0.0429620106   -3.0358598828
     29  H         3.4966274394    0.0190536769   -2.4917269130
     30  C         2.5513743594    0.0246327737   -4.4184424395
     31  C         1.3243350854   -0.0333835186   -5.1159610749
     32  C         0.1275933878   -0.0403176530   -4.4265666084
     33  H        -0.8129181985   -0.1190583755   -4.9610099844
     34  C         0.1246109033   -0.0031481590   -3.0297022297
     35  C         1.6121767912   -0.1985158970   -6.5384443507
     36  C         0.8538842239   -0.4045883479   -7.6598131297
     37  H        -0.2284585429   -0.4184842989   -7.6236466380
     38  C         3.0136933508   -0.2201046625   -6.6553672906
     39  C         3.6922351328   -0.4469614126   -7.8469547611
     40  C         3.6340871553   -0.0779402891   -5.3996417203
     41  C         5.0009142549   -0.1347134824   -5.3387766631
     42  H         5.5353668816   -0.0496001791   -4.4008974420
     43  C         1.5166188252   -0.6253482287   -8.8897696764
     44  H         0.9192974616   -0.7930211243   -9.7764879565
     45  C         2.8875024771   -0.6486941959   -8.9940720286
     46  H         3.3508582909   -0.8354848689   -9.9550582837
     47  C         5.7228258236   -0.3329534953   -6.5399556568
     48  H         6.8028116561   -0.3795610551   -6.4904949655
     49  C         5.1042523469   -0.4910441767   -7.7578564947
     50  H         5.6990672828   -0.6627125160   -8.6465258969
     51  C         2.6511983885   -0.4578581997    0.0142143258
     52  C         3.6031894266    0.5012601528    0.3590994077
     53  C         4.7450122487    0.1490898722    1.0793072411
     54  H         5.4573076920    0.9252596351    1.3314595106
     55  C         4.9505719949   -1.1690235400    1.4585351849
     56  O         6.0221882386   -1.6127341761    2.1483601387
     57  C         4.0028467111   -2.1311786309    1.1203400399
     58  H         4.1723893555   -3.1591182842    1.4208246615
     59  C         2.8645275913   -1.7915929719    0.4123975855
     60  C         7.0167584750   -0.6925126030    2.5061745445
     61  H         7.7813179337   -1.2521806142    3.0411446768
     62  H         6.6381861928    0.0948268363    3.1664638985
     63  H         7.4797366372   -0.2198217050    1.6335561132
     64  C         3.3864142604    1.9555760607    0.0291462960
     65  H         4.3481525283    2.4343709494   -0.1735045637
     66  H         2.8040366366    2.0545737263   -0.8911280462
     67  C         1.9013424644   -2.8891351224    0.0316629671
     68  H         1.9433225521   -3.6819562345    0.7827816465
     69  H         0.8721086526   -2.5218139845    0.0512146509
     70  C         2.6772863259    2.7049087708    1.1555075309
     71  H         1.6809362856    2.3001829789    1.3329921558
     72  H         2.5650986513    3.7625602702    0.9147586295
     73  H         3.2351546205    2.6303869284    2.0897996483
     74  C         2.2000968795   -3.4861591577   -1.3425137951
     75  H         2.1310465954   -2.7354040570   -2.1298548560
     76  H         3.2047388539   -3.9085660487   -1.3767087808
     77  H         1.4928927054   -4.2821595705   -1.5805926179
     78  C        -2.5645530306   -0.4003713850   -3.0261501349
     79  C        -2.8704855949   -1.6996591170   -3.4395332487
     80  C        -4.0637056050   -1.9700877878   -4.1074187675
     81  H        -4.2640267338   -2.9901040502   -4.4132875518
     82  C        -4.9686856831   -0.9513568344   -4.3666971768
     83  O        -6.1437753824   -1.1193397312   -5.0091361356
     84  C        -4.6752881388    0.3434513873   -3.9481767549
     85  H        -5.3875082880    1.1346780322   -4.1529611246
     86  C        -3.4920716117    0.6216134516   -3.2857337631
     87  C        -6.4787524119   -2.4023143503   -5.4649188224
     88  H        -7.4461782475   -2.3159250633   -5.9554031471
     89  H        -6.5680015074   -3.1255814791   -4.6475303920
     90  H        -5.7554420120   -2.7884643249   -6.1909194607
     91  C        -3.1881127570    2.0476157969   -2.9083302468
     92  H        -4.1211031116    2.5794521459   -2.7056994660
     93  H        -2.6166856062    2.0824509379   -1.9764856199
     94  C        -1.9616243257   -2.8592264971   -3.1139892956
     95  H        -0.9268680413   -2.5217302493   -3.0126612488
     96  H        -1.9577478056   -3.5685513294   -3.9462840399
     97  C        -2.4171546162    2.7813818391   -4.0030347905
     98  H        -1.4493995717    2.3149328948   -4.1871167778
     99  H        -2.9720164590    2.7757694607   -4.9416120376
    100  H        -2.2354193654    3.8199720295   -3.7247924282
    101  C        -2.3793572058   -3.5835174235   -1.8352841078
    102  H        -2.3671709163   -2.9098999832   -0.9780403067
    103  H        -3.3882839003   -3.9883064019   -1.9220068563
    104  H        -1.7038925759   -4.4119403823   -1.6172450800
   Point Group: c1    Number of degrees of freedom:   306


   Energy is  -2280.731748338


 Attempting to Generate Delocalized Internal Coordinates

306 Hessian modes will be used to form the next step
  Hessian Eigenvalues:
     0.005501    0.005507    0.005550    0.005632    0.007979    0.008009
     0.008260    0.008373    0.009365    0.009630    0.010866    0.011122
     0.011774    0.015364    0.015456    0.015713    0.016857    0.016926
     0.017211    0.017439    0.017496    0.018077    0.018161    0.018358
     0.018400    0.018428    0.018444    0.018646    0.019240    0.019434
     0.019837    0.020562    0.020646    0.020888    0.021011    0.021151
     0.021200    0.021479    0.021527    0.021647    0.021714    0.021801
     0.021847    0.022295    0.022328    0.022334    0.022346    0.022388
     0.022500    0.022541    0.022548    0.022801    0.022826    0.023196
     0.023197    0.023238    0.023254    0.023270    0.023303    0.023541
     0.023559    0.023672    0.023674    0.023679    0.023682    0.023716
     0.023816    0.023829    0.023857    0.023866    0.023888    0.023894
     0.023898    0.023906    0.023925    0.024062    0.024153    0.024402
     0.024431    0.024881    0.024919    0.041690    0.042082    0.042398
     0.042536    0.055412    0.055522    0.055642    0.055682    0.055853
     0.056099    0.056146    0.056210    0.056256    0.056288    0.056455
     0.056532    0.093975    0.094018    0.094119    0.094763    0.099087
     0.099166    0.105566    0.105613    0.128607    0.128668    0.128796
     0.129197    0.159796    0.159798    0.159818    0.159888    0.159961
     0.159972    0.159974    0.159978    0.159979    0.159983    0.159983
     0.159984    0.159987    0.159989    0.159992    0.159995    0.159998
     0.159999    0.160000    0.160000    0.160000    0.160000    0.160000
     0.160000    0.160000    0.160000    0.160000    0.160000    0.160000
     0.160000    0.160000    0.160000    0.160000    0.160000    0.160000
     0.160000    0.160000    0.160000    0.218920    0.219001    0.219012
     0.219029    0.220589    0.220597    0.222103    0.222126    0.231150
     0.231439    0.233402    0.233595    0.234584    0.234586    0.234876
     0.234880    0.236848    0.237058    0.237941    0.238669    0.244448
     0.245431    0.246619    0.247004    0.247580    0.248048    0.248422
     0.248726    0.248832    0.248911    0.249243    0.249398    0.249561
     0.249561    0.249563    0.249674    0.249721    0.249823    0.249852
     0.249916    0.249957    0.250000    0.250000    0.250000    0.250000
     0.259409    0.260980    0.265783    0.268707    0.270375    0.271468
     0.296272    0.296312    0.296618    0.297194    0.314444    0.314671
     0.316591    0.317467    0.338078    0.338693    0.340359    0.341695
     0.342235    0.342296    0.342319    0.342320    0.343939    0.344046
     0.344047    0.344368    0.344556    0.344693    0.344757    0.344823
     0.346892    0.347080    0.347295    0.347487    0.347558    0.347588
     0.347701    0.347740    0.347768    0.348017    0.348170    0.348174
     0.350326    0.350337    0.354423    0.354545    0.354613    0.354803
     0.354863    0.355056    0.355668    0.356041    0.356044    0.356070
     0.356235    0.356277    0.356300    0.356462    0.356556    0.356708
     0.357199    0.357287    0.357323    0.357392    0.367365    0.369137
     0.379188    0.392205    0.400726    0.404646    0.409042    0.409345
     0.415514    0.415603    0.418417    0.419564    0.422841    0.426246
     0.426551    0.427083    0.427220    0.428022    0.433069    0.433376
     0.434269    0.435774    0.452692    0.453040    0.453842    0.454151
     0.455563    0.455688    0.456962    0.458545    0.465769    0.467305
     0.472119    0.472495    0.476858    0.478361    0.479606    0.481401
     0.483241    0.484703    0.484846    0.485114    0.487011    0.487313
     0.500539    0.501566    0.502082    0.502847    0.550780    0.551319

 Minimum Search - Taking Simple RFO Step
 Searching for Lamda that Minimizes Along All modes
 Value Taken    Lamda =  -0.00499089
 Calculated Step too Large.  Step scaled by  0.742500
 Step Taken.  Stepsize is  0.300000

                             Maximum     Tolerance    Cnvgd?
         Gradient           0.011272      0.000300      NO
         Displacement       0.154064      0.001200      NO
         Energy change     *********      0.000001      NO


 New Cartesian Coordinates Obtained by Inverse Iteration

 Displacement from previous Coordinates is:  3.219816
 Adding empirical dispersion correction 
 ----------------------------------------------------------------
 Doing -D3(BJ) with
 s6 =   1.00000
 s8 =   0.00000
 a1 =   0.48600
 a2 =   4.50000
 -D3 energy including 3body term =     -0.0958898780 hartrees
 ----------------------------------------------------------------
 Adding gCP correction 
 ----------------------------------------------------------------
 gCP energy =      0.1521828882 hartrees
 ----------------------------------------------------------------
             Standard Nuclear Orientation (Angstroms)
    I     Atom           X                Y                Z
 ----------------------------------------------------------------
    1      C       0.0164202745    -0.1789534474     0.0390402159
    2      C       0.0103548741    -0.1682285056     1.4404587376
    3      H       0.9482641382    -0.1818391662     1.9840680049
    4      C      -1.1910933365    -0.1646599053     2.1270695930
    5      C      -2.4103268112    -0.2050123491     1.4130039607
    6      C      -2.4148451608    -0.2265030523     0.0326944479
    7      H      -3.3527590170    -0.2750612762    -0.5095709990
    8      C      -1.2083307957    -0.1963997503    -0.6703669652
    9      C      -1.5077797671    -0.1994932778     3.5582528217
   10      C      -0.7811375307    -0.2177613969     4.7192340615
   11      H       0.3011116186    -0.1797900574     4.7178697898
   12      C      -2.9121682675    -0.2626793840     3.6471834196
   13      C      -3.6240365196    -0.3570863224     4.8376435441
   14      C      -3.5088873562    -0.2720707064     2.3732310293
   15      C      -4.8722342964    -0.3807143044     2.2813031821
   16      H      -5.3831828277    -0.4044896886     1.3262331136
   17      C      -1.4777181328    -0.2964226046     5.9496855460
   18      H      -0.9031979852    -0.3078009950     6.8665437072
   19      C      -2.8503526099    -0.3663307288     6.0224196094
   20      H      -3.3385117443    -0.4333748239     6.9870169942
   21      C      -5.6233152123    -0.4704341321     3.4769936683
   22      H      -6.6999650665    -0.5557058260     3.4053441985
   23      C      -5.0327656373    -0.4591679735     4.7197425539
   24      H      -5.6470760427    -0.5354000429     5.6085839097
   25      B      -1.2108716680    -0.2543875326    -2.2265478444
   26      B       1.3620596519    -0.2780835958    -0.7431709993
   27      C       1.3685407406    -0.1489681058    -2.2941624892
   28      C       2.5752611250    -0.1302741861    -3.0054678936
   29      H       3.5167084885    -0.1627337091    -2.4680388605
   30      C       2.5628561260    -0.0962292187    -4.3888240865
   31      C       1.3301810854    -0.1073372032    -5.0802974894
   32      C       0.1360410257    -0.1385316201    -4.3896798330
   33      H      -0.8058647732    -0.1644744354    -4.9268688156
   34      C       0.1384963833    -0.1533878581    -2.9940688896
   35      C       1.6016870234    -0.1549500131    -6.5139004600
   36      C       0.8283663822    -0.2396409238    -7.6426685111
   37      H      -0.2538436871    -0.2409524039    -7.5964350190
   38      C       3.0012285077    -0.1715412276    -6.6461005244
   39      C       3.6629781497    -0.2753147450    -7.8655071822
   40      C       3.6360515229    -0.1366310327    -5.3891495080
   41      C       5.0046678727    -0.1885031180    -5.3551672355
   42      H       5.5544292136    -0.1719413026    -4.4225642508
   43      C       1.4745607103    -0.3340329161    -8.8980520038
   44      H       0.8657261416    -0.3999120616    -9.7905551119
   45      C       2.8446909405    -0.3531225571    -9.0197702788
   46      H       3.2970260549    -0.4346908010   -10.0007416016
   47      C       5.7097771841    -0.2732232328    -6.5810574530
   48      H       6.7908392733    -0.3105770366    -6.5514144196
   49      C       5.0758460343    -0.3194668834    -7.8013391331
   50      H       5.6583548082    -0.3954450347    -8.7114385491
   51      C       2.6873985567    -0.5708224218     0.0389115001
   52      C       3.6015101063     0.4387587923     0.3403401362
   53      C       4.7674367002     0.1570088068     1.0529843392
   54      H       5.4485665506     0.9698545413     1.2741158566
   55      C       5.0362595962    -1.1417665983     1.4607798710
   56      O       6.1357413609    -1.5141522062     2.1484786803
   57      C       4.1299052516    -2.1561839608     1.1560306825
   58      H       4.3492184529    -3.1692535316     1.4754719518
   59      C       2.9660647564    -1.8845824734     0.4580120209
   60      C       7.0850679078    -0.5312709951     2.4749305179
   61      H       7.8836214766    -1.0336232120     3.0168053580
   62      H       6.6684557875     0.2508104418     3.1176440846
   63      H       7.5135059098    -0.0569620541     1.5862441115
   64      C       3.3190381913     1.8705580578    -0.0399718192
   65      H       4.2577284127     2.3834095734    -0.2647960073
   66      H       2.7291953839     1.9108750220    -0.9601116646
   67      C       2.0461409163    -3.0284348308     0.1065194419
   68      H       2.1332946200    -3.8094318059     0.8658361884
   69      H       1.0025389340    -2.7045670569     0.1351695832
   70      C       2.5795539718     2.6308250206     1.0590982955
   71      H       1.6008947743     2.1914466641     1.2534680208
   72      H       2.4226617683     3.6723539926     0.7764109499
   73      H       3.1412821151     2.6169545682     1.9939633511
   74      C       2.3469036436    -3.6281183777    -1.2664599023
   75      H       2.2313911996    -2.8900457907    -2.0607426933
   76      H       3.3679801509    -4.0081083008    -1.3139779254
   77      H       1.6702112493    -4.4560750088    -1.4835396130
   78      C      -2.5548862100    -0.4806998090    -3.0137652159
   79      C      -2.8870473993    -1.7658675675    -3.4537218515
   80      C      -4.0828866509    -2.0025028826    -4.1308409497
   81      H      -4.3042382439    -3.0133134866    -4.4522780017
   82      C      -4.9657197561    -0.9618517767    -4.3777742775
   83      O      -6.1431846410    -1.0983025370    -5.0238273942
   84      C      -4.6437969992     0.3211822135    -3.9429055850
   85      H      -5.3354448874     1.1323851995    -4.1421392453
   86      C      -3.4572207005     0.5663667830    -3.2715177010
   87      C      -6.5112276336    -2.3732995133    -5.4873366339
   88      H      -7.4748500772    -2.2617722530    -5.9801184861
   89      H      -6.6204211054    -3.0959374523    -4.6723644030
   90      H      -5.7955736070    -2.7747838997    -6.2118141488
   91      C      -3.1277032023     1.9860180615    -2.8895167741
   92      H      -4.0507742106     2.5301102467    -2.6749624910
   93      H      -2.5449133689     2.0083113602    -1.9646174661
   94      C      -2.0061664457    -2.9507324299    -3.1480961114
   95      H      -0.9646539432    -2.6386080358    -3.0354246289
   96      H      -2.0155138958    -3.6440408629    -3.9936065296
   97      C      -2.3623925066     2.7151156739    -3.9921605736
   98      H      -1.4055242462     2.2347217767    -4.1968104941
   99      H      -2.9333195117     2.7251257909    -4.9213406217
  100      H      -2.1602318362     3.7488896577    -3.7100149703
  101      C      -2.4491091114    -3.6897827095    -1.8869588605
  102      H      -2.4273758703    -3.0331218067    -1.0166479280
  103      H      -3.4664940439    -4.0695307874    -1.9889895259
  104      H      -1.7941657543    -4.5376732474    -1.6814940215
 ----------------------------------------------------------------
 Nuclear Repulsion Energy =  7614.5938344871 hartrees
 There are      198 alpha and      198 beta electrons
 Discretize the solute cavity surface with Lebedev spheres
	Using 302 Lebedev grid points for each H atom
	Using 302 Lebedev grid points for other atoms
	Atomic van der Waals radii will be scaled by 1.20
 Remove points where switching function is < 1.0e-08
 Keep 10978 surface tesserae and discard 20430 interior tesserae
 Molecular Surface Area = 795.131 Angst**2
 Applying Cartesian multipole field
    Component          Value
    ---------          -----
     (2,0,0)        1.00000E-12
     (0,2,0)        2.00000E-11
     (0,0,2)       -3.00000E-12
 Nucleus-field energy     =     0.0000000032 hartrees
 Requested basis set is def2-mSVP
 There are 498 shells and 962 basis functions
 A cutoff of  1.0D-12 yielded  48368 shell pairs
 There are    187746 function pairs (    206621 Cartesian)
 Smallest overlap matrix eigenvalue = 1.96E-04
 Guess MOs from SCF MO coefficient file
 Reading MOs from coefficient file
 Reading MOs from coefficient file
 A restricted hybrid HF-DFT SCF calculation will be
 performed using Pulay DIIS extrapolation
 Polarizable Continuum solvation model will be applied
 Exchange:     0.4200 Hartree-Fock + 0.5800 PBEh-3c
 Correlation:  1.0000 PBEh-3c
 Using SG-1 standard quadrature grid
 Dispersion:   Grimme D3
 SCF converges when DIIS error is below 1.0E-09
 Geometry optimization detected.  Setting ReadMinima to 0
 Setting SaveMinima to 0
 using 4 threads for integral computing
 -------------------------------------------------------
 OpenMP Integral computing Module                
 Release: version 1.0, May 2013, Q-Chem Inc. Pittsburgh 
 -------------------------------------------------------
 ---------------------------------------
  Cycle       Energy         DIIS Error
 ---------------------------------------
    1   -2280.5918437674      1.20E-03
 Using non-symmetric K matrix
    2   -2280.7280163775      1.49E-04
    3   -2280.7314437183      1.28E-04
    4   -2280.7333065908      4.14E-05
    5   -2280.7334995969      1.73E-05
    6   -2280.7335348929      7.12E-06
    7   -2280.7335412609      2.09E-06
    8   -2280.7335418172      6.77E-07
    9   -2280.7335418771      2.08E-07
   10   -2280.7335418823      8.83E-08
   11   -2280.7335418830      2.84E-08
   12   -2280.7335418830      1.01E-08
   13   -2280.7335418819      4.50E-09
   14   -2280.7335418807      1.56E-09
   15   -2280.7335418790      5.85E-10 Convergence criterion met
 ---------------------------------------

************** Final PCM Free Energy Summary **************
 G_electrostatic  =      -0.02208896 hartree =     -13.86103221 kcal/mol
 G_cavitation     =       0.00000000 hartree =       0.00000000 kcal/mol
 G_dispersion     =       0.00000000 hartree =       0.00000000 kcal/mol
 G_repulsion      =       0.00000000 hartree =       0.00000000 kcal/mol
 --------------------------------------------------
[...]
H  57 1.084741 55 119.124299 53 179.614947 0
C  57 1.385136 55 120.771741 53 -0.329004 0
C  56 1.407917 55 118.411327 53 0.401935 0
H  60 1.087772 56 106.598795 55 179.782133 0
H  60 1.094066 56 112.164555 55 -61.482500 0
H  60 1.094103 56 112.167487 55 61.058047 0
C  52 1.507641 51 120.686030 50 2.415725 0
H  64 1.092908 52 109.609001 51 -149.988577 0
H  64 1.093543 52 110.359437 51 -33.905917 0
C  59 1.508729 57 118.865322 55 177.400812 0
H  67 1.092701 59 109.548629 57 33.397735 0
H  67 1.093400 59 110.394499 57 149.535576 0
C  64 1.527596 52 112.502198 51 88.239291 0
H  70 1.090299 64 111.333609 52 -61.286100 0
H  70 1.090584 64 111.120042 52 58.786870 0
H  70 1.090619 64 110.893569 52 178.902793 0
C  67 1.528127 59 112.561428 57 -88.241948 0
H  74 1.090288 67 111.453278 59 -60.867653 0
H  74 1.090558 67 111.092240 59 59.278064 0
H  74 1.090801 67 110.852880 59 179.260722 0
C  25 1.575018 1 119.983851 2 2.244880 0
C  78 1.397751 25 120.112703 1 81.749538 0
C  79 1.393985 78 120.957150 25 -179.274280 0
H  80 1.083491 79 118.447549 78 -179.816112 0
C  80 1.387816 79 120.292390 78 -0.083130 0
O  82 1.349549 80 124.490084 79 -179.935932 0
C  82 1.392290 80 119.172672 79 0.076131 0
H  84 1.084848 82 119.049416 80 179.754983 0
C  84 1.385895 82 120.851462 80 0.043993 0
C  83 1.408687 82 118.488409 80 0.135430 0
H  87 1.087783 83 106.592696 82 179.922048 0
H  87 1.094080 83 112.184220 82 61.197663 0
H  87 1.094104 83 112.209370 82 -61.363763 0
C  86 1.506531 84 118.406301 82 176.611861 0
H  91 1.092821 86 109.615101 84 37.820959 0
H  91 1.093540 86 110.545913 84 154.166509 0
C  79 1.508061 78 121.216078 25 3.723438 0
H  94 1.093212 79 110.570051 78 -26.482795 0
H  94 1.093260 79 109.655257 78 -142.644721 0
C  94 1.527180 79 112.061002 78 95.756367 0
H  97 1.090516 94 111.075212 79 -59.528516 0
H  97 1.090560 94 111.034298 79 -179.548461 0
H  97 1.090749 94 111.102440 79 60.332389 0
C  91 1.527630 86 111.943007 84 -83.568600 0
H  101 1.090259 91 111.208748 86 -60.892610 0
H  101 1.090515 91 111.044765 86 179.100136 0
H  101 1.090634 91 110.978625 86 58.978832 0
$end

 
 --------------------------------------------------------------
 
                    Orbital Energies (a.u.)
 --------------------------------------------------------------
 
 Alpha MOs
 -- Occupied --
-19.526 -19.526 -10.503 -10.503 -10.484 -10.483 -10.465 -10.465
-10.464 -10.464 -10.464 -10.464 -10.463 -10.463 -10.462 -10.462
-10.462 -10.462 -10.460 -10.460 -10.460 -10.460 -10.460 -10.459
-10.457 -10.457 -10.457 -10.457 -10.455 -10.454 -10.452 -10.452
-10.451 -10.451 -10.451 -10.451 -10.447 -10.447 -10.435 -10.435
-10.434 -10.434 -10.434 -10.434 -10.434 -10.433 -10.433 -10.433
-10.431 -10.431 -10.420 -10.420 -10.419 -10.419 -10.419 -10.417
 -6.949  -6.949  -1.182  -1.182  -1.016  -1.016  -0.963  -0.959
 -0.956  -0.955  -0.932  -0.932  -0.909  -0.901  -0.889  -0.888
 -0.866  -0.864  -0.854  -0.854  -0.846  -0.845  -0.824  -0.821
 -0.818  -0.813  -0.812  -0.805  -0.802  -0.801  -0.773  -0.772
 -0.734  -0.728  -0.726  -0.720  -0.712  -0.711  -0.703  -0.702
 -0.688  -0.680  -0.678  -0.665  -0.657  -0.647  -0.646  -0.645
 -0.631  -0.630  -0.593  -0.592  -0.590  -0.586  -0.583  -0.583
 -0.582  -0.574  -0.573  -0.563  -0.563  -0.544  -0.542  -0.536
 -0.532  -0.532  -0.526  -0.522  -0.513  -0.507  -0.503  -0.503
 -0.501  -0.500  -0.499  -0.495  -0.493  -0.489  -0.488  -0.486
 -0.485  -0.484  -0.483  -0.481  -0.480  -0.478  -0.476  -0.465
 -0.462  -0.459  -0.458  -0.456  -0.453  -0.452  -0.442  -0.439
 -0.436  -0.435  -0.433  -0.430  -0.429  -0.427  -0.424  -0.418
 -0.413  -0.412  -0.408  -0.406  -0.400  -0.400  -0.397  -0.395
 -0.395  -0.393  -0.392  -0.391  -0.390  -0.388  -0.383  -0.381
 -0.378  -0.372  -0.363  -0.362  -0.360  -0.357  -0.355  -0.351
 -0.340  -0.339  -0.319  -0.313  -0.295  -0.295  -0.282  -0.277
 -0.276  -0.262  -0.258  -0.256  -0.252  -0.250
 -- Virtual --
 -0.092  -0.059  -0.037  -0.030  -0.005   0.006   0.014   0.022
  0.025   0.036   0.037   0.045   0.069   0.082   0.086   0.091
  0.117   0.123   0.144   0.151   0.152   0.152   0.159   0.161
  0.162   0.163   0.166   0.166   0.169   0.171   0.175   0.178
  0.183   0.187   0.189   0.191   0.194   0.196   0.199   0.201
  0.202   0.203   0.204   0.206   0.207   0.208   0.209   0.212
  0.215   0.217   0.220   0.221   0.222   0.223   0.224   0.225
  0.226   0.228   0.230   0.231   0.233   0.234   0.236   0.238
  0.241   0.243   0.247   0.249   0.253   0.253   0.254   0.257
  0.262   0.265   0.269   0.270   0.271   0.275   0.280   0.286
  0.286   0.287   0.290   0.294   0.295   0.300   0.304   0.311
  0.312   0.312   0.313   0.316   0.322   0.326   0.327   0.331
  0.334   0.336   0.339   0.344   0.351   0.352   0.356   0.365
  0.373   0.381   0.389   0.395   0.399   0.404   0.405   0.414
  0.418   0.421   0.424   0.428   0.438   0.446   0.449   0.452
  0.455   0.460   0.465   0.468   0.472   0.479   0.482   0.489
  0.491   0.495   0.498   0.499   0.502   0.502   0.504   0.512
  0.522   0.523   0.525   0.526   0.527   0.528   0.529   0.531
  0.534   0.535   0.538   0.540   0.541   0.544   0.545   0.550
  0.552   0.554   0.555   0.558   0.559   0.563   0.565   0.566
  0.569   0.571   0.573   0.574   0.582   0.583   0.586   0.587
  0.588   0.588   0.589   0.591   0.594   0.595   0.596   0.598
  0.600   0.601   0.603   0.608   0.616   0.618   0.619   0.619
  0.621   0.623   0.626   0.631   0.632   0.635   0.637   0.640
  0.645   0.649   0.652   0.653   0.656   0.657   0.659   0.660
  0.662   0.663   0.664   0.668   0.672   0.676   0.678   0.679
  0.684   0.685   0.698   0.701   0.704   0.706   0.710   0.713
  0.714   0.718   0.720   0.721   0.727   0.731   0.733   0.735
  0.743   0.743   0.747   0.751   0.754   0.757   0.758   0.768
  0.773   0.775   0.776   0.780   0.785   0.787   0.788   0.790
  0.793   0.795   0.804   0.805   0.815   0.821   0.830   0.833
  0.839   0.841   0.845   0.847   0.851   0.856   0.860   0.865
  0.878   0.882   0.889   0.899   0.900   0.904   0.908   0.909
  0.914   0.919   0.921   0.935   0.942   0.945   0.950   0.952
  0.954   0.961   0.961   0.964   0.965   0.974   0.980   0.985
  0.987   0.988   0.989   0.992   0.992   0.995   0.997   1.002
  1.004   1.005   1.007   1.008   1.010   1.012   1.021   1.026
  1.027   1.031   1.032   1.035   1.037   1.038   1.040   1.043
  1.044   1.050   1.052   1.053   1.056   1.058   1.063   1.066
  1.069   1.071   1.075   1.079   1.081   1.081   1.082   1.086
  1.088   1.092   1.097   1.098   1.100   1.104   1.106   1.124
  1.125   1.127   1.129   1.132   1.142   1.144   1.149   1.149
  1.155   1.158   1.161   1.165   1.168   1.171   1.178   1.181
  1.183   1.185   1.187   1.193   1.205   1.214   1.221   1.223
  1.225   1.242   1.243   1.248   1.260   1.263   1.266   1.268
  1.272   1.273   1.277   1.287   1.289   1.293   1.298   1.299
  1.300   1.301   1.304   1.313   1.316   1.320   1.326   1.330
  1.335   1.338   1.345   1.348   1.356   1.358   1.364   1.365
  1.368   1.373   1.375   1.379   1.384   1.387   1.399   1.407
  1.410   1.412   1.415   1.419   1.426   1.432   1.435   1.438
  1.441   1.441   1.443   1.450   1.453   1.456   1.466   1.477
  1.479   1.493   1.512   1.512   1.513   1.517   1.517   1.519
  1.519   1.524   1.527   1.531   1.532   1.533   1.533   1.541
  1.544   1.547   1.551   1.558   1.564   1.564   1.570   1.571
  1.579   1.586   1.588   1.589   1.592   1.597   1.602   1.613
  1.618   1.621   1.626   1.627   1.638   1.646   1.653   1.654
  1.661   1.670   1.683   1.700   1.707   1.716   1.740   1.748
  1.752   1.754   1.756   1.760   1.772   1.774   1.781   1.785
  1.790   1.792   1.799   1.807   1.808   1.809   1.810   1.812
  1.813   1.817   1.819   1.822   1.838   1.847   1.860   1.864
  1.883   1.893   1.901   1.905   1.907   1.918   1.920   1.926
  1.937   1.939   1.940   1.946   1.950   1.967   1.974   1.976
  1.982   1.983   1.986   1.989   1.992   1.995   1.999   2.000
  2.023   2.024   2.030   2.033   2.034   2.041   2.042   2.047
  2.054   2.055   2.064   2.068   2.073   2.075   2.081   2.082
  2.083   2.087   2.098   2.103   2.110   2.112   2.112   2.117
  2.127   2.130   2.134   2.137   2.153   2.155   2.157   2.159
  2.161   2.162   2.165   2.169   2.169   2.187   2.196   2.200
  2.203   2.204   2.205   2.222   2.232   2.232   2.234   2.250
  2.252   2.258   2.260   2.263   2.265   2.268   2.274   2.276
  2.280   2.287   2.292   2.294   2.308   2.316   2.321   2.322
  2.323   2.323   2.332   2.333   2.334   2.337   2.340   2.343
  2.345   2.350   2.353   2.355   2.359   2.360   2.362   2.367
  2.369   2.374   2.389   2.389   2.391   2.396   2.398   2.410
  2.415   2.417   2.423   2.424   2.428   2.430   2.434   2.438
  2.447   2.451   2.469   2.471   2.475   2.475   2.477   2.486
  2.491   2.491   2.495   2.498   2.517   2.519   2.522   2.525
  2.532   2.550   2.557   2.567   2.572   2.589   2.614   2.627
  2.629   2.633   2.643   2.645   2.646   2.647   2.654   2.667
  2.683   2.687   2.688   2.690   2.711   2.717   2.720   2.727
  2.729   2.733   2.734   2.752   2.759   2.763   2.774   2.775
  2.777   2.784   2.786   2.788   2.791   2.791   2.794   2.798
  2.806   2.809   2.814   2.817   2.821   2.823   2.843   2.851
  2.856   2.861   2.874   2.877   2.896   2.899   2.903   2.905
  2.920   2.929   2.941   2.942   2.957   2.981   2.999   3.008
  3.011   3.028   3.048   3.061   3.079   3.080   3.083   3.084
  3.102   3.113   3.120   3.237   3.254   3.257   3.314   3.315
  3.404   3.443   3.448   3.490   3.493   3.496   3.545   3.554
  3.667   3.681   9.582   9.735  13.143  13.177  13.402  13.478
 13.496  13.515  13.527  13.549  13.674  13.680  13.727  13.759
 13.767  13.773  13.774  13.795  13.803  13.806  13.860  13.877
 13.884  13.901  13.922  13.987  13.998  14.022  14.036  14.039
 14.041  14.045  14.049  14.051  14.156  14.163  14.163  14.199
 14.221  14.225  14.225  14.277  14.286  14.291  14.309  14.314
 14.345  14.346  14.512  14.517  14.562  14.573  14.576  14.584
 14.584  14.587  25.786  25.787
 --------------------------------------------------------------
 
          Ground-State Mulliken Net Atomic Charges

     Atom                 Charge (a.u.)
  ----------------------------------------
      1 C                    -0.153155
      2 C                    -0.399799
      3 H                     0.247309
      4 C                     0.099507
      5 C                     0.072569
      6 C                    -0.390531
      7 H                     0.245298
      8 C                    -0.153788
      9 C                     0.183087
     10 C                    -0.396258
     11 H                     0.245915
     12 C                    -0.065725
     13 C                     0.229078
     14 C                     0.181981
     15 C                    -0.386647
     16 H                     0.246026
     17 C                    -0.225819
     18 H                     0.250443
     19 C                    -0.348576
     20 H                     0.246924
     21 C                    -0.228871
     22 H                     0.250940
     23 C                    -0.344111
     24 H                     0.246510
     25 B                     0.657963
     26 B                     0.657680
     27 C                    -0.155018
     28 C                    -0.398261
     29 H                     0.247016
     30 C                     0.100439
     31 C                     0.072628
     32 C                    -0.390472
     33 H                     0.247940
     34 C                    -0.152561
     35 C                     0.182348
     36 C                    -0.388344
     37 H                     0.245436
     38 C                    -0.065703
     39 C                     0.228535
     40 C                     0.184016
     41 C                    -0.397759
     42 H                     0.245390
     43 C                    -0.228324
     44 H                     0.250849
     45 C                    -0.343770
     46 H                     0.246601
     47 C                    -0.225364
     48 H                     0.250225
     49 C                    -0.348543
     50 H                     0.247018
     51 C                    -0.222921
     52 C                     0.077129
     53 C                    -0.444326
     54 H                     0.246822
     55 C                     0.392140
     56 O                    -0.466551
     57 C                    -0.398936
     58 H                     0.234326
     59 C                     0.070493
     60 C                    -0.424311
     61 H                     0.250977
     62 H                     0.216616
     63 H                     0.216550
     64 C                    -0.553239
     65 H                     0.237134
     66 H                     0.254899
     67 C                    -0.556091
     68 H                     0.240350
     69 H                     0.256266
     70 C                    -0.654821
     71 H                     0.240800
     72 H                     0.226062
     73 H                     0.219275
     74 C                    -0.654923
     75 H                     0.239985
     76 H                     0.221422
     77 H                     0.224867
     78 C                    -0.230790
     79 C                     0.067399
     80 C                    -0.440349
     81 H                     0.247150
     82 C                     0.391957
     83 O                    -0.467056
     84 C                    -0.392612
     85 H                     0.234103
     86 C                     0.073767
     87 C                    -0.424270
     88 H                     0.251033
     89 H                     0.216907
     90 H                     0.216751
     91 C                    -0.552240
     92 H                     0.239866
     93 H                     0.252894
     94 C                    -0.555283
     95 H                     0.258571
     96 H                     0.238611
     97 C                    -0.653888
     98 H                     0.237430
     99 H                     0.221212
    100 H                     0.225764
    101 C                    -0.650750
    102 H                     0.237324
    103 H                     0.218678
    104 H                     0.225550
  ----------------------------------------
  Sum of atomic charges =    -0.000000

 -----------------------------------------------------------------
                    Cartesian Multipole Moments
 -----------------------------------------------------------------
    Charge (ESU x 10^10)
                -0.0000
    Dipole Moment (Debye)
         X       0.1932      Y      -0.0981      Z      -0.3658
       Tot       0.4251
    Quadrupole Moments (Debye-Ang)
        XX    -281.0271     XY      20.3148     YY    -334.7511
        XZ      -2.6221     YZ      11.7536     ZZ    -277.1388
    Octopole Moments (Debye-Ang^2)
       XXX      -2.8664    XXY     161.0590    XYY     -55.4654
       YYY     509.2128    XXZ     424.5302    XYZ     -39.4878
       YYZ     478.1334    XZZ     -24.5102    YZZ      99.5513
       ZZZ    1223.7988
    Hexadecapole Moments (Debye-Ang^3)
      XXXX  -22030.4888   XXXY     694.3735   XXYY   -4948.0428
      XYYY    -198.5713   YYYY   -4262.2966   XXXZ    1935.7125
      XXYZ     322.5641   XYYZ    1244.6367   YYYZ    -727.5215
      XXZZ   -8195.8315   XYZZ     338.6843   YYZZ   -6973.8301
      XZZZ    1044.0064   YZZZ    -394.2401   ZZZZ  -29182.1923
 -----------------------------------------------------------------
Archival summary:
1\1\ctcp044\OPT\ProcedureUnspecified\BasisUnspecified\254246\mewes\ThuOct2508:57:502018ThuOct2508:57:502018\0\\#,OPT,ProcedureUnspecified,BasisUnspecified,\\0,1\C\C,1,1.39516\H,2,1.08446,1,120.08\C,2,1.38004,1,119.891,3,-179.772,0\C,4,1.41267,2,120.867,1,0.348368,0\C,5,1.3844,4,119.596,2,-0.0806955,0\H,6,1.08431,5,120.138,4,179.241,0\C,6,1.40151,5,120.104,4,-0.390098,0\C,4,1.45913,2,130.429,1,179.853,0\C,9,1.37126,4,134.95,2,0.412017,0\H,10,1.08325,9,121.941,4,0.209835,0\C,9,1.40543,4,106.067,2,-179.419,0\C,12,1.39166,9,123.752,4,179.742,0\C,12,1.40866,9,111.428,4,-0.0562252,0\C,14,1.37043,12,117.97,9,179.756,0\H,15,1.08272,14,121.924,12,-179.865,0\C,13,1.41493,12,115.978,9,-179.77,0\H,17,1.08326,13,120.111,12,179.972,0\C,17,1.37601,13,119.865,12,0.0314772,0\H,19,1.08214,17,118.948,13,179.935,0\C,10,1.41517,9,118.471,4,-179.779,0\H,21,1.08243,10,118.58,9,-179.992,0\C,21,1.37605,10,122.273,9,0.0459318,0\H,23,1.08327,21,119.865,10,179.922,0\B,1,1.55511,2,119.549,3,0.38452,0\C,25,1.55619,1,119.097,2,-178.94,0\C,26,1.39533,25,119.592,1,178.407,0\H,27,1.08465,26,119.909,25,-0.307764,0\C,27,1.38117,26,119.985,25,179.526,0\C,29,1.41284,27,120.833,26,-0.400831,0\C,30,1.38553,29,119.56,27,0.244004,0\H,31,1.08449,30,120.099,29,-179.984,0\C,31,1.40143,30,120.148,29,0.00292414,0\C,29,1.45816,27,130.416,26,-179.958,0\C,34,1.37087,29,134.802,27,-0.361454,0\H,35,1.08339,34,121.96,29,-0.109641,0\C,34,1.40622,29,106.019,27,179.558,0\C,37,1.39013,34,123.722,29,-179.857,0\C,37,1.40951,34,111.424,29,0.0341059,0\C,39,1.37003,37,118.106,34,-179.887,0\H,40,1.08286,39,121.965,37,179.943,0\C,35,1.41476,34,118.286,29,179.882,0\H,42,1.08238,35,118.595,34,179.995,0\C,42,1.37649,35,122.284,34,-0.022946,0\H,44,1.08319,42,119.752,35,-179.969,0\C,38,1.41549,37,115.849,34,179.896,0\H,46,1.08308,38,120.11,37,-179.996,0\C,46,1.37624,38,119.956,37,-0.0212789,0\H,48,1.08209,46,118.92,38,-179.96,0\B,8,1.55848,6,120.331,5,179.053,0\C,50,1.5678,8,119.807,6,-1.67093,0\C,51,1.39712,50,121.065,8,80.8439,0\C,52,1.3944,51,120.609,50,179.538,0\H,53,1.0833,52,118.578,51,-179.552,0\C,53,1.38923,52,120.194,51,0.376806,0\O,55,1.34946,53,124.43,52,179.995,0\C,55,1.39295,53,119.415,52,0.0559483,0\H,57,1.08474,55,119.124,53,179.615,0\C,57,1.38514,55,120.772,53,-0.329004,0\C,56,1.40792,55,118.411,53,0.401935,0\H,60,1.08777,56,106.599,55,179.782,0\H,60,1.09407,56,112.165,55,-61.4825,0\H,60,1.0941,56,112.167,55,61.058,0\C,52,1.50764,51,120.686,50,2.41572,0\H,64,1.09291,52,109.609,51,-149.989,0\H,64,1.09354,52,110.359,51,-33.9059,0\C,59,1.50873,57,118.865,55,177.401,0\H,67,1.0927,59,109.549,57,33.3977,0\H,67,1.0934,59,110.394,57,149.536,0\C,64,1.5276,52,112.502,51,88.2393,0\H,70,1.0903,64,111.334,52,-61.2861,0\H,70,1.09058,64,111.12,52,58.7869,0\H,70,1.09062,64,110.894,52,178.903,0\C,67,1.52813,59,112.561,57,-88.2419,0\H,74,1.09029,67,111.453,59,-60.8677,0\H,74,1.09056,67,111.092,59,59.2781,0\H,74,1.0908,67,110.853,59,179.261,0\C,25,1.57502,1,119.984,2,2.24488,0\C,78,1.39775,25,120.113,1,81.7495,0\C,79,1.39399,78,120.957,25,-179.274,0\H,80,1.08349,79,118.448,78,-179.816,0\C,80,1.38782,79,120.292,78,-0.0831304,0\O,82,1.34955,80,124.49,79,-179.936,0\C,82,1.39229,80,119.173,79,0.0761315,0\H,84,1.08485,82,119.049,80,179.755,0\C,84,1.3859,82,120.851,80,0.0439927,0\C,83,1.40869,82,118.488,80,0.13543,0\H,87,1.08778,83,106.593,82,179.922,0\H,87,1.09408,83,112.184,82,61.1977,0\H,87,1.0941,83,112.209,82,-61.3638,0\C,86,1.50653,84,118.406,82,176.612,0\H,91,1.09282,86,109.615,84,37.821,0\H,91,1.09354,86,110.546,84,154.167,0\C,79,1.50806,78,121.216,25,3.72344,0\H,94,1.09321,79,110.57,78,-26.4828,0\H,94,1.09326,79,109.655,78,-142.645,0\C,94,1.52718,79,112.061,78,95.7564,0\H,97,1.09052,94,111.075,79,-59.5285,0\H,97,1.09056,94,111.034,79,-179.548,0\H,97,1.09075,94,111.102,79,60.3324,0\C,91,1.52763,86,111.943,84,-83.5686,0\H,101,1.09026,91,111.209,86,-60.8926,0\H,101,1.09051,91,111.045,86,179.1,0\H,101,1.09063,91,110.979,86,58.9788,0\\\@

 Total job time:  43205.16s(wall), 96408.73s(cpu) 
 Thu Oct 25 08:57:50 2018

        *************************************************************
        *                                                           *
        *  Thank you very much for using Q-Chem.  Have a nice day.  *
        *                                                           *
        *************************************************************


0 sent ACK to 0 
now end server 0 ... 
