mFile = /cm/shared/apps/q-chem/intel/QCHEM_5.1.0_Trunk/bin/mpi/machines
Process 0 of 1 is on ctcp043 - thread support 0
initial socket setup ...start
initial socket setup ...done 
now start server 0 ... 
Q-Chem Developer Version!
                  Welcome to Q-Chem
     A Quantum Leap Into The Future Of Chemistry


 Q-Chem 5.1, Q-Chem, Inc., Pleasanton, CA (2018)

 Yihan Shao,  Zhengting Gan,  E. Epifanovsky,  A. T. B. Gilbert,  M. Wormit,  
 J. Kussmann,  A. W. Lange,  A. Behn,  Jia Deng,  Xintian Feng,  D. Ghosh,  
 M. Goldey,  P. R. Horn,  L. D. Jacobson,  I. Kaliman,  T. Kus,  A. Landau,  
 Jie Liu,  E. I. Proynov,  R. M. Richard,  R. P. Steele,  E. J. Sundstrom,  
 H. L. Woodcock III,  P. M. Zimmerman,  D. Zuev,  B. Albrecht,  E. Alguire,  
 S. A. Baeppler,  D. Barton,  Z. Benda,  Y. A. Bernard,  E. J. Berquist,  
 K. B. Bravaya,  H. Burton,  D. Casanova,  Chun-Min Chang,  Yunqing Chen,  
 A. Chien,  K. D. Closser,  M. P. Coons,  S. Coriani,  S. Dasgupta,  
 A. L. Dempwolff,  M. Diedenhofen,  Hainam Do,  R. G. Edgar,  Po-Tung Fang,  
 S. Faraji,  S. Fatehi,  Qingguo Feng,  K. D. Fenk,  J. Fosso-Tande,  
 Qinghui Ge,  A. Ghysels,  G. Gidofalvi,  J. Gomes,  J. Gonthier,  A. Gunina,  
 D. Hait,  M. W. D. Hanson-Heine,  P. H. P. Harbach,  A. W. Hauser,  
 J. E. Herr,  E. G. Hohenstein,  Z. C. Holden,  Kerwin Hui,  B. C. Huynh,  
 T.-C. Jagau,  Hyunjun Ji,  B. Kaduk,  K. Khistyaev,  Jaehoon Kim,  
 P. Klunzinger,  K. Koh,  D. Kosenkov,  L. Koulias,  T. Kowalczyk,  
 C. M. Krauter,  A. Kunitsa,  Ka Un Lao,  A. Laurent,  K. V. Lawler,  
 Joonho Lee,  D. Lefrancois,  S. Lehtola,  D. S. Levine,  Yi-Pei Li,  
 You-Sheng Lin,  Fenglai Liu,  E. Livshits,  A. Luenser,  P. Manohar,  
 E. Mansoor,  S. F. Manzer,  Shan-Ping Mao,  Yuezhi Mao,  N. Mardirossian,  
 A. V. Marenich,  T. Markovich,  L. A. Martinez-Martinez,  S. A. Maurer,  
 N. J. Mayhall,  S. C. McKenzie,  J.-M. Mewes,  A. F. Morrison,  
 J. W. Mullinax,  K. Nanda,  T. S. Nguyen-Beck,  R. Olivares-Amaya,  
 J. A. Parkhill,  T. M. Perrine,  F. Plasser,  P. Pokhilko,  S. Prager,  
 A. Prociuk,  E. Ramos,  D. R. Rehn,  F. Rob,  M. Schneider,  N. Sergueev,  
 S. M. Sharada,  S. Sharma,  D. W. Small,  T. Stauch,  T. Stein,  
 Yu-Chuan Su,  A. J. W. Thom,  A. Tkatchenko,  T. Tsuchimochi,  N. M. Tubman,  
 L. Vogt,  M. L. Vidal,  O. Vydrov,  M. A. Watson,  J. Wenzel,  
 M. de Wergifosse,  T. A. Wesolowski,  A. White,  J. Witte,  A. Yamada,  
 Jun Yang,  K. Yao,  S. Yeganeh,  S. R. Yost,  Zhi-Qiang You,  A. Zech,  
 Igor Ying Zhang,  Xing Zhang,  Yan Zhao,  Ying Zhu,  B. R. Brooks,  
 G. K. L. Chan,  C. J. Cramer,  M. S. Gordon,  W. J. Hehre,  A. Klamt,  
 M. W. Schmidt,  C. D. Sherrill,  D. G. Truhlar,  A. Aspuru-Guzik,  R. Baer,  
 A. T. Bell,  N. A. Besley,  Jeng-Da Chai,  A. E. DePrince, III,  
 R. A. DiStasio Jr.,  A. Dreuw,  B. D. Dunietz,  T. R. Furlani,  
 Chao-Ping Hsu,  Yousung Jung,  Jing Kong,  D. S. Lambrecht,  WanZhen Liang,  
 C. Ochsenfeld,  V. A. Rassolov,  L. V. Slipchenko,  J. E. Subotnik,  
 T. Van Voorhis,  J. M. Herbert,  A. I. Krylov,  P. M. W. Gill,  M. Head-Gordon

 Contributors to earlier versions of Q-Chem not listed above: 
 R. D. Adamson,  B. Austin,  J. Baker,  G. J. O. Beran,  K. Brandhorst,  
 S. T. Brown,  E. F. C. Byrd,  A. K. Chakraborty,  C.-L. Cheng,  
 Siu Hung Chien,  D. M. Chipman,  D. L. Crittenden,  H. Dachsel,  
 R. J. Doerksen,  A. D. Dutoi,  L. Fusti-Molnar,  W. A. Goddard III,  
 A. Golubeva-Zadorozhnaya,  S. R. Gwaltney,  G. Hawkins,  A. Heyden,  
 S. Hirata,  G. Kedziora,  F. J. Keil,  C. Kelley,  Jihan Kim,  R. A. King,  
 R. Z. Khaliullin,  P. P. Korambath,  W. Kurlancheek,  A. M. Lee,  M. S. Lee,  
 S. V. Levchenko,  Ching Yeh Lin,  D. Liotard,  R. C. Lochan,  I. Lotan,  
 P. E. Maslen,  N. Nair,  D. P. O'Neill,  D. Neuhauser,  E. Neuscamman,  
 C. M. Oana,  R. Olson,  B. Peters,  R. Peverati,  P. A. Pieniazek,  
 Y. M. Rhee,  J. Ritchie,  M. A. Rohrdanz,  E. Rosta,  N. J. Russ,  
 H. F. Schaefer III,  N. E. Schultz,  N. Shenvi,  A. C. Simmonett,  A. Sodt,  
 D. Stuck,  K. S. Thanthiriwatte,  V. Vanovschi,  Tao Wang,  A. Warshel,  
 C. F. Williams,  Q. Wu,  X. Xu,  W. Zhang

 Please cite Q-Chem as follows:
 Y. Shao et al., Mol. Phys. 113, 184-215 (2015)
 DOI: 10.1080/00268976.2014.952696

 Q-Chem 5.1.1 for Intel X86 EM64T Linux

 Parts of Q-Chem use Armadillo 8.300.2 (Tropical Shenanigans).
 http://arma.sourceforge.net/

 Q-Chem begins on Wed Nov 14 09:37:39 2018  

Host: ctcp043
0

     Scratch files written to /scratch/mewes/140303/qchem32251//
 Parallel job on  1  processors
The previous job contains 0 fragments, simply inherited here
Symmetry turned off for PCM/SM12/SMD calculation
Input Ideriv = 2
Curr. Ideriv = -1
Max.  Ideriv = 2
Input Ideriv = 2
Curr. Ideriv = 2
Max.  Ideriv = 2

Checking the input file for inconsistencies... 	...done.

--------------------------------------------------------------
User input:
--------------------------------------------------------------
$rem
threads 8
jobtype	sp
method PBEh-3c
basis def2-mSVP
mem_static	1024
mem_total	8000
sym_ignore	true
unrestricted true
scf_convergence	9
solvent_method	pcm
$end

$molecule
read incoords.mol
$end

$solvent
dielectric	4.33
$end

$pcm
theory iefpcm
$end
--------------------------------------------------------------
 Adding empirical dispersion correction 
 ----------------------------------------------------------------
 Doing -D3(BJ) with
 s6 =   1.00000
 s8 =   0.00000
 a1 =   0.48600
 a2 =   4.50000
 -D3 energy including 3body term =     -0.1507731752 hartrees
 ----------------------------------------------------------------
 Adding gCP correction 
 ----------------------------------------------------------------
 gCP energy =      0.2100884175 hartrees
 ----------------------------------------------------------------
             Standard Nuclear Orientation (Angstroms)
    I     Atom           X                Y                Z
 ----------------------------------------------------------------
    1      N       0.1593970000    -1.1728530000     0.7182300000
    2      C      -0.4299490000    -0.5017740000     1.7813450000
    3      C       0.3380760000     0.2718040000     2.6572380000
    4      C       1.8367800000     0.4455620000     2.4910700000
    5      C      -0.3118980000     0.9180430000     3.7043370000
    6      H       0.2709970000     1.5216050000     4.3895860000
    7      C      -1.6770780000     0.8261910000     3.9048890000
    8      H      -2.1453670000     1.3442860000     4.7307470000
    9      C      -2.4274190000     0.0625910000     3.0253390000
   10      H      -3.4987840000    -0.0275680000     3.1509960000
   11      C      -1.8149620000    -0.5921790000     1.9765590000
   12      H      -2.4164470000    -1.1808690000     1.2990380000
   13      C       1.5284100000    -1.1241410000     0.4929560000
   14      C       2.0836300000    -1.8439730000    -0.5730220000
   15      H       1.4459530000    -2.4394910000    -1.2103950000
   16      C       3.4393650000    -1.8020860000    -0.8261660000
   17      H       3.8382750000    -2.3669550000    -1.6588210000
   18      C       4.2763940000    -1.0433340000    -0.0241030000
   19      H       5.3401010000    -0.9992180000    -0.2144870000
   20      C       3.7242330000    -0.3397240000     1.0304380000
   21      H       4.3800930000     0.2533170000     1.6561640000
   22      C       2.3628270000    -0.3617930000     1.3161900000
   23      C      -0.6584000000    -1.9382520000    -0.1607810000
   24      C      -0.9887580000    -3.2441550000     0.1551850000
   25      H      -0.6258690000    -3.6728090000     1.0829420000
   26      C      -1.7864340000    -3.9992120000    -0.6986780000
   27      C      -1.1227260000    -1.3805840000    -1.3392870000
   28      H      -0.8592650000    -0.3567110000    -1.5805480000
   29      C      -1.9099280000    -2.1235110000    -2.2124960000
   30      C      -2.2567720000    -3.4481930000    -1.9003430000
   31      C      -2.3281040000    -1.4941170000    -3.5170700000
   32      H      -2.3842120000    -0.4091570000    -3.3951290000
   33      H      -3.3332340000    -1.8209090000    -3.7913580000
   34      C      -1.3627900000    -1.8258210000    -4.6533070000
   35      C      -2.1774100000    -5.3926810000    -0.2779300000
   36      H      -1.3847610000    -5.8216370000     0.3410050000
   37      H      -2.2658610000    -6.0411080000    -1.1522080000
   38      C      -3.4913020000    -5.4112050000     0.4997160000
   39      H      -4.3145520000    -5.0418740000    -0.1114800000
   40      H      -3.7424600000    -6.4236440000     0.8191110000
   41      H      -3.4290830000    -4.7841590000     1.3901850000
   42      B      -3.1763290000    -4.2853930000    -2.8850710000
   43      C      -4.6984080000    -4.0511420000    -2.8909300000
   44      C      -5.2919760000    -3.1462800000    -1.9892560000
   45      H      -4.6600990000    -2.6139580000    -1.2859780000
   46      C      -6.6519060000    -2.9342620000    -1.9897260000
   47      C      -7.4737830000    -3.6364490000    -2.9191020000
   48      C      -6.9161440000    -4.5160440000    -3.8108200000
   49      H      -7.5545380000    -5.0379240000    -4.5169660000
   50      C      -5.5297870000    -4.7513470000    -3.8215770000
   51      C      -7.5249920000    -2.0853280000    -1.1813960000
   52      C      -7.3523350000    -1.1956420000    -0.1498280000
   53      H      -6.3726130000    -0.9768310000     0.2557730000
   54      C      -8.8386620000    -2.3070950000    -1.6474280000
   55      C      -9.9777620000    -1.6912400000    -1.1342790000
   56      C      -8.8582130000    -3.2397910000    -2.7028450000
   57      C     -10.0672530000    -3.5674510000    -3.2675460000
   58      H     -10.1398860000    -4.2779500000    -4.0823580000
   59      C      -8.4900820000    -0.5534680000     0.3900210000
   60      H      -8.3469640000     0.1468710000     1.2030240000
   61      C      -9.7660800000    -0.7811820000    -0.0718550000
   62      H     -10.6058490000    -0.2647670000     0.3768450000
   63      C     -11.2103180000    -2.0478430000    -1.7337190000
   64      H     -12.1333090000    -1.6050060000    -1.3795090000
   65      C     -11.2372630000    -2.9572880000    -2.7662460000
   66      H     -12.1905570000    -3.2156520000    -3.2108770000
   67      C      -2.5703900000    -5.3181300000    -3.8542950000
   68      C      -1.1892770000    -5.5971600000    -3.8441140000
   69      H      -0.5499530000    -5.0622610000    -3.1493930000
   70      C      -0.6487220000    -6.5397110000    -4.6902010000
   71      C      -1.4960550000    -7.2355050000    -5.6009820000
   72      C      -2.8400810000    -6.9653080000    -5.6428440000
   73      H      -3.4731190000    -7.4986700000    -6.3454020000
   74      C      -3.4126330000    -6.0152920000    -4.7788160000
   75      C       0.7083850000    -7.0506450000    -4.8727440000
   76      C       1.9343840000    -6.8064680000    -4.3058250000
   77      H       2.0643050000    -6.0683460000    -3.5245540000
   78      C       0.6312500000    -8.0363310000    -5.8801300000
   79      C       1.7086140000    -8.7869540000    -6.3418850000
   80      C      -0.6878500000    -8.1833510000    -6.3521260000
   81      C      -0.9399410000    -9.1181950000    -7.3260130000
   82      H      -1.9375260000    -9.2775170000    -7.7174890000
   83      C       3.0486100000    -7.5492500000    -4.7580640000
   84      H       4.0130390000    -7.3533690000    -4.3070440000
   85      C       2.9586780000    -8.5096450000    -5.7395650000
   86      H       3.8430230000    -9.0541010000    -6.0469980000
   87      C       1.4225590000    -9.7411890000    -7.3486960000
   88      H       2.2165010000   -10.3587840000    -7.7505590000
   89      C       0.1359520000    -9.8902120000    -7.8144550000
   90      H      -0.0605770000   -10.6297310000    -8.5809170000
   91      B      -4.9127990000    -5.7338100000    -4.8142130000
   92      C      -5.8391260000    -6.4372380000    -5.9076030000
   93      C      -6.1929170000    -5.7406540000    -7.0755330000
   94      C      -7.0288290000    -6.3272490000    -8.0202250000
   95      H      -7.3156180000    -5.7835030000    -8.9136410000
   96      C      -7.4960720000    -7.6068940000    -7.8046100000
   97      C      -7.1561310000    -8.3242740000    -6.6776710000
   98      H      -7.5416260000    -9.3274470000    -6.5312440000
   99      C      -6.3286480000    -7.7392730000    -5.7233100000
  100      N      -8.4006630000    -8.1927380000    -8.7655840000
  101      C      -9.7453240000    -8.0288710000    -8.5663560000
  102      C     -10.6742820000    -8.5684030000    -9.4810950000
  103      C     -10.2472210000    -9.3391230000   -10.7054070000
  104      C     -12.0211770000    -8.3651130000    -9.2310290000
  105      H     -12.7564600000    -8.7647280000    -9.9160200000
  106      C     -12.4612230000    -7.6590830000    -8.1243060000
  107      H     -13.5205620000    -7.5192590000    -7.9620290000
  108      C     -11.5366690000    -7.1297520000    -7.2262030000
  109      H     -11.8704920000    -6.5772750000    -6.3602510000
  110      C     -10.1944660000    -7.3068870000    -7.4393320000
  111      H      -9.4812200000    -6.8932920000    -6.7441960000
  112      C      -7.8866620000    -8.8818060000    -9.8317020000
  113      C      -8.7460050000    -9.4552960000   -10.7937600000
  114      C      -8.1684600000   -10.1393460000   -11.8500240000
  115      H      -8.8011270000   -10.5872210000   -12.6044630000
  116      C      -6.7952690000   -10.2690620000   -11.9734090000
  117      H      -6.3799510000   -10.8102640000   -12.8117130000
  118      C      -5.9547160000    -9.7024520000   -11.0172040000
  119      H      -4.8827190000    -9.8000280000   -11.1058460000
  120      C      -6.4871000000    -9.0161950000    -9.9569140000
  121      H      -5.8367950000    -8.5769270000    -9.2169510000
  122      C      -6.0413920000    -8.5161380000    -4.4673660000
  123      H      -5.9406350000    -9.5783200000    -4.7072540000
  124      H      -5.0860430000    -8.2030850000    -4.0464460000
  125      C      -7.1450350000    -8.3271950000    -3.4286860000
  126      C      -5.6498280000    -4.3690500000    -7.3704360000
  127      H      -6.3890420000    -3.7958510000    -7.9367710000
  128      H      -5.4857330000    -3.8255720000    -6.4399610000
  129      C      -4.3449210000    -4.4431510000    -8.1597850000
  130      H      -3.5817030000    -4.9812910000    -7.5993600000
  131      H      -4.4849540000    -4.9529980000    -9.1148810000
  132      H      -3.9613960000    -3.4444290000    -8.3675620000
  133      H      -7.2352890000    -7.2797260000    -3.1429130000
  134      H      -6.9301240000    -8.8994760000    -2.5264080000
  135      H      -8.1129760000    -8.6578920000    -3.8104320000
  136      H      -1.6736590000    -1.3457730000    -5.5825350000
  137      H      -1.3215890000    -2.8999620000    -4.8323480000
  138      H      -0.3520690000    -1.4870170000    -4.4222990000
  139      C     -10.7649640000    -8.6074500000   -11.9618680000
  140      C     -10.8573360000   -10.7553070000   -10.6430950000
  141      C       2.5380000000    -0.0235590000     3.7762030000
  142      C       2.1327950000     1.9341400000     2.2429820000
  143      H       1.6408060000     2.2760860000     1.3324880000
  144      H       3.2029650000     2.1143370000     2.1346740000
  145      H       1.7763300000     2.5517550000     3.0682610000
  146      H       2.3231830000    -1.0746480000     3.9683760000
  147      H       2.2074220000     0.5506980000     4.6423120000
  148      H       3.6200820000     0.0901170000     3.7054520000
  149      H     -10.3480410000    -7.6039750000   -12.0365940000
  150      H     -11.8506760000    -8.5214090000   -11.9430850000
  151      H     -10.4985230000    -9.1519040000   -12.8669420000
  152      H     -10.5112140000   -11.2975270000    -9.7643020000
  153      H     -10.5895800000   -11.3356280000   -11.5250220000
  154      H     -11.9447890000   -10.7095090000   -10.6048480000
 ----------------------------------------------------------------
 Nuclear Repulsion Energy = 13748.0058826392 hartrees
 There are      292 alpha and      292 beta electrons
 Requested basis set is def2-mSVP
 There are 738 shells and 1426 basis functions

 Total QAlloc Memory Limit   8000 MB
 Mega-Array Size      1001 MB
 MEM_STATIC part      1024 MB
 Discretize the solute cavity surface with Lebedev spheres
	Using 302 Lebedev grid points for each H atom
	Using 302 Lebedev grid points for other atoms
	Atomic van der Waals radii will be scaled by 1.20
 Remove points where switching function is < 1.0e-08
 Keep 15671 surface tesserae and discard 30837 interior tesserae
 Molecular Surface Area = 1137.235 Angst**2
 A cutoff of  1.0D-12 yielded  76037 shell pairs
 There are    294009 function pairs (    323339 Cartesian)
 
 -------------------------------------------------------
 OpenMP Integral Computing Module                       
 Release: version 1.0, May 2013, Q-Chem Inc. Pittsburgh 
 -------------------------------------------------------
 Integral Job Info:
 Integral job number is                      11
 Integral operator is                         1
 short-range coefficients                     0
 long-range coefficients              100000000
 Omega coefficients                           0
 if combine SR and LR in K                    0
 Integral screening is                        0
 Integral computing path is                   2
 max size of driver memory is            800000
 size of driver memory is                593474
 size of scratch memory is              1809772
 max col of scratch BK array               1296
 max len of scratch array in speh3          155
 max len of scratch index in speh4           18
 max int batch size is                      520
 min int batch size is                       52
 fixed nKL is                                52
 max L of basis functions is                  2
 order of int derivative is                   0
 number of shells is                        738
 number of basis is                        1512
 number of cartesian basis is              1512
 number of contracted shell pairs         76037
 number of primitive shell pairs         157332
 maxK2 (contraction) of shell pair           25
 max number of K2 of shell pair               1
 max number of CS2 of shell pair          18707
 max number of PS2 of shell pair          27540
 mem total for path MDJ                 1254988
 -------------------------------------------------------
 Smallest overlap matrix eigenvalue = 1.94E-04

 Scale SEOQF with 1.000000e-02/1.000000e-02/1.000000e-02

 Standard Electronic Orientation quadrupole field applied
 Nucleus-field energy     =     0.0000000191 hartrees
 Guess from superposition of atomic densities
 Warning:  Energy on first SCF cycle will be non-variational
 SAD guess density has 584.000001 electrons

 -----------------------------------------------------------------------
  General SCF calculation program by
  Eric Jon Sundstrom, Paul Horn, Yuezhi Mao, Dmitri Zuev, Alec White,
  David Stuck, Shaama M.S., Shane Yost, Joonho Lee, David Small,
  Daniel Levine, Susi Lehtola, Hugh Burton, Evgeny Epifanovsky
 -----------------------------------------------------------------------
 Exchange:     0.4200 Hartree-Fock + 0.5800 PBEh-3c
 Correlation:  1.0000 PBEh-3c
 Using SG-1 standard quadrature grid
 Dispersion:   Grimme D3
 using 8 threads for integral computing
 -------------------------------------------------------
 OpenMP Integral computing Module                
 Release: version 2.0, May 2017, Q-Chem Inc. Pleasanton 
 -------------------------------------------------------
 -------------------------------------------------------
 OpenMP BLAS3 based DFT computing Module                
 Release: version 1.0, May 2013, Q-Chem Inc. Pittsburgh 
 -------------------------------------------------------
 A unrestricted SCF calculation will be
 performed using DIIS
 SCF converges when DIIS error is below 1.0e-09
 ---------------------------------------
  Cycle       Energy         DIIS error
 ---------------------------------------
 Using non-symmetric K matrix
 Warning: not using a symmetric Q
    1   -3346.3999838350      1.13e-02  
    2   -3317.1179167147      7.71e-04  
    3   -3317.3455477507      6.67e-04  
    4   -3317.7606852204      2.16e-04  
    5   -3317.8074201145      7.26e-05  
    6   -3317.8129216987      1.95e-05  
    7   -3317.8132981645      6.01e-06  
    8   -3317.8133369627      1.87e-06  
    9   -3317.8133406652      5.83e-07  
   10   -3317.8133411698      2.01e-07  
   11   -3317.8133411988      6.52e-08  
   12   -3317.8133411953      2.39e-08  
   13   -3317.8133412026      8.30e-09  
   14   -3317.8133412005      4.14e-09  
   15   -3317.8133412007      1.65e-09  
   16   -3317.8133412005      5.18e-10  Convergence criterion met
 ---------------------------------------
 SCF time:   CPU 35306.15s  wall 4654.00s 
<S^2> =          0.000000000

************** Final PCM Free Energy Summary **************
 G_electrostatic  =      -0.02968834 hartree =     -18.62971441 kcal/mol
 G_cavitation     =       0.00000000 hartree =       0.00000000 kcal/mol
 G_dispersion     =       0.00000000 hartree =       0.00000000 kcal/mol
 G_repulsion      =       0.00000000 hartree =       0.00000000 kcal/mol
 --------------------------------------------------
 Non-electrostatic Free Energy =       0.00000000 hartree =       0.00000000 kcal/mol
 Total                         =      -0.02968834 hartree =     -18.62971441 kcal/mol
 --------------------------------------------------
 SCF Energy (H0 + V/2)                       =   -3317.81334120 
 Solute Internal Energy (H0)                 =   -3317.78365286 
 Total Free Energy (H0 + V/2 + non-elec)     =   -3317.81334120 hartree
                                             = -2081959.29461345 kcal/mol
***********************************************************

 SCF   energy in the final basis set =    -3317.8133412005
 Total energy in the final basis set =    -3317.8133412005
 
 --------------------------------------------------------------
 
                    Orbital Energies (a.u.)
 --------------------------------------------------------------
 
 Alpha MOs
 -- Occupied --
-14.676 -14.676 -10.493 -10.492 -10.492 -10.492 -10.485 -10.485
-10.469 -10.469 -10.467 -10.467 -10.467 -10.467 -10.466 -10.466
-10.466 -10.466 -10.466 -10.466 -10.465 -10.465 -10.463 -10.463
-10.463 -10.463 -10.463 -10.463 -10.459 -10.459 -10.459 -10.459
-10.459 -10.459 -10.458 -10.458 -10.457 -10.457 -10.457 -10.457
-10.450 -10.450 -10.450 -10.450 -10.449 -10.449 -10.444 -10.443
-10.443 -10.443 -10.443 -10.443 -10.443 -10.443 -10.442 -10.442
-10.442 -10.442 -10.442 -10.441 -10.440 -10.439 -10.439 -10.439
-10.438 -10.438 -10.436 -10.436 -10.436 -10.436 -10.435 -10.435
-10.434 -10.434 -10.434 -10.434 -10.422 -10.422 -10.422 -10.422
-10.422 -10.422 -10.421 -10.421  -6.954  -6.951  -1.093  -1.089
 -1.019  -1.018  -0.973  -0.972  -0.964  -0.962  -0.959  -0.957
 -0.951  -0.951  -0.935  -0.935  -0.912  -0.908  -0.908  -0.903
 -0.895  -0.893  -0.872  -0.869  -0.859  -0.859  -0.850  -0.850
 -0.848  -0.848  -0.836  -0.835  -0.828  -0.825  -0.821  -0.816
 -0.815  -0.815  -0.814  -0.807  -0.806  -0.805  -0.790  -0.787
 -0.767  -0.766  -0.738  -0.735  -0.729  -0.723  -0.723  -0.721
 -0.717  -0.716  -0.710  -0.708  -0.708  -0.707  -0.692  -0.691
 -0.687  -0.681  -0.676  -0.670  -0.669  -0.668  -0.651  -0.649
 -0.638  -0.636  -0.635  -0.635  -0.615  -0.615  -0.615  -0.614
 -0.599  -0.597  -0.592  -0.590  -0.586  -0.586  -0.585  -0.578
 -0.578  -0.562  -0.560  -0.554  -0.549  -0.545  -0.535  -0.535
 -0.533  -0.531  -0.529  -0.526  -0.524  -0.523  -0.522  -0.519
 -0.515  -0.511  -0.506  -0.504  -0.504  -0.503  -0.502  -0.498
 -0.497  -0.496  -0.495  -0.493  -0.492  -0.489  -0.489  -0.488
 -0.488  -0.487  -0.487  -0.485  -0.481  -0.480  -0.479  -0.478
 -0.476  -0.474  -0.474  -0.473  -0.471  -0.467  -0.462  -0.460
 -0.457  -0.455  -0.450  -0.449  -0.446  -0.446  -0.445  -0.442
 -0.437  -0.437  -0.436  -0.436  -0.436  -0.430  -0.429  -0.429
 -0.427  -0.426  -0.425  -0.423  -0.421  -0.419  -0.415  -0.414
 -0.410  -0.407  -0.406  -0.405  -0.399  -0.399  -0.398  -0.398
 -0.397  -0.396  -0.396  -0.395  -0.394  -0.392  -0.391  -0.390
 -0.388  -0.387  -0.383  -0.378  -0.377  -0.374  -0.372  -0.371
 -0.368  -0.367  -0.364  -0.364  -0.358  -0.356  -0.352  -0.342
 -0.324  -0.318  -0.299  -0.298  -0.298  -0.297  -0.289  -0.289
 -0.287  -0.285  -0.284  -0.282  -0.282  -0.279  -0.279  -0.264
 -0.260  -0.258  -0.222  -0.217
 -- Virtual --
 -0.101  -0.063  -0.041  -0.035  -0.008   0.004   0.005   0.006
  0.009   0.012   0.013   0.013   0.014   0.016   0.018   0.034
  0.036   0.040   0.060   0.062   0.067   0.080   0.085   0.089
  0.114   0.120   0.127   0.132   0.140   0.144   0.146   0.151
  0.151   0.152   0.157   0.159   0.160   0.161   0.163   0.166
  0.166   0.167   0.168   0.169   0.175   0.178   0.180   0.183
  0.186   0.189   0.191   0.192   0.192   0.193   0.195   0.197
  0.197   0.198   0.201   0.202   0.203   0.203   0.203   0.204
  0.206   0.207   0.208   0.209   0.213   0.215   0.217   0.217
  0.218   0.219   0.220   0.222   0.223   0.224   0.224   0.226
  0.227   0.228   0.231   0.232   0.232   0.233   0.234   0.236
  0.239   0.240   0.241   0.243   0.244   0.245   0.246   0.247
  0.250   0.250   0.250   0.252   0.254   0.255   0.259   0.262
  0.264   0.267   0.268   0.268   0.270   0.270   0.271   0.272
  0.274   0.278   0.280   0.280   0.282   0.283   0.284   0.286
  0.289   0.291   0.293   0.295   0.296   0.297   0.298   0.300
  0.304   0.305   0.308   0.309   0.310   0.311   0.312   0.314
  0.315   0.316   0.318   0.321   0.325   0.327   0.332   0.342
  0.342   0.343   0.344   0.346   0.349   0.351   0.353   0.358
  0.363   0.372   0.374   0.374   0.378   0.382   0.382   0.385
  0.386   0.393   0.394   0.395   0.397   0.399   0.405   0.410
  0.414   0.419   0.422   0.428   0.435   0.437   0.438   0.439
  0.443   0.445   0.447   0.449   0.452   0.455   0.462   0.466
  0.469   0.477   0.478   0.480   0.480   0.485   0.489   0.492
  0.493   0.495   0.495   0.496   0.498   0.502   0.504   0.505
  0.506   0.508   0.511   0.514   0.515   0.518   0.519   0.522
  0.525   0.525   0.527   0.528   0.531   0.532   0.532   0.537
  0.539   0.540   0.542   0.543   0.545   0.546   0.547   0.549
  0.549   0.551   0.552   0.554   0.555   0.556   0.557   0.558
  0.558   0.562   0.562   0.566   0.567   0.568   0.571   0.572
  0.578   0.580   0.584   0.585   0.586   0.586   0.587   0.587
  0.589   0.590   0.591   0.592   0.593   0.594   0.598   0.599
  0.600   0.602   0.604   0.605   0.606   0.608   0.608   0.609
  0.613   0.614   0.616   0.617   0.617   0.618   0.623   0.624
  0.625   0.625   0.626   0.628   0.628   0.629   0.629   0.632
  0.633   0.633   0.634   0.635   0.638   0.640   0.642   0.645
  0.647   0.648   0.648   0.650   0.652   0.653   0.654   0.655
  0.656   0.657   0.660   0.661   0.665   0.666   0.666   0.668
  0.670   0.671   0.672   0.673   0.680   0.684   0.686   0.690
  0.691   0.692   0.695   0.697   0.701   0.704   0.709   0.710
  0.712   0.713   0.716   0.717   0.721   0.722   0.729   0.730
  0.732   0.734   0.739   0.741   0.744   0.747   0.750   0.751
  0.753   0.756   0.757   0.759   0.762   0.766   0.766   0.768
  0.770   0.773   0.775   0.776   0.777   0.778   0.779   0.783
  0.784   0.789   0.792   0.796   0.799   0.801   0.801   0.802
  0.806   0.809   0.811   0.812   0.813   0.814   0.818   0.822
  0.825   0.831   0.833   0.836   0.838   0.840   0.844   0.847
  0.849   0.851   0.857   0.863   0.863   0.874   0.875   0.876
  0.878   0.879   0.884   0.886   0.890   0.892   0.896   0.898
  0.900   0.905   0.909   0.911   0.917   0.917   0.922   0.925
  0.927   0.931   0.940   0.943   0.945   0.948   0.949   0.954
  0.955   0.956   0.957   0.958   0.963   0.966   0.969   0.971
  0.975   0.976   0.981   0.984   0.985   0.986   0.988   0.990
  0.991   0.992   0.997   0.997   1.000   1.001   1.002   1.003
  1.006   1.007   1.007   1.009   1.012   1.016   1.018   1.021
  1.022   1.027   1.029   1.031   1.032   1.035   1.036   1.039
  1.041   1.043   1.044   1.047   1.047   1.048   1.049   1.049
  1.050   1.052   1.054   1.055   1.057   1.059   1.060   1.064
  1.066   1.067   1.069   1.070   1.073   1.074   1.076   1.077
  1.079   1.081   1.086   1.086   1.087   1.088   1.091   1.094
  1.094   1.100   1.101   1.103   1.104   1.114   1.115   1.115
  1.116   1.119   1.126   1.127   1.130   1.133   1.133   1.134
  1.136   1.138   1.139   1.143   1.146   1.147   1.149   1.153
  1.154   1.156   1.160   1.165   1.167   1.168   1.168   1.171
  1.175   1.177   1.178   1.178   1.180   1.182   1.184   1.199
  1.200   1.202   1.211   1.218   1.219   1.222   1.222   1.225
  1.227   1.232   1.242   1.245   1.250   1.257   1.258   1.260
  1.261   1.264   1.269   1.274   1.279   1.281   1.282   1.284
  1.289   1.295   1.297   1.297   1.299   1.302   1.304   1.307
  1.308   1.313   1.315   1.318   1.319   1.321   1.325   1.329
  1.331   1.333   1.334   1.339   1.340   1.341   1.345   1.351
  1.352   1.355   1.360   1.364   1.366   1.368   1.368   1.369
  1.371   1.373   1.375   1.379   1.380   1.381   1.395   1.397
  1.403   1.404   1.407   1.409   1.414   1.416   1.417   1.425
  1.439   1.439   1.441   1.442   1.444   1.445   1.447   1.455
  1.459   1.462   1.467   1.469   1.477   1.484   1.488   1.495
  1.499   1.500   1.506   1.508   1.510   1.510   1.511   1.515
  1.516   1.517   1.517   1.523   1.527   1.529   1.530   1.531
  1.537   1.539   1.540   1.545   1.545   1.546   1.547   1.548
  1.548   1.551   1.552   1.558   1.562   1.563   1.564   1.565
  1.573   1.574   1.577   1.578   1.582   1.583   1.584   1.589
  1.591   1.594   1.599   1.611   1.615   1.617   1.619   1.626
  1.629   1.632   1.635   1.640   1.648   1.652   1.657   1.661
  1.663   1.665   1.674   1.691   1.697   1.699   1.711   1.712
  1.716   1.725   1.737   1.739   1.741   1.749   1.751   1.755
  1.757   1.760   1.761   1.779   1.781   1.784   1.786   1.789
  1.793   1.795   1.799   1.803   1.805   1.806   1.807   1.808
  1.811   1.811   1.813   1.815   1.818   1.820   1.832   1.834
  1.835   1.847   1.853   1.857   1.871   1.874   1.874   1.879
  1.881   1.883   1.899   1.900   1.901   1.904   1.912   1.915
  1.916   1.918   1.919   1.920   1.922   1.925   1.925   1.927
  1.928   1.930   1.934   1.942   1.943   1.949   1.952   1.964
  1.970   1.973   1.977   1.978   1.980   1.982   1.982   1.987
  1.989   1.990   1.993   1.996   1.998   2.001   2.004   2.011
  2.012   2.014   2.026   2.032   2.032   2.033   2.038   2.043
  2.051   2.056   2.057   2.058   2.063   2.063   2.070   2.070
  2.073   2.075   2.078   2.082   2.087   2.092   2.095   2.098
  2.103   2.106   2.110   2.110   2.115   2.124   2.126   2.130
  2.133   2.137   2.137   2.142   2.143   2.143   2.147   2.149
  2.155   2.156   2.158   2.161   2.162   2.175   2.182   2.183
  2.186   2.187   2.191   2.197   2.199   2.199   2.201   2.205
  2.209   2.213   2.214   2.215   2.218   2.220   2.229   2.231
  2.234   2.246   2.252   2.254   2.257   2.258   2.259   2.265
  2.265   2.266   2.269   2.271   2.273   2.276   2.279   2.281
  2.284   2.287   2.289   2.292   2.293   2.304   2.308   2.312
  2.313   2.320   2.320   2.322   2.322   2.323   2.329   2.333
  2.334   2.336   2.337   2.342   2.342   2.342   2.343   2.348
  2.349   2.354   2.354   2.355   2.356   2.356   2.357   2.361
  2.364   2.367   2.369   2.373   2.379   2.384   2.385   2.388
  2.389   2.389   2.393   2.395   2.400   2.402   2.403   2.405
  2.407   2.408   2.412   2.416   2.419   2.420   2.425   2.429
  2.430   2.432   2.441   2.445   2.447   2.451   2.458   2.473
  2.474   2.476   2.479   2.484   2.488   2.490   2.493   2.496
  2.497   2.498   2.506   2.511   2.519   2.525   2.527   2.531
  2.534   2.537   2.547   2.559   2.563   2.568   2.574   2.596
  2.598   2.602   2.605   2.613   2.618   2.624   2.626   2.632
  2.639   2.642   2.643   2.667   2.679   2.680   2.682   2.682
  2.685   2.688   2.701   2.702   2.703   2.705   2.708   2.711
  2.716   2.723   2.724   2.728   2.729   2.730   2.732   2.734
  2.735   2.748   2.752   2.754   2.763   2.768   2.772   2.777
  2.779   2.781   2.785   2.788   2.789   2.789   2.794   2.796
  2.803   2.804   2.805   2.808   2.808   2.810   2.813   2.813
  2.814   2.816   2.819   2.819   2.822   2.826   2.836   2.837
  2.846   2.860   2.861   2.866   2.867   2.874   2.878   2.879
  2.880   2.887   2.890   2.893   2.903   2.909   2.927   2.943
  2.943   2.947   2.954   2.966   2.969   2.972   2.975   2.984
  2.997   2.997   3.001   3.009   3.013   3.017   3.019   3.033
  3.052   3.056   3.063   3.073   3.080   3.081   3.114   3.117
  3.123   3.200   3.208   3.227   3.235   3.236   3.254   3.256
  3.401   3.412   3.422   3.440   3.446   3.487   3.490   3.491
  3.506   3.516   3.569   3.573   3.577   3.582   3.662   3.673
  9.587   9.746  13.140  13.175  13.249  13.252  13.338  13.344
 13.471  13.494  13.509  13.523  13.547  13.557  13.649  13.649
 13.669  13.681  13.709  13.715  13.729  13.739  13.740  13.771
 13.777  13.777  13.785  13.792  13.800  13.803  13.857  13.859
 13.871  13.877  13.883  13.903  13.904  13.923  13.938  14.002
 14.023  14.030  14.032  14.033  14.035  14.044  14.045  14.050
 14.156  14.161  14.162  14.165  14.171  14.185  14.186  14.201
 14.209  14.216  14.217  14.223  14.228  14.254  14.261  14.277
 14.287  14.293  14.306  14.312  14.315  14.321  14.335  14.337
 14.509  14.514  14.556  14.563  14.579  14.580  14.585  14.594
 14.601  14.608  14.614  14.619  19.646  19.651
 
 Beta MOs
 -- Occupied --
-14.676 -14.676 -10.493 -10.492 -10.492 -10.492 -10.485 -10.485
-10.469 -10.469 -10.467 -10.467 -10.467 -10.467 -10.466 -10.466
-10.466 -10.466 -10.466 -10.466 -10.465 -10.465 -10.463 -10.463
-10.463 -10.463 -10.463 -10.463 -10.459 -10.459 -10.459 -10.459
-10.459 -10.459 -10.458 -10.458 -10.457 -10.457 -10.457 -10.457
-10.450 -10.450 -10.450 -10.450 -10.449 -10.449 -10.444 -10.443
-10.443 -10.443 -10.443 -10.443 -10.443 -10.443 -10.442 -10.442
-10.442 -10.442 -10.442 -10.441 -10.440 -10.439 -10.439 -10.439
-10.438 -10.438 -10.436 -10.436 -10.436 -10.436 -10.435 -10.435
-10.434 -10.434 -10.434 -10.434 -10.422 -10.422 -10.422 -10.422
-10.422 -10.422 -10.421 -10.421  -6.954  -6.951  -1.093  -1.089
 -1.019  -1.018  -0.973  -0.972  -0.964  -0.962  -0.959  -0.957
 -0.951  -0.951  -0.935  -0.935  -0.912  -0.908  -0.908  -0.903
 -0.895  -0.893  -0.872  -0.869  -0.859  -0.859  -0.850  -0.850
 -0.848  -0.848  -0.836  -0.835  -0.828  -0.825  -0.821  -0.816
 -0.815  -0.815  -0.814  -0.807  -0.806  -0.805  -0.790  -0.787
 -0.767  -0.766  -0.738  -0.735  -0.729  -0.723  -0.723  -0.721
 -0.717  -0.716  -0.710  -0.708  -0.708  -0.707  -0.692  -0.691
 -0.687  -0.681  -0.676  -0.670  -0.669  -0.668  -0.651  -0.649
 -0.638  -0.636  -0.635  -0.635  -0.615  -0.615  -0.615  -0.614
 -0.599  -0.597  -0.592  -0.590  -0.586  -0.586  -0.585  -0.578
 -0.578  -0.562  -0.560  -0.554  -0.549  -0.545  -0.535  -0.535
 -0.533  -0.531  -0.529  -0.526  -0.524  -0.523  -0.522  -0.519
 -0.515  -0.511  -0.506  -0.504  -0.504  -0.503  -0.502  -0.498
 -0.497  -0.496  -0.495  -0.493  -0.492  -0.489  -0.489  -0.488
 -0.488  -0.487  -0.487  -0.485  -0.481  -0.480  -0.479  -0.478
 -0.476  -0.474  -0.474  -0.473  -0.471  -0.467  -0.462  -0.460
 -0.457  -0.455  -0.450  -0.449  -0.446  -0.446  -0.445  -0.442
 -0.437  -0.437  -0.436  -0.436  -0.436  -0.430  -0.429  -0.429
 -0.427  -0.426  -0.425  -0.423  -0.421  -0.419  -0.415  -0.414
 -0.410  -0.407  -0.406  -0.405  -0.399  -0.399  -0.398  -0.398
 -0.397  -0.396  -0.396  -0.395  -0.394  -0.392  -0.391  -0.390
 -0.388  -0.387  -0.383  -0.378  -0.377  -0.374  -0.372  -0.371
 -0.368  -0.367  -0.364  -0.364  -0.358  -0.356  -0.352  -0.342
 -0.324  -0.318  -0.299  -0.298  -0.298  -0.297  -0.289  -0.289
 -0.287  -0.285  -0.284  -0.282  -0.282  -0.279  -0.279  -0.264
 -0.260  -0.258  -0.222  -0.217
 -- Virtual --
 -0.101  -0.063  -0.041  -0.035  -0.008   0.004   0.005   0.006
  0.009   0.012   0.013   0.013   0.014   0.016   0.018   0.034
  0.036   0.040   0.060   0.062   0.067   0.080   0.085   0.089
  0.114   0.120   0.127   0.132   0.140   0.144   0.146   0.151
  0.151   0.152   0.157   0.159   0.160   0.161   0.163   0.166
  0.166   0.167   0.168   0.169   0.175   0.178   0.180   0.183
  0.186   0.189   0.191   0.192   0.192   0.193   0.195   0.197
  0.197   0.198   0.201   0.202   0.203   0.203   0.203   0.204
  0.206   0.207   0.208   0.209   0.213   0.215   0.217   0.217
  0.218   0.219   0.220   0.222   0.223   0.224   0.224   0.226
  0.227   0.228   0.231   0.232   0.232   0.233   0.234   0.236
  0.239   0.240   0.241   0.243   0.244   0.245   0.246   0.247
  0.250   0.250   0.250   0.252   0.254   0.255   0.259   0.262
  0.264   0.267   0.268   0.268   0.270   0.270   0.271   0.272
  0.274   0.278   0.280   0.280   0.282   0.283   0.284   0.286
  0.289   0.291   0.293   0.295   0.296   0.297   0.298   0.300
  0.304   0.305   0.308   0.309   0.310   0.311   0.312   0.314
  0.315   0.316   0.318   0.321   0.325   0.327   0.332   0.342
  0.342   0.343   0.344   0.346   0.349   0.351   0.353   0.358
  0.363   0.372   0.374   0.374   0.378   0.382   0.382   0.385
  0.386   0.393   0.394   0.395   0.397   0.399   0.405   0.410
  0.414   0.419   0.422   0.428   0.435   0.437   0.438   0.439
  0.443   0.445   0.447   0.449   0.452   0.455   0.462   0.466
  0.469   0.477   0.478   0.480   0.480   0.485   0.489   0.492
  0.493   0.495   0.495   0.496   0.498   0.502   0.504   0.505
  0.506   0.508   0.511   0.514   0.515   0.518   0.519   0.522
  0.525   0.525   0.527   0.528   0.531   0.532   0.532   0.537
  0.539   0.540   0.542   0.543   0.545   0.546   0.547   0.549
  0.549   0.551   0.552   0.554   0.555   0.556   0.557   0.558
  0.558   0.562   0.562   0.566   0.567   0.568   0.571   0.572
  0.578   0.580   0.584   0.585   0.586   0.586   0.587   0.587
  0.589   0.590   0.591   0.592   0.593   0.594   0.598   0.599
  0.600   0.602   0.604   0.605   0.606   0.608   0.608   0.609
  0.613   0.614   0.616   0.617   0.617   0.618   0.623   0.624
  0.625   0.625   0.626   0.628   0.628   0.629   0.629   0.632
  0.633   0.633   0.634   0.635   0.638   0.640   0.642   0.645
  0.647   0.648   0.648   0.650   0.652   0.653   0.654   0.655
  0.656   0.657   0.660   0.661   0.665   0.666   0.666   0.668
  0.670   0.671   0.672   0.673   0.680   0.684   0.686   0.690
  0.691   0.692   0.695   0.697   0.701   0.704   0.709   0.710
  0.712   0.713   0.716   0.717   0.721   0.722   0.729   0.730
  0.732   0.734   0.739   0.741   0.744   0.747   0.750   0.751
  0.753   0.756   0.757   0.759   0.762   0.766   0.766   0.768
  0.770   0.773   0.775   0.776   0.777   0.778   0.779   0.783
  0.784   0.789   0.792   0.796   0.799   0.801   0.801   0.802
  0.806   0.809   0.811   0.812   0.813   0.814   0.818   0.822
  0.825   0.831   0.833   0.836   0.838   0.840   0.844   0.847
  0.849   0.851   0.857   0.863   0.863   0.874   0.875   0.876
  0.878   0.879   0.884   0.886   0.890   0.892   0.896   0.898
  0.900   0.905   0.909   0.911   0.917   0.917   0.922   0.925
  0.927   0.931   0.940   0.943   0.945   0.948   0.949   0.954
  0.955   0.956   0.957   0.958   0.963   0.966   0.969   0.971
  0.975   0.976   0.981   0.984   0.985   0.986   0.988   0.990
  0.991   0.992   0.997   0.997   1.000   1.001   1.002   1.003
  1.006   1.007   1.007   1.009   1.012   1.016   1.018   1.021
  1.022   1.027   1.029   1.031   1.032   1.035   1.036   1.039
  1.041   1.043   1.044   1.047   1.047   1.048   1.049   1.049
  1.050   1.052   1.054   1.055   1.057   1.059   1.060   1.064
  1.066   1.067   1.069   1.070   1.073   1.074   1.076   1.077
  1.079   1.081   1.086   1.086   1.087   1.088   1.091   1.094
  1.094   1.100   1.101   1.103   1.104   1.114   1.115   1.115
  1.116   1.119   1.126   1.127   1.130   1.133   1.133   1.134
  1.136   1.138   1.139   1.143   1.146   1.147   1.149   1.153
  1.154   1.156   1.160   1.165   1.167   1.168   1.168   1.171
  1.175   1.177   1.178   1.178   1.180   1.182   1.184   1.199
  1.200   1.202   1.211   1.218   1.219   1.222   1.222   1.225
  1.227   1.232   1.242   1.245   1.250   1.257   1.258   1.260
  1.261   1.264   1.269   1.274   1.279   1.281   1.282   1.284
  1.289   1.295   1.297   1.297   1.299   1.302   1.304   1.307
  1.308   1.313   1.315   1.318   1.319   1.321   1.325   1.329
  1.331   1.333   1.334   1.339   1.340   1.341   1.345   1.351
  1.352   1.355   1.360   1.364   1.366   1.368   1.368   1.369
  1.371   1.373   1.375   1.379   1.380   1.381   1.395   1.397
  1.403   1.404   1.407   1.409   1.414   1.416   1.417   1.425
  1.439   1.439   1.441   1.442   1.444   1.445   1.447   1.455
  1.459   1.462   1.467   1.469   1.477   1.484   1.488   1.495
  1.499   1.500   1.506   1.508   1.510   1.510   1.511   1.515
  1.516   1.517   1.517   1.523   1.527   1.529   1.530   1.531
  1.537   1.539   1.540   1.545   1.545   1.546   1.547   1.548
  1.548   1.551   1.552   1.558   1.562   1.563   1.564   1.565
  1.573   1.574   1.577   1.578   1.582   1.583   1.584   1.589
  1.591   1.594   1.599   1.611   1.615   1.617   1.619   1.626
  1.629   1.632   1.635   1.640   1.648   1.652   1.657   1.661
  1.663   1.665   1.674   1.691   1.697   1.699   1.711   1.712
  1.716   1.725   1.737   1.739   1.741   1.749   1.751   1.755
  1.757   1.760   1.761   1.779   1.781   1.784   1.786   1.789
  1.793   1.795   1.799   1.803   1.805   1.806   1.807   1.808
  1.811   1.811   1.813   1.815   1.818   1.820   1.832   1.834
  1.835   1.847   1.853   1.857   1.871   1.874   1.874   1.879
  1.881   1.883   1.899   1.900   1.901   1.904   1.912   1.915
  1.916   1.918   1.919   1.920   1.922   1.925   1.925   1.927
  1.928   1.930   1.934   1.942   1.943   1.949   1.952   1.964
  1.970   1.973   1.977   1.978   1.980   1.982   1.982   1.987
  1.989   1.990   1.993   1.996   1.998   2.001   2.004   2.011
  2.012   2.014   2.026   2.032   2.032   2.033   2.038   2.043
  2.051   2.056   2.057   2.058   2.063   2.063   2.070   2.070
  2.073   2.075   2.078   2.082   2.087   2.092   2.095   2.098
  2.103   2.106   2.110   2.110   2.115   2.124   2.126   2.130
  2.133   2.137   2.137   2.142   2.143   2.143   2.147   2.149
  2.155   2.156   2.158   2.161   2.162   2.175   2.182   2.183
  2.186   2.187   2.191   2.197   2.199   2.199   2.201   2.205
  2.209   2.213   2.214   2.215   2.218   2.220   2.229   2.231
  2.234   2.246   2.252   2.254   2.257   2.258   2.259   2.265
  2.265   2.266   2.269   2.271   2.273   2.276   2.279   2.281
  2.284   2.287   2.289   2.292   2.293   2.304   2.308   2.312
  2.313   2.320   2.320   2.322   2.322   2.323   2.329   2.333
  2.334   2.336   2.337   2.342   2.342   2.342   2.343   2.348
  2.349   2.354   2.354   2.355   2.356   2.356   2.357   2.361
  2.364   2.367   2.369   2.373   2.379   2.384   2.385   2.388
  2.389   2.389   2.393   2.395   2.400   2.402   2.403   2.405
  2.407   2.408   2.412   2.416   2.419   2.420   2.425   2.429
  2.430   2.432   2.441   2.445   2.447   2.451   2.458   2.473
  2.474   2.476   2.479   2.484   2.488   2.490   2.493   2.496
  2.497   2.498   2.506   2.511   2.519   2.525   2.527   2.531
  2.534   2.537   2.547   2.559   2.563   2.568   2.574   2.596
  2.598   2.602   2.605   2.613   2.618   2.624   2.626   2.632
  2.639   2.642   2.643   2.667   2.679   2.680   2.682   2.682
  2.685   2.688   2.701   2.702   2.703   2.705   2.708   2.711
  2.716   2.723   2.724   2.728   2.729   2.730   2.732   2.734
  2.735   2.748   2.752   2.754   2.763   2.768   2.772   2.777
  2.779   2.781   2.785   2.788   2.789   2.789   2.794   2.796
  2.803   2.804   2.805   2.808   2.808   2.810   2.813   2.813
  2.814   2.816   2.819   2.819   2.822   2.826   2.836   2.837
  2.846   2.860   2.861   2.866   2.867   2.874   2.878   2.879
  2.880   2.887   2.890   2.893   2.903   2.909   2.927   2.943
  2.943   2.947   2.954   2.966   2.969   2.972   2.975   2.984
  2.997   2.997   3.001   3.009   3.013   3.017   3.019   3.033
  3.052   3.056   3.063   3.073   3.080   3.081   3.114   3.117
  3.123   3.200   3.208   3.227   3.235   3.236   3.254   3.256
  3.401   3.412   3.422   3.440   3.446   3.487   3.490   3.491
  3.506   3.516   3.569   3.573   3.577   3.582   3.662   3.673
  9.587   9.746  13.140  13.175  13.249  13.252  13.338  13.344
 13.471  13.494  13.509  13.523  13.547  13.557  13.649  13.649
 13.669  13.681  13.709  13.715  13.729  13.739  13.740  13.771
 13.777  13.777  13.785  13.792  13.800  13.803  13.857  13.859
 13.871  13.877  13.883  13.903  13.904  13.923  13.938  14.002
 14.023  14.030  14.032  14.033  14.035  14.044  14.045  14.050
 14.156  14.161  14.162  14.165  14.171  14.185  14.186  14.201
 14.209  14.216  14.217  14.223  14.228  14.254  14.261  14.277
 14.287  14.293  14.306  14.312  14.315  14.321  14.335  14.337
 14.509  14.514  14.556  14.563  14.579  14.580  14.585  14.594
 14.601  14.608  14.614  14.619  19.646  19.651
 --------------------------------------------------------------
 
          Ground-State Mulliken Net Atomic Charges

     Atom                 Charge (a.u.)    Spin (a.u.)
  --------------------------------------------------------
      1 N                    -0.719144      -0.000000
      2 C                     0.310133       0.000000
      3 C                     0.131377      -0.000000
      4 C                    -0.199020      -0.000000
      5 C                    -0.310535      -0.000000
      6 H                     0.231344      -0.000000
      7 C                    -0.253707       0.000000
      8 H                     0.232498      -0.000000
      9 C                    -0.253230       0.000000
     10 H                     0.235382       0.000000
     11 C                    -0.323973      -0.000000
     12 H                     0.261265      -0.000000
     13 C                     0.310297      -0.000000
     14 C                    -0.323158       0.000000
     15 H                     0.262136      -0.000000
     16 C                    -0.253825      -0.000000
     17 H                     0.236109      -0.000000
     18 C                    -0.253606       0.000000
     19 H                     0.232475       0.000000
     20 C                    -0.310768      -0.000000
     21 H                     0.231109       0.000000
     22 C                     0.130831       0.000000
     23 C                     0.190135       0.000000
     24 C                    -0.304843      -0.000000
     25 H                     0.242392      -0.000000
     26 C                     0.053141       0.000000
     27 C                    -0.307598       0.000000
     28 H                     0.241878       0.000000
     29 C                     0.049971      -0.000000
     30 C                    -0.212327       0.000000
     31 C                    -0.553291      -0.000000
     32 H                     0.244233       0.000000
     33 H                     0.256313       0.000000
     34 C                    -0.657766      -0.000000
     35 C                    -0.551685       0.000000
     36 H                     0.243333      -0.000000
     37 H                     0.254619      -0.000000
     38 C                    -0.657229      -0.000000
     39 H                     0.240202      -0.000000
     40 H                     0.229128      -0.000000
     41 H                     0.222594       0.000000
     42 B                     0.657484      -0.000000
     43 C                    -0.151201       0.000000
     44 C                    -0.398007       0.000000
     45 H                     0.245601      -0.000000
     46 C                     0.103401      -0.000000
     47 C                     0.083882       0.000000
     48 C                    -0.392964       0.000000
     49 H                     0.244523       0.000000
     50 C                    -0.146115      -0.000000
     51 C                     0.183951      -0.000000
     52 C                    -0.392246       0.000000
     53 H                     0.244653      -0.000000
     54 C                    -0.071294      -0.000000
     55 C                     0.231056       0.000000
     56 C                     0.186073       0.000000
     57 C                    -0.386125       0.000000
     58 H                     0.243336      -0.000000
     59 C                    -0.224658       0.000000
     60 H                     0.251679       0.000000
     61 C                    -0.345742      -0.000000
     62 H                     0.249340       0.000000
     63 C                    -0.342883       0.000000
     64 H                     0.249111      -0.000000
     65 C                    -0.226096      -0.000000
     66 H                     0.252096      -0.000000
     67 C                    -0.150316      -0.000000
     68 C                    -0.400051       0.000000
     69 H                     0.243351       0.000000
     70 C                     0.105187      -0.000000
     71 C                     0.082475       0.000000
     72 C                    -0.391722      -0.000000
     73 H                     0.242983      -0.000000
     74 C                    -0.145265      -0.000000
     75 C                     0.183086      -0.000000
     76 C                    -0.392169      -0.000000
     77 H                     0.245345      -0.000000
     78 C                    -0.070217       0.000000
     79 C                     0.232093      -0.000000
     80 C                     0.185238      -0.000000
     81 C                    -0.385081       0.000000
     82 H                     0.244691       0.000000
     83 C                    -0.224794      -0.000000
     84 H                     0.251870      -0.000000
     85 C                    -0.346524       0.000000
     86 H                     0.249217      -0.000000
     87 C                    -0.342990       0.000000
     88 H                     0.248904       0.000000
     89 C                    -0.226834      -0.000000
     90 H                     0.252423      -0.000000
     91 B                     0.643699       0.000000
     92 C                    -0.216524      -0.000000
     93 C                     0.041486       0.000000
     94 C                    -0.290594      -0.000000
     95 H                     0.245486      -0.000000
     96 C                     0.162764       0.000000
     97 C                    -0.288257      -0.000000
     98 H                     0.245723       0.000000
     99 C                     0.045102       0.000000
    100 N                    -0.701154       0.000000
    101 C                     0.300827      -0.000000
    102 C                     0.130376       0.000000
    103 C                    -0.200122      -0.000000
    104 C                    -0.309726      -0.000000
    105 H                     0.231784      -0.000000
    106 C                    -0.260730       0.000000
    107 H                     0.229474      -0.000000
    108 C                    -0.250972       0.000000
    109 H                     0.233767      -0.000000
    110 C                    -0.317405      -0.000000
    111 H                     0.264170       0.000000
    112 C                     0.304877       0.000000
    113 C                     0.129339       0.000000
    114 C                    -0.309659      -0.000000
    115 H                     0.231932      -0.000000
    116 C                    -0.261024       0.000000
    117 H                     0.229723      -0.000000
    118 C                    -0.250960       0.000000
    119 H                     0.235708      -0.000000
    120 C                    -0.321616      -0.000000
    121 H                     0.262936      -0.000000
    122 C                    -0.549958      -0.000000
    123 H                     0.243389      -0.000000
    124 H                     0.255408      -0.000000
    125 C                    -0.656351       0.000000
    126 C                    -0.553842       0.000000
    127 H                     0.244622      -0.000000
    128 H                     0.258723      -0.000000
    129 C                    -0.656360      -0.000000
    130 H                     0.240048       0.000000
    131 H                     0.223369       0.000000
    132 H                     0.228147       0.000000
    133 H                     0.238023      -0.000000
    134 H                     0.229284      -0.000000
    135 H                     0.223163      -0.000000
    136 H                     0.228261       0.000000
    137 H                     0.241359       0.000000
    138 H                     0.223216       0.000000
    139 C                    -0.615110      -0.000000
    140 C                    -0.616342       0.000000
    141 C                    -0.617693      -0.000000
    142 C                    -0.613503       0.000000
    143 H                     0.233634      -0.000000
    144 H                     0.225733      -0.000000
    145 H                     0.225955      -0.000000
    146 H                     0.234346       0.000000
    147 H                     0.226185       0.000000
    148 H                     0.226591       0.000000
    149 H                     0.234702      -0.000000
    150 H                     0.225562       0.000000
    151 H                     0.225659       0.000000
    152 H                     0.234669      -0.000000
    153 H                     0.225886       0.000000
    154 H                     0.225848      -0.000000
  --------------------------------------------------------
  Sum of atomic charges =     0.000000
  Sum of spin   charges =    -0.000000

 -----------------------------------------------------------------
                    Cartesian Multipole Moments
 -----------------------------------------------------------------
    Charge (ESU x 10^10)
                 0.0000
    Dipole Moment (Debye)
         X       0.1951      Y      -0.3014      Z       0.5012
       Tot       0.6165
    Quadrupole Moments (Debye-Ang)
        XX    -441.7315     XY     -25.7265     YY    -478.0220
        XZ     -19.8545     YZ      23.6339     ZZ    -488.8341
    Octopole Moments (Debye-Ang^2)
       XXX    5445.9605    XXY    2356.0693    XYY    2281.4151
       YYY    6982.7506    XXZ    1893.0164    XYZ      99.3077
       YYZ    1656.8081    XZZ    2117.8147    YZZ    2200.8057
       ZZZ    5745.6619
    Hexadecapole Moments (Debye-Ang^3)
      XXXX -100555.1295   XXXY  -36899.8653   XXYY  -36218.9691
      XYYY  -40144.6226   YYYY -103295.5725   XXXZ  -36313.9381
      XXYZ  -14195.2525   XYYZ  -13475.7058   YYYZ  -43731.4140
      XXZZ  -34220.1616   XYZZ  -12468.1055   YYZZ  -30125.9037
      XZZZ  -37843.2680   YZZZ  -43874.6895   ZZZZ  -96804.7722
 -----------------------------------------------------------------
Archival summary:
1\1\ctcp043\SP\ProcedureUnspecified\BasisUnspecified\282268\mewes\WedNov1410:55:182018WedNov1410:55:182018\0\\#,ProcedureUnspecified,BasisUnspecified,\\0,1\N\C,1,1.36918\C,1,1.36953,2,122.825\C,2,1.41096,1,120.431,3,-0.524533,0\C,4,1.38491,2,117.848,1,-179.689,0\H,5,1.08146,4,119.513,2,179.844,0\C,5,1.38454,4,121.89,2,-0.0515846,0\H,7,1.08078,5,119.836,4,179.927,0\C,7,1.39341,5,119.87,4,0.0542796,0\H,9,1.08007,7,120.398,5,179.979,0\C,9,1.37051,7,120.032,5,0.0662205,0\H,11,1.07842,9,119.862,7,179.802,0\C,3,1.41156,1,119.28,2,-179.378,0\H,13,1.07861,3,119.878,1,-0.0625828,0\C,13,1.37062,3,120.093,1,179.996,0\H,15,1.08007,13,119.62,3,179.958,0\C,15,1.39352,13,120.007,3,-0.0172309,0\H,17,1.08081,15,120.267,13,179.94,0\C,17,1.38481,15,119.927,13,-0.0828195,0\H,19,1.08168,17,118.624,15,179.982,0\C,19,1.38462,17,121.861,15,0.0253352,0\C,1,1.44394,2,118.025,3,179.879,0\C,22,1.37847,1,119.172,2,86.7645,0\H,23,1.08462,22,120.269,1,1.77744,0\C,22,1.37924,1,118.987,2,-91.2399,0\H,25,1.08448,22,120.29,1,-1.77501,0\C,25,1.39115,22,119.25,1,177.853,0\C,23,1.39203,22,119.234,1,-177.343,0\C,28,1.40317,23,120.484,22,-0.34396,0\C,27,1.5044,25,117.92,22,177.239,0\H,30,1.08999,27,109.975,25,150.174,0\H,30,1.09349,27,109.597,25,33.527,0\C,28,1.50447,23,117.958,22,176.474,0\H,33,1.08989,28,109.965,23,154.044,0\H,33,1.09359,28,109.634,23,37.3506,0\C,21,1.50829,19,119.861,17,179.869,0\C,30,1.52687,27,111.445,25,-87.9657,0\H,37,1.08912,30,110.907,27,-60.4468,0\H,37,1.08982,30,110.784,27,179.988,0\H,37,1.09168,30,111.428,27,59.9262,0\C,33,1.52728,28,111.462,23,-84.2159,0\H,41,1.0895,33,110.928,28,-60.8068,0\H,41,1.08986,33,110.829,28,179.607,0\H,41,1.09179,33,111.431,28,59.5947,0\C,36,1.54328,21,108.976,19,59.2312,0\H,45,1.08907,36,111.334,21,61.1,0\H,45,1.08909,36,110.951,21,-178.513,0\H,45,1.08916,36,111.042,21,-59.3524,0\C,36,1.5434,21,108.827,19,-60.229,0\H,49,1.08921,36,111.358,21,-60.6866,0\H,49,1.08928,36,110.963,21,178.902,0\H,49,1.0893,36,110.941,21,59.7029,0\B,29,1.59637,28,121.424,23,178.753,0\C,53,1.52676,29,120.318,28,82.6281,0\C,54,1.40602,53,120.694,29,-4.50034,0\H,55,1.08573,54,119.482,53,0.349861,0\C,55,1.37156,54,120.89,53,-179.036,0\C,57,1.42535,55,120.39,54,-0.962316,0\C,58,1.37712,57,119.561,55,0.378787,0\H,59,1.08512,58,119.965,57,-179.888,0\C,59,1.40905,58,121.054,57,0.644603,0\C,57,1.45459,55,131.078,54,178.114,0\C,62,1.37329,57,135.056,55,-0.337024,0\H,63,1.08343,62,121.693,57,0.589703,0\C,62,1.40869,57,106.216,55,-179.303,0\C,65,1.39189,62,123.874,57,179.121,0\C,63,1.41143,62,118.544,57,-179.003,0\H,67,1.08304,63,118.69,62,179.863,0\C,67,1.37641,63,122.426,62,0.13753,0\H,69,1.08317,67,119.86,63,179.765,0\C,65,1.41151,62,111.296,57,0.0130097,0\C,71,1.37262,65,117.892,62,179.33,0\H,72,1.08263,71,121.771,65,-179.657,0\C,72,1.41342,71,118.586,65,0.0445367,0\H,74,1.08255,72,118.288,71,-179.948,0\C,74,1.37615,72,122.918,71,-0.181791,0\H,76,1.08306,74,119.995,72,-179.722,0\C,53,1.52684,29,119.626,28,-98.7616,0\C,78,1.40623,53,120.732,29,3.59497,0\H,79,1.08561,78,119.625,53,-0.0724133,0\C,79,1.37106,78,120.884,53,179.872,0\C,81,1.42558,79,120.366,78,0.483317,0\C,82,1.37636,81,119.603,79,-0.159089,0\H,83,1.085,82,120.004,81,179.886,0\C,83,1.40859,82,121.004,81,-0.222195,0\C,81,1.45628,79,131.146,78,-179.219,0\C,86,1.37405,81,135.277,79,-0.00380899,0\H,87,1.08351,86,121.628,81,-0.354096,0\C,86,1.40862,81,106.166,79,179.729,0\C,89,1.39289,86,123.879,81,-179.717,0\C,89,1.41142,86,111.368,81,0.101288,0\C,91,1.37313,89,117.833,86,179.985,0\H,92,1.0827,91,121.746,89,-179.91,0\C,87,1.41157,86,118.705,81,179.657,0\H,94,1.08315,87,118.725,86,-179.975,0\C,94,1.3762,87,122.403,86,-0.017427,0\H,96,1.08327,94,119.92,87,-179.908,0\C,92,1.41361,91,118.688,89,0.0854939,0\H,98,1.08256,92,118.313,91,-179.992,0\C,98,1.37599,92,122.888,91,0.0631476,0\H,100,1.08316,98,120.066,92,179.9,0\B,85,1.54001,83,120.781,82,-179.944,0\C,102,1.58625,85,119.672,83,-2.93874,0\C,103,1.40315,102,121.245,85,100.668,0\C,104,1.39122,103,120.31,102,-179.544,0\H,105,1.08451,104,120.158,103,-179.947,0\C,105,1.3836,104,120.597,103,0.600687,0\C,107,1.384,105,119.647,104,-0.209316,0\H,108,1.08441,107,119.234,105,-179.965,0\C,108,1.39073,107,120.617,105,-0.454103,0\N,107,1.42383,105,120.234,104,-179.95,0\C,111,1.38828,107,119.018,105,94.6595,0\C,111,1.38848,107,119.256,105,-84.9689,0\C,112,1.39826,111,120.801,107,178.664,0\C,114,1.39125,112,118.143,111,-179.237,0\H,115,1.08323,114,118.85,112,179.529,0\C,115,1.38275,114,122.638,112,-0.332889,0\H,117,1.08151,115,120.414,114,179.907,0\C,117,1.38551,115,118.614,114,-0.109099,0\H,119,1.08237,117,120.563,115,-179.869,0\C,119,1.3798,117,120.266,115,0.257577,0\H,121,1.08052,119,119.234,117,179.873,0\C,113,1.39838,111,120.919,107,-179.291,0\C,123,1.39158,113,118.143,111,-179.907,0\H,124,1.08334,123,118.906,113,-179.925,0\C,124,1.38289,123,122.641,113,-0.187373,0\H,126,1.08155,124,120.421,123,-179.966,0\C,126,1.38553,124,118.631,123,-0.170959,0\H,128,1.08247,126,120.545,124,-179.764,0\C,128,1.37977,126,120.243,124,0.19992,0\H,130,1.08045,128,119.216,126,-179.829,0\C,104,1.5072,103,121.01,102,-2.09722,0\H,132,1.09208,104,110.272,103,35.0626,0\H,132,1.09333,104,109.433,103,151.528,0\C,110,1.50762,108,118.51,107,-176.754,0\H,135,1.09193,110,110.35,108,-144.729,0\H,135,1.09323,110,109.392,108,-28.3278,0\C,123,1.51787,113,122.483,111,1.11116,0\C,132,1.52689,104,112.124,103,-87.0013,0\H,139,1.08982,132,111.118,104,61.7057,0\H,139,1.09087,132,111.081,104,-58.3297,0\H,139,1.09093,132,111.007,104,-178.406,0\C,135,1.52738,110,112.195,108,93.1746,0\H,143,1.08974,135,111.111,110,61.2184,0\H,143,1.09074,135,111.139,110,-58.8404,0\H,143,1.09112,135,110.973,110,-178.942,0\C,138,1.53732,123,108.9,113,-122.718,0\H,147,1.08989,138,110.597,123,60.3385,0\H,147,1.09033,138,111.507,123,-179.577,0\H,147,1.0905,138,111.406,123,-59.7145,0\C,138,1.53787,123,108.573,113,117.488,0\H,151,1.08994,138,110.582,123,-60.9944,0\H,151,1.09063,138,111.397,123,178.963,0\H,151,1.09069,138,111.293,123,58.8868,0\\\@

 Total job time:  4658.87s(wall), 35325.84s(cpu) 
 Wed Nov 14 10:55:18 2018

        *************************************************************
        *                                                           *
        *  Thank you very much for using Q-Chem.  Have a nice day.  *
        *                                                           *
        *************************************************************


0 sent ACK to 0 
now end server 0 ... 
 
*************************************************************
Job 2 of 2 
*************************************************************
 
mFile = /cm/shared/apps/q-chem/intel/QCHEM_5.1.0_Trunk/bin/mpi/machines
Process 0 of 1 is on ctcp043 - thread support 0
initial socket setup ...start
initial socket setup ...done 
now start server 0 ... 
Q-Chem Developer Version!
                  Welcome to Q-Chem
     A Quantum Leap Into The Future Of Chemistry


 Q-Chem 5.1, Q-Chem, Inc., Pleasanton, CA (2018)

 Yihan Shao,  Zhengting Gan,  E. Epifanovsky,  A. T. B. Gilbert,  M. Wormit,  
 J. Kussmann,  A. W. Lange,  A. Behn,  Jia Deng,  Xintian Feng,  D. Ghosh,  
 M. Goldey,  P. R. Horn,  L. D. Jacobson,  I. Kaliman,  T. Kus,  A. Landau,  
 Jie Liu,  E. I. Proynov,  R. M. Richard,  R. P. Steele,  E. J. Sundstrom,  
 H. L. Woodcock III,  P. M. Zimmerman,  D. Zuev,  B. Albrecht,  E. Alguire,  
 S. A. Baeppler,  D. Barton,  Z. Benda,  Y. A. Bernard,  E. J. Berquist,  
 K. B. Bravaya,  H. Burton,  D. Casanova,  Chun-Min Chang,  Yunqing Chen,  
 A. Chien,  K. D. Closser,  M. P. Coons,  S. Coriani,  S. Dasgupta,  
 A. L. Dempwolff,  M. Diedenhofen,  Hainam Do,  R. G. Edgar,  Po-Tung Fang,  
 S. Faraji,  S. Fatehi,  Qingguo Feng,  K. D. Fenk,  J. Fosso-Tande,  
 Qinghui Ge,  A. Ghysels,  G. Gidofalvi,  J. Gomes,  J. Gonthier,  A. Gunina,  
 D. Hait,  M. W. D. Hanson-Heine,  P. H. P. Harbach,  A. W. Hauser,  
 J. E. Herr,  E. G. Hohenstein,  Z. C. Holden,  Kerwin Hui,  B. C. Huynh,  
 T.-C. Jagau,  Hyunjun Ji,  B. Kaduk,  K. Khistyaev,  Jaehoon Kim,  
 P. Klunzinger,  K. Koh,  D. Kosenkov,  L. Koulias,  T. Kowalczyk,  
 C. M. Krauter,  A. Kunitsa,  Ka Un Lao,  A. Laurent,  K. V. Lawler,  
 Joonho Lee,  D. Lefrancois,  S. Lehtola,  D. S. Levine,  Yi-Pei Li,  
 You-Sheng Lin,  Fenglai Liu,  E. Livshits,  A. Luenser,  P. Manohar,  
 E. Mansoor,  S. F. Manzer,  Shan-Ping Mao,  Yuezhi Mao,  N. Mardirossian,  
 A. V. Marenich,  T. Markovich,  L. A. Martinez-Martinez,  S. A. Maurer,  
 N. J. Mayhall,  S. C. McKenzie,  J.-M. Mewes,  A. F. Morrison,  
 J. W. Mullinax,  K. Nanda,  T. S. Nguyen-Beck,  R. Olivares-Amaya,  
 J. A. Parkhill,  T. M. Perrine,  F. Plasser,  P. Pokhilko,  S. Prager,  
 A. Prociuk,  E. Ramos,  D. R. Rehn,  F. Rob,  M. Schneider,  N. Sergueev,  
 S. M. Sharada,  S. Sharma,  D. W. Small,  T. Stauch,  T. Stein,  
 Yu-Chuan Su,  A. J. W. Thom,  A. Tkatchenko,  T. Tsuchimochi,  N. M. Tubman,  
 L. Vogt,  M. L. Vidal,  O. Vydrov,  M. A. Watson,  J. Wenzel,  
 M. de Wergifosse,  T. A. Wesolowski,  A. White,  J. Witte,  A. Yamada,  
 Jun Yang,  K. Yao,  S. Yeganeh,  S. R. Yost,  Zhi-Qiang You,  A. Zech,  
 Igor Ying Zhang,  Xing Zhang,  Yan Zhao,  Ying Zhu,  B. R. Brooks,  
 G. K. L. Chan,  C. J. Cramer,  M. S. Gordon,  W. J. Hehre,  A. Klamt,  
 M. W. Schmidt,  C. D. Sherrill,  D. G. Truhlar,  A. Aspuru-Guzik,  R. Baer,  
 A. T. Bell,  N. A. Besley,  Jeng-Da Chai,  A. E. DePrince, III,  
 R. A. DiStasio Jr.,  A. Dreuw,  B. D. Dunietz,  T. R. Furlani,  
 Chao-Ping Hsu,  Yousung Jung,  Jing Kong,  D. S. Lambrecht,  WanZhen Liang,  
 C. Ochsenfeld,  V. A. Rassolov,  L. V. Slipchenko,  J. E. Subotnik,  
 T. Van Voorhis,  J. M. Herbert,  A. I. Krylov,  P. M. W. Gill,  M. Head-Gordon

 Contributors to earlier versions of Q-Chem not listed above: 
 R. D. Adamson,  B. Austin,  J. Baker,  G. J. O. Beran,  K. Brandhorst,  
 S. T. Brown,  E. F. C. Byrd,  A. K. Chakraborty,  C.-L. Cheng,  
 Siu Hung Chien,  D. M. Chipman,  D. L. Crittenden,  H. Dachsel,  
 R. J. Doerksen,  A. D. Dutoi,  L. Fusti-Molnar,  W. A. Goddard III,  
 A. Golubeva-Zadorozhnaya,  S. R. Gwaltney,  G. Hawkins,  A. Heyden,  
 S. Hirata,  G. Kedziora,  F. J. Keil,  C. Kelley,  Jihan Kim,  R. A. King,  
 R. Z. Khaliullin,  P. P. Korambath,  W. Kurlancheek,  A. M. Lee,  M. S. Lee,  
 S. V. Levchenko,  Ching Yeh Lin,  D. Liotard,  R. C. Lochan,  I. Lotan,  
 P. E. Maslen,  N. Nair,  D. P. O'Neill,  D. Neuhauser,  E. Neuscamman,  
 C. M. Oana,  R. Olson,  B. Peters,  R. Peverati,  P. A. Pieniazek,  
 Y. M. Rhee,  J. Ritchie,  M. A. Rohrdanz,  E. Rosta,  N. J. Russ,  
 H. F. Schaefer III,  N. E. Schultz,  N. Shenvi,  A. C. Simmonett,  A. Sodt,  
 D. Stuck,  K. S. Thanthiriwatte,  V. Vanovschi,  Tao Wang,  A. Warshel,  
 C. F. Williams,  Q. Wu,  X. Xu,  W. Zhang

 Please cite Q-Chem as follows:
 Y. Shao et al., Mol. Phys. 113, 184-215 (2015)
 DOI: 10.1080/00268976.2014.952696

 Q-Chem 5.1.1 for Intel X86 EM64T Linux

 Parts of Q-Chem use Armadillo 8.300.2 (Tropical Shenanigans).
 http://arma.sourceforge.net/

 Q-Chem begins on Wed Nov 14 10:55:21 2018  

Host: ctcp043
0

     Scratch files written to /scratch/mewes/140303/qchem32251//
 Parallel job on  1  processors
The previous job contains 0 fragments, simply inherited here
Symmetry turned off for PCM/SM12/SMD calculation
Input Ideriv = 2
Curr. Ideriv = -1
Max.  Ideriv = 2
Input Ideriv = 2
Curr. Ideriv = 2
Max.  Ideriv = 2

Checking the input file for inconsistencies... 	...done.

--------------------------------------------------------------
User input:
--------------------------------------------------------------

$rem
threads 8
jobtype opt
method PBEh-3c
basis def2-mSVP
scf_guess	read
mem_static      1024
mem_total       8000
sym_ignore      true
unrestricted true
mom_start       1
scf_algorithm	diis
scf_max_cycles	250
solvent_method	pcm
geom_opt_tol_energy 25
geom_opt_tol_gradient 75
$end

$solvent
dielectric      4.33
$end

$pcm
theory iefpcm
$end

$occupied
1 2 3 4 5 6 7 8 9 10 11 12 13 14 15 16 17 18 19 20 21 22 23 24 25 26 27 28 29 30 31 32 33 34 35 36 37 38 39 40 41 42 43 44 45 46 47 48 49 50 51 52 53 54 55 56 57 58 59 60 61 62 63 64 65 66 67 68 69 70 71 72 73 74 75 76 77 78 79 80 81 82 83 84 85 86 87 88 89 90 91 92 93 94 95 96 97 98 99 100 101 102 103 104 105 106 107 108 109 110 111 112 113 114 115 116 117 118 119 120 121 122 123 124 125 126 127 128 129 130 131 132 133 134 135 136 137 138 139 140 141 142 143 144 145 146 147 148 149 150 151 152 153 154 155 156 157 158 159 160 161 162 163 164 165 166 167 168 169 170 171 172 173 174 175 176 177 178 179 180 181 182 183 184 185 186 187 188 189 190 191 192 193 194 195 196 197 198 199 200 201 202 203 204 205 206 207 208 209 210 211 212 213 214 215 216 217 218 219 220 221 222 223 224 225 226 227 228 229 230 231 232 233 234 235 236 237 238 239 240 241 242 243 244 245 246 247 248 249 250 251 252 253 254 255 256 257 258 259 260 261 262 263 264 265 266 267 268 269 270 271 272 273 274 275 276 277 278 279 280 281 282 283 284 285 286 287 288 289 290 291  293
1 2 3 4 5 6 7 8 9 10 11 12 13 14 15 16 17 18 19 20 21 22 23 24 25 26 27 28 29 30 31 32 33 34 35 36 37 38 39 40 41 42 43 44 45 46 47 48 49 50 51 52 53 54 55 56 57 58 59 60 61 62 63 64 65 66 67 68 69 70 71 72 73 74 75 76 77 78 79 80 81 82 83 84 85 86 87 88 89 90 91 92 93 94 95 96 97 98 99 100 101 102 103 104 105 106 107 108 109 110 111 112 113 114 115 116 117 118 119 120 121 122 123 124 125 126 127 128 129 130 131 132 133 134 135 136 137 138 139 140 141 142 143 144 145 146 147 148 149 150 151 152 153 154 155 156 157 158 159 160 161 162 163 164 165 166 167 168 169 170 171 172 173 174 175 176 177 178 179 180 181 182 183 184 185 186 187 188 189 190 191 192 193 194 195 196 197 198 199 200 201 202 203 204 205 206 207 208 209 210 211 212 213 214 215 216 217 218 219 220 221 222 223 224 225 226 227 228 229 230 231 232 233 234 235 236 237 238 239 240 241 242 243 244 245 246 247 248 249 250 251 252 253 254 255 256 257 258 259 260 261 262 263 264 265 266 267 268 269 270 271 272 273 274 275 276 277 278 279 280 281 282 283 284 285 286 287 288 289 290 291 292
$end

$molecule
read
$end

--------------------------------------------------------------
 Adding empirical dispersion correction 
 ----------------------------------------------------------------
 Doing -D3(BJ) with
 s6 =   1.00000
 s8 =   0.00000
 a1 =   0.48600
 a2 =   4.50000
 -D3 energy including 3body term =     -0.1507731752 hartrees
 ----------------------------------------------------------------
 Adding gCP correction 
 ----------------------------------------------------------------
 gCP energy =      0.2100884175 hartrees
 ----------------------------------------------------------------
             Standard Nuclear Orientation (Angstroms)
    I     Atom           X                Y                Z
 ----------------------------------------------------------------
    1      N       0.1593970000    -1.1728530000     0.7182300000
    2      C      -0.4299490000    -0.5017740000     1.7813450000
    3      C       0.3380760000     0.2718040000     2.6572380000
    4      C       1.8367800000     0.4455620000     2.4910700000
    5      C      -0.3118980000     0.9180430000     3.7043370000
    6      H       0.2709970000     1.5216050000     4.3895860000
    7      C      -1.6770780000     0.8261910000     3.9048890000
    8      H      -2.1453670000     1.3442860000     4.7307470000
    9      C      -2.4274190000     0.0625910000     3.0253390000
   10      H      -3.4987840000    -0.0275680000     3.1509960000
   11      C      -1.8149620000    -0.5921790000     1.9765590000
   12      H      -2.4164470000    -1.1808690000     1.2990380000
   13      C       1.5284100000    -1.1241410000     0.4929560000
   14      C       2.0836300000    -1.8439730000    -0.5730220000
   15      H       1.4459530000    -2.4394910000    -1.2103950000
   16      C       3.4393650000    -1.8020860000    -0.8261660000
   17      H       3.8382750000    -2.3669550000    -1.6588210000
   18      C       4.2763940000    -1.0433340000    -0.0241030000
   19      H       5.3401010000    -0.9992180000    -0.2144870000
   20      C       3.7242330000    -0.3397240000     1.0304380000
   21      H       4.3800930000     0.2533170000     1.6561640000
   22      C       2.3628270000    -0.3617930000     1.3161900000
   23      C      -0.6584000000    -1.9382520000    -0.1607810000
   24      C      -0.9887580000    -3.2441550000     0.1551850000
   25      H      -0.6258690000    -3.6728090000     1.0829420000
   26      C      -1.7864340000    -3.9992120000    -0.6986780000
   27      C      -1.1227260000    -1.3805840000    -1.3392870000
   28      H      -0.8592650000    -0.3567110000    -1.5805480000
   29      C      -1.9099280000    -2.1235110000    -2.2124960000
   30      C      -2.2567720000    -3.4481930000    -1.9003430000
   31      C      -2.3281040000    -1.4941170000    -3.5170700000
   32      H      -2.3842120000    -0.4091570000    -3.3951290000
   33      H      -3.3332340000    -1.8209090000    -3.7913580000
   34      C      -1.3627900000    -1.8258210000    -4.6533070000
   35      C      -2.1774100000    -5.3926810000    -0.2779300000
   36      H      -1.3847610000    -5.8216370000     0.3410050000
   37      H      -2.2658610000    -6.0411080000    -1.1522080000
   38      C      -3.4913020000    -5.4112050000     0.4997160000
   39      H      -4.3145520000    -5.0418740000    -0.1114800000
   40      H      -3.7424600000    -6.4236440000     0.8191110000
   41      H      -3.4290830000    -4.7841590000     1.3901850000
   42      B      -3.1763290000    -4.2853930000    -2.8850710000
   43      C      -4.6984080000    -4.0511420000    -2.8909300000
   44      C      -5.2919760000    -3.1462800000    -1.9892560000
   45      H      -4.6600990000    -2.6139580000    -1.2859780000
   46      C      -6.6519060000    -2.9342620000    -1.9897260000
   47      C      -7.4737830000    -3.6364490000    -2.9191020000
   48      C      -6.9161440000    -4.5160440000    -3.8108200000
   49      H      -7.5545380000    -5.0379240000    -4.5169660000
   50      C      -5.5297870000    -4.7513470000    -3.8215770000
   51      C      -7.5249920000    -2.0853280000    -1.1813960000
   52      C      -7.3523350000    -1.1956420000    -0.1498280000
   53      H      -6.3726130000    -0.9768310000     0.2557730000
   54      C      -8.8386620000    -2.3070950000    -1.6474280000
   55      C      -9.9777620000    -1.6912400000    -1.1342790000
   56      C      -8.8582130000    -3.2397910000    -2.7028450000
   57      C     -10.0672530000    -3.5674510000    -3.2675460000
   58      H     -10.1398860000    -4.2779500000    -4.0823580000
   59      C      -8.4900820000    -0.5534680000     0.3900210000
   60      H      -8.3469640000     0.1468710000     1.2030240000
   61      C      -9.7660800000    -0.7811820000    -0.0718550000
   62      H     -10.6058490000    -0.2647670000     0.3768450000
   63      C     -11.2103180000    -2.0478430000    -1.7337190000
   64      H     -12.1333090000    -1.6050060000    -1.3795090000
   65      C     -11.2372630000    -2.9572880000    -2.7662460000
   66      H     -12.1905570000    -3.2156520000    -3.2108770000
   67      C      -2.5703900000    -5.3181300000    -3.8542950000
   68      C      -1.1892770000    -5.5971600000    -3.8441140000
   69      H      -0.5499530000    -5.0622610000    -3.1493930000
   70      C      -0.6487220000    -6.5397110000    -4.6902010000
   71      C      -1.4960550000    -7.2355050000    -5.6009820000
   72      C      -2.8400810000    -6.9653080000    -5.6428440000
   73      H      -3.4731190000    -7.4986700000    -6.3454020000
   74      C      -3.4126330000    -6.0152920000    -4.7788160000
   75      C       0.7083850000    -7.0506450000    -4.8727440000
   76      C       1.9343840000    -6.8064680000    -4.3058250000
   77      H       2.0643050000    -6.0683460000    -3.5245540000
   78      C       0.6312500000    -8.0363310000    -5.8801300000
   79      C       1.7086140000    -8.7869540000    -6.3418850000
   80      C      -0.6878500000    -8.1833510000    -6.3521260000
   81      C      -0.9399410000    -9.1181950000    -7.3260130000
   82      H      -1.9375260000    -9.2775170000    -7.7174890000
   83      C       3.0486100000    -7.5492500000    -4.7580640000
   84      H       4.0130390000    -7.3533690000    -4.3070440000
   85      C       2.9586780000    -8.5096450000    -5.7395650000
   86      H       3.8430230000    -9.0541010000    -6.0469980000
   87      C       1.4225590000    -9.7411890000    -7.3486960000
   88      H       2.2165010000   -10.3587840000    -7.7505590000
   89      C       0.1359520000    -9.8902120000    -7.8144550000
   90      H      -0.0605770000   -10.6297310000    -8.5809170000
   91      B      -4.9127990000    -5.7338100000    -4.8142130000
   92      C      -5.8391260000    -6.4372380000    -5.9076030000
   93      C      -6.1929170000    -5.7406540000    -7.0755330000
   94      C      -7.0288290000    -6.3272490000    -8.0202250000
   95      H      -7.3156180000    -5.7835030000    -8.9136410000
   96      C      -7.4960720000    -7.6068940000    -7.8046100000
   97      C      -7.1561310000    -8.3242740000    -6.6776710000
   98      H      -7.5416260000    -9.3274470000    -6.5312440000
   99      C      -6.3286480000    -7.7392730000    -5.7233100000
  100      N      -8.4006630000    -8.1927380000    -8.7655840000
  101      C      -9.7453240000    -8.0288710000    -8.5663560000
  102      C     -10.6742820000    -8.5684030000    -9.4810950000
  103      C     -10.2472210000    -9.3391230000   -10.7054070000
  104      C     -12.0211770000    -8.3651130000    -9.2310290000
  105      H     -12.7564600000    -8.7647280000    -9.9160200000
  106      C     -12.4612230000    -7.6590830000    -8.1243060000
  107      H     -13.5205620000    -7.5192590000    -7.9620290000
  108      C     -11.5366690000    -7.1297520000    -7.2262030000
  109      H     -11.8704920000    -6.5772750000    -6.3602510000
  110      C     -10.1944660000    -7.3068870000    -7.4393320000
  111      H      -9.4812200000    -6.8932920000    -6.7441960000
  112      C      -7.8866620000    -8.8818060000    -9.8317020000
  113      C      -8.7460050000    -9.4552960000   -10.7937600000
  114      C      -8.1684600000   -10.1393460000   -11.8500240000
  115      H      -8.8011270000   -10.5872210000   -12.6044630000
  116      C      -6.7952690000   -10.2690620000   -11.9734090000
  117      H      -6.3799510000   -10.8102640000   -12.8117130000
  118      C      -5.9547160000    -9.7024520000   -11.0172040000
  119      H      -4.8827190000    -9.8000280000   -11.1058460000
  120      C      -6.4871000000    -9.0161950000    -9.9569140000
  121      H      -5.8367950000    -8.5769270000    -9.2169510000
  122      C      -6.0413920000    -8.5161380000    -4.4673660000
  123      H      -5.9406350000    -9.5783200000    -4.7072540000
  124      H      -5.0860430000    -8.2030850000    -4.0464460000
  125      C      -7.1450350000    -8.3271950000    -3.4286860000
  126      C      -5.6498280000    -4.3690500000    -7.3704360000
  127      H      -6.3890420000    -3.7958510000    -7.9367710000
  128      H      -5.4857330000    -3.8255720000    -6.4399610000
  129      C      -4.3449210000    -4.4431510000    -8.1597850000
  130      H      -3.5817030000    -4.9812910000    -7.5993600000
  131      H      -4.4849540000    -4.9529980000    -9.1148810000
  132      H      -3.9613960000    -3.4444290000    -8.3675620000
  133      H      -7.2352890000    -7.2797260000    -3.1429130000
  134      H      -6.9301240000    -8.8994760000    -2.5264080000
  135      H      -8.1129760000    -8.6578920000    -3.8104320000
  136      H      -1.6736590000    -1.3457730000    -5.5825350000
  137      H      -1.3215890000    -2.8999620000    -4.8323480000
  138      H      -0.3520690000    -1.4870170000    -4.4222990000
  139      C     -10.7649640000    -8.6074500000   -11.9618680000
  140      C     -10.8573360000   -10.7553070000   -10.6430950000
  141      C       2.5380000000    -0.0235590000     3.7762030000
  142      C       2.1327950000     1.9341400000     2.2429820000
  143      H       1.6408060000     2.2760860000     1.3324880000
  144      H       3.2029650000     2.1143370000     2.1346740000
  145      H       1.7763300000     2.5517550000     3.0682610000
  146      H       2.3231830000    -1.0746480000     3.9683760000
  147      H       2.2074220000     0.5506980000     4.6423120000
  148      H       3.6200820000     0.0901170000     3.7054520000
  149      H     -10.3480410000    -7.6039750000   -12.0365940000
  150      H     -11.8506760000    -8.5214090000   -11.9430850000
  151      H     -10.4985230000    -9.1519040000   -12.8669420000
[...]
  1.765   1.765   1.769   1.771   1.775   1.780   1.788   1.789
  1.793   1.796   1.803   1.807   1.810   1.811   1.815   1.823
  1.826   1.827   1.827   1.830   1.834   1.835   1.837   1.838
  1.840   1.840   1.851   1.855   1.863   1.864   1.867   1.877
  1.883   1.886   1.887   1.891   1.892   1.895   1.904   1.907
  1.908   1.918   1.921   1.924   1.925   1.928   1.934   1.935
  1.936   1.938   1.940   1.946   1.948   1.950   1.956   1.958
  1.961   1.961   1.968   1.970   1.975   1.979   1.989   1.992
  1.994   1.996   1.997   1.997   2.004   2.005   2.007   2.009
  2.010   2.013   2.017   2.025   2.028   2.045   2.047   2.050
  2.056   2.058   2.060   2.061   2.066   2.070   2.071   2.077
  2.081   2.082   2.084   2.089   2.094   2.095   2.097   2.102
  2.103   2.104   2.107   2.110   2.117   2.124   2.125   2.127
  2.130   2.138   2.139   2.143   2.144   2.144   2.149   2.153
  2.155   2.158   2.162   2.164   2.168   2.173   2.174   2.178
  2.180   2.182   2.187   2.192   2.197   2.201   2.207   2.215
  2.216   2.217   2.218   2.219   2.223   2.226   2.228   2.231
  2.233   2.238   2.245   2.246   2.248   2.256   2.260   2.261
  2.264   2.266   2.270   2.278   2.280   2.281   2.283   2.288
  2.290   2.292   2.294   2.296   2.302   2.303   2.303   2.306
  2.307   2.309   2.315   2.315   2.321   2.325   2.327   2.330
  2.333   2.336   2.336   2.336   2.338   2.339   2.345   2.349
  2.352   2.354   2.355   2.361   2.363   2.364   2.364   2.367
  2.371   2.373   2.373   2.374   2.376   2.377   2.381   2.382
  2.392   2.393   2.395   2.399   2.404   2.405   2.405   2.410
  2.411   2.421   2.424   2.425   2.425   2.427   2.432   2.434
  2.438   2.439   2.446   2.449   2.452   2.455   2.464   2.465
  2.470   2.482   2.484   2.491   2.493   2.498   2.502   2.505
  2.506   2.510   2.517   2.517   2.520   2.524   2.531   2.538
  2.542   2.549   2.557   2.562   2.563   2.575   2.577   2.588
  2.590   2.602   2.602   2.618   2.620   2.629   2.634   2.634
  2.649   2.652   2.658   2.659   2.659   2.661   2.677   2.681
  2.683   2.690   2.692   2.697   2.702   2.702   2.705   2.708
  2.712   2.724   2.726   2.728   2.732   2.733   2.737   2.743
  2.747   2.747   2.751   2.757   2.758   2.764   2.764   2.766
  2.769   2.774   2.777   2.781   2.795   2.796   2.796   2.798
  2.801   2.803   2.803   2.804   2.805   2.810   2.814   2.817
  2.821   2.823   2.824   2.825   2.828   2.829   2.837   2.839
  2.845   2.851   2.864   2.868   2.871   2.880   2.884   2.886
  2.889   2.895   2.899   2.910   2.915   2.922   2.925   2.937
  2.940   2.948   2.960   2.963   2.964   2.973   2.977   2.978
  2.993   2.996   3.004   3.015   3.017   3.020   3.023   3.037
  3.041   3.057   3.077   3.089   3.091   3.095   3.101   3.130
  3.151   3.155   3.210   3.214   3.248   3.264   3.273   3.276
  3.366   3.417   3.423   3.461   3.464   3.484   3.503   3.504
  3.512   3.516   3.523   3.547   3.576   3.587   3.681   3.693
  9.643   9.801  13.160  13.194  13.202  13.255  13.294  13.345
 13.474  13.518  13.526  13.539  13.563  13.569  13.606  13.654
 13.663  13.670  13.691  13.692  13.716  13.728  13.746  13.750
 13.775  13.783  13.789  13.808  13.817  13.819  13.841  13.864
 13.865  13.877  13.879  13.889  13.909  13.942  13.943  14.024
 14.030  14.041  14.045  14.053  14.053  14.057  14.062  14.064
 14.119  14.137  14.165  14.169  14.176  14.177  14.179  14.189
 14.200  14.202  14.222  14.227  14.229  14.245  14.265  14.267
 14.294  14.297  14.303  14.319  14.331  14.336  14.362  14.363
 14.525  14.529  14.534  14.549  14.580  14.590  14.592  14.593
 14.597  14.603  14.611  14.633  19.538  19.655
 --------------------------------------------------------------
 
          Ground-State Mulliken Net Atomic Charges

     Atom                 Charge (a.u.)    Spin (a.u.)
  --------------------------------------------------------
      1 N                    -0.717425      -0.000119
      2 C                     0.306377       0.000036
      3 C                     0.131750       0.000001
      4 C                    -0.198203       0.000000
      5 C                    -0.311290      -0.000002
      6 H                     0.228526       0.000001
      7 C                    -0.255051      -0.000001
      8 H                     0.229690       0.000000
      9 C                    -0.253767      -0.000007
     10 H                     0.234724       0.000003
     11 C                    -0.323683       0.000010
     12 H                     0.268077      -0.000008
     13 C                     0.310330       0.000036
     14 C                    -0.325982       0.000011
     15 H                     0.266428      -0.000009
     16 C                    -0.253544      -0.000004
     17 H                     0.236054       0.000000
     18 C                    -0.255825      -0.000000
     19 H                     0.229753       0.000000
     20 C                    -0.310397      -0.000002
     21 H                     0.228396       0.000001
     22 C                     0.128330       0.000000
     23 C                     0.186289       0.002071
     24 C                    -0.309277      -0.001709
     25 H                     0.232078       0.000413
     26 C                     0.042299       0.004368
     27 C                    -0.310851      -0.001785
     28 H                     0.231206       0.000398
     29 C                     0.039146       0.004767
     30 C                    -0.179373      -0.027781
     31 C                    -0.543650       0.003024
     32 H                     0.230080       0.000447
     33 H                     0.259423      -0.002251
     34 C                    -0.658703      -0.000011
     35 C                    -0.541581       0.002532
     36 H                     0.229367       0.000442
     37 H                     0.255427      -0.001713
     38 C                    -0.659444      -0.000008
     39 H                     0.247724      -0.000384
     40 H                     0.219742      -0.000010
     41 H                     0.214529      -0.000078
     42 B                     0.527452       0.294049
     43 C                    -0.142603       0.051421
     44 C                    -0.410279      -0.049488
     45 H                     0.227018       0.001754
     46 C                     0.082653       0.079237
     47 C                     0.062419       0.053665
     48 C                    -0.405570      -0.029635
     49 H                     0.206834       0.000651
     50 C                    -0.134423       0.023051
     51 C                     0.181009      -0.053570
     52 C                    -0.410008       0.082182
     53 H                     0.234495      -0.004829
     54 C                    -0.080292       0.023767
     55 C                     0.227341      -0.038775
     56 C                     0.180811      -0.047733
     57 C                    -0.403611       0.075335
     58 H                     0.220464      -0.004468
     59 C                    -0.223462      -0.051739
     60 H                     0.239936       0.002509
     61 C                    -0.362388       0.075498
     62 H                     0.235437      -0.004447
     63 C                    -0.358823       0.070459
     64 H                     0.235198      -0.004133
     65 C                    -0.225854      -0.048636
     66 H                     0.235301       0.002384
     67 C                    -0.139644       0.050669
     68 C                    -0.414915      -0.049103
     69 H                     0.223148       0.001726
     70 C                     0.082461       0.079118
     71 C                     0.061694       0.056567
     72 C                    -0.405844      -0.031723
     73 H                     0.207699       0.000757
     74 C                    -0.130800       0.025358
     75 C                     0.180016      -0.054224
     76 C                    -0.410030       0.083365
     77 H                     0.235172      -0.004884
     78 C                    -0.079759       0.024234
     79 C                     0.228098      -0.039588
     80 C                     0.180037      -0.049226
     81 C                    -0.402941       0.077537
     82 H                     0.222908      -0.004594
     83 C                    -0.223916      -0.052604
     84 H                     0.240315       0.002551
     85 C                    -0.363068       0.076714
     86 H                     0.235295      -0.004518
     87 C                    -0.358959       0.072635
     88 H                     0.234879      -0.004265
     89 C                    -0.226766      -0.049964
     90 H                     0.235931       0.002445
     91 B                     0.508947       0.327168
     92 C                    -0.165766      -0.031774
     93 C                     0.029571       0.007617
     94 C                    -0.287729      -0.019205
     95 H                     0.249606       0.001218
     96 C                     0.124064       0.035018
     97 C                    -0.285427      -0.019086
     98 H                     0.249678       0.001211
     99 C                     0.034872       0.007385
    100 N                    -0.605634      -0.445215
    101 C                     0.297968       0.099558
    102 C                     0.190126      -0.231951
    103 C                    -0.235328       0.038689
    104 C                    -0.306209       0.151054
    105 H                     0.264886      -0.007077
    106 C                    -0.205270      -0.251036
    107 H                     0.275241       0.013401
    108 C                    -0.245390       0.129771
    109 H                     0.275682      -0.005865
    110 C                    -0.265843      -0.181127
    111 H                     0.312454       0.009796
    112 C                     0.302627       0.099285
    113 C                     0.189612      -0.231809
    114 C                    -0.306343       0.151129
    115 H                     0.265010      -0.007085
    116 C                    -0.205468      -0.251733
    117 H                     0.275367       0.013447
    118 C                    -0.245632       0.130319
    119 H                     0.276735      -0.005881
    120 C                    -0.269832      -0.181690
    121 H                     0.312016       0.009808
    122 C                    -0.542468       0.002081
    123 H                     0.232356       0.000570
    124 H                     0.273431      -0.002282
    125 C                    -0.657796      -0.000064
    126 C                    -0.546525       0.002510
    127 H                     0.232979       0.000604
    128 H                     0.277188      -0.002862
    129 C                    -0.657481      -0.000046
    130 H                     0.251021      -0.000321
    131 H                     0.208040      -0.000099
    132 H                     0.230145      -0.000030
    133 H                     0.248932      -0.000274
    134 H                     0.231300      -0.000040
    135 H                     0.207850      -0.000082
    136 H                     0.217737      -0.000004
    137 H                     0.248885      -0.000439
    138 H                     0.214733      -0.000096
    139 C                    -0.613172      -0.022392
    140 C                    -0.612485      -0.022938
    141 C                    -0.617119      -0.000000
    142 C                    -0.614183       0.000000
    143 H                     0.234360       0.000000
    144 H                     0.224303      -0.000000
    145 H                     0.224142       0.000000
    146 H                     0.234956      -0.000000
    147 H                     0.224742       0.000000
    148 H                     0.224548       0.000000
    149 H                     0.249886       0.000811
    150 H                     0.247089      -0.000187
    151 H                     0.246700      -0.000234
    152 H                     0.249167       0.000856
    153 H                     0.247153      -0.000273
    154 H                     0.247228      -0.000282
  --------------------------------------------------------
  Sum of atomic charges =    -0.000000
  Sum of spin   charges =     0.000000

 -----------------------------------------------------------------
                    Cartesian Multipole Moments
 -----------------------------------------------------------------
    Charge (ESU x 10^10)
                -0.0000
    Dipole Moment (Debye)
         X     -22.5478      Y     -15.5044      Z     -24.6236
       Tot      36.8119
    Quadrupole Moments (Debye-Ang)
        XX    -188.3678     XY     248.3679     YY    -295.8416
        XZ     302.5673     YZ     279.7688     ZZ    -169.3024
    Octopole Moments (Debye-Ang^2)
       XXX    2452.3949    XXY    -439.7930    XYY    -361.0990
       YYY    5113.6577    XXZ   -1323.3149    XYZ   -2885.0963
       YYZ    -819.0564    XZZ   -1289.6489    YZZ    -858.1641
       ZZZ    1988.7420
    Hexadecapole Moments (Debye-Ang^3)
      XXXX  -65032.2812   XXXY   -6124.2833   XXYY  -10312.2776
      XYYY  -15123.4880   YYYY  -85199.9294   XXXZ   -1614.2223
      XXYZ   14543.5880   XYYZ   14089.8580   YYYZ  -20112.2518
      XXZZ   -1309.1164   XYZZ   18544.6324   YYZZ   -1223.3021
      XZZZ   -1529.0110   YZZZ   -9072.5235   ZZZZ  -54564.3949
 -----------------------------------------------------------------
Archival summary:
1\1\ctcp043\OPT\ProcedureUnspecified\BasisUnspecified\282268\mewes\ThuNov1504:37:392018ThuNov1504:37:392018\0\\#,OPT,ProcedureUnspecified,BasisUnspecified,\\0,1\N\C,1,1.37515\C,1,1.37533,2,122.916\C,3,1.40846,1,120.118,2,0.290487,0\C,4,1.38748,3,117.742,1,179.859,0\H,5,1.08185,4,119.531,3,-179.924,0\C,5,1.38435,4,121.834,3,0.198553,0\H,7,1.08147,5,119.782,4,179.941,0\C,7,1.39366,5,119.962,4,0.0627216,0\H,9,1.08097,7,120.432,5,179.82,0\C,9,1.37245,7,119.944,5,-0.141211,0\H,11,1.07948,9,119.502,7,179.877,0\C,2,1.40868,1,120.172,3,0.17663,0\C,13,1.38714,2,117.679,1,179.624,0\H,14,1.0818,13,119.527,2,179.994,0\C,14,1.38473,13,121.82,2,0.0894888,0\H,16,1.08147,14,119.748,13,-179.92,0\C,16,1.39368,14,120.011,13,0.178972,0\H,18,1.08088,16,120.443,14,179.838,0\C,18,1.37254,16,119.9,14,-0.184384,0\H,20,1.0797,18,119.654,16,-179.968,0\C,1,1.43969,2,118.928,3,-179.776,0\C,22,1.37973,1,119.072,2,-94.1549,0\H,23,1.0846,22,120.081,1,1.36771,0\C,22,1.3802,1,119.13,2,87.3751,0\H,25,1.08447,22,120.117,1,-1.44136,0\C,25,1.39069,22,119.237,1,178.416,0\C,23,1.39147,22,119.257,1,-177.856,0\C,28,1.4048,23,120.519,22,-0.458063,0\C,27,1.5048,25,117.811,22,176.78,0\H,30,1.09085,27,110.11,25,152.436,0\H,30,1.09319,27,109.62,25,35.5991,0\C,28,1.50516,23,117.805,22,176.611,0\H,33,1.09081,28,110.158,23,154.458,0\H,33,1.09324,28,109.551,23,37.6143,0\C,13,1.50797,2,122.549,1,-0.713236,0\C,30,1.52704,27,111.506,25,-85.8006,0\H,37,1.08997,30,110.908,27,-59.9215,0\H,37,1.09025,30,110.901,27,-179.64,0\H,37,1.09161,30,111.287,27,60.2418,0\C,33,1.5273,28,111.551,23,-83.6747,0\H,41,1.09016,33,110.935,28,-61.1587,0\H,41,1.09025,33,110.94,28,179.094,0\H,41,1.09159,33,111.219,28,58.9955,0\C,36,1.54294,13,108.752,2,-119.355,0\H,45,1.08932,36,110.801,13,-178.939,0\H,45,1.08947,36,110.836,13,-59.7813,0\H,45,1.08949,36,111.237,13,60.6675,0\C,36,1.54312,13,109.08,2,121.091,0\H,49,1.08938,36,110.744,13,178.952,0\H,49,1.0894,36,110.853,13,59.9406,0\H,49,1.08952,36,111.283,13,-60.593,0\B,29,1.59122,28,121.54,23,179.212,0\C,53,1.53035,29,120.615,28,82.725,0\C,54,1.40869,53,120.238,29,-3.83086,0\H,55,1.08585,54,119.386,53,0.265593,0\C,55,1.37067,54,120.819,53,-179.278,0\C,57,1.42723,55,120.524,54,-0.668562,0\C,58,1.37594,57,119.556,55,0.0707095,0\H,59,1.08559,58,119.968,57,-179.634,0\C,59,1.41314,58,120.965,57,0.551468,0\C,57,1.45641,55,130.958,54,178.68,0\C,62,1.3738,57,134.947,55,-0.142933,0\H,63,1.08359,62,121.82,57,0.483597,0\C,62,1.40918,57,106.213,55,-179.482,0\C,65,1.39255,62,123.813,57,179.368,0\C,65,1.41227,62,111.378,57,-0.0277759,0\C,67,1.37294,65,117.917,62,179.602,0\H,68,1.08287,67,121.829,65,-179.846,0\C,63,1.41334,62,118.456,57,-179.29,0\H,70,1.08305,63,118.602,62,179.913,0\C,70,1.37718,63,122.443,62,0.0736855,0\H,72,1.08336,70,119.873,63,179.846,0\C,68,1.41537,67,118.577,65,-0.00988962,0\H,74,1.08267,68,118.269,67,-179.977,0\C,74,1.3769,68,122.914,67,-0.122365,0\H,76,1.08325,74,120.041,68,-179.821,0\C,53,1.5304,29,119.987,28,-98.7019,0\C,78,1.4088,53,120.414,29,3.74941,0\H,79,1.08583,78,119.519,53,0.209146,0\C,79,1.37051,78,120.771,53,-179.931,0\C,81,1.42683,79,120.462,78,0.630293,0\C,82,1.37497,81,119.632,79,-0.245694,0\H,83,1.08514,82,119.844,81,179.805,0\C,83,1.41285,82,120.968,81,-0.375729,0\C,81,1.45842,79,131.08,78,-179.146,0\C,86,1.37431,81,135.172,79,0.194951,0\H,87,1.08363,86,121.825,81,-0.313937,0\C,86,1.40929,81,106.159,79,179.879,0\C,89,1.39337,86,123.846,81,-179.786,0\C,89,1.41201,86,111.438,81,0.0114551,0\C,91,1.37327,89,117.911,86,-179.939,0\H,92,1.08314,91,121.807,89,179.989,0\C,87,1.4138,86,118.599,81,179.692,0\H,94,1.08309,87,118.594,86,-179.958,0\C,94,1.37693,87,122.438,86,-0.0364382,0\H,96,1.08344,94,119.934,87,-179.9,0\C,92,1.41554,91,118.649,89,-0.0112731,0\H,98,1.08269,92,118.314,91,-179.963,0\C,98,1.37674,92,122.864,91,0.127409,0\H,100,1.08337,98,120.079,92,179.898,0\B,61,1.53835,59,121.002,58,179.942,0\C,102,1.58738,61,122.082,59,4.43171,0\C,103,1.40274,102,121.743,61,-84.6006,0\C,104,1.39275,103,120.337,102,-175.242,0\H,105,1.085,104,120.091,103,178.753,0\C,105,1.38381,104,120.504,103,-0.469332,0\C,107,1.38497,105,119.724,104,-0.764855,0\H,108,1.08482,107,119.372,105,-179.846,0\C,108,1.39043,107,120.576,105,1.01996,0\N,107,1.42412,105,120.332,104,177.948,0\C,111,1.38844,107,119.54,105,91.2893,0\C,111,1.38945,107,118.731,105,-90.5601,0\C,113,1.39866,111,120.895,107,-177.192,0\C,114,1.39254,113,118.149,111,179.684,0\H,115,1.08343,114,118.952,113,-179.664,0\C,115,1.38399,114,122.65,113,0.158304,0\H,117,1.08183,115,120.386,114,-179.958,0\C,117,1.38635,115,118.645,114,0.0308472,0\H,119,1.08275,117,120.621,115,179.904,0\C,119,1.38104,117,120.18,115,-0.112623,0\H,121,1.08081,119,118.955,117,-179.953,0\C,112,1.39961,111,120.77,107,177.252,0\C,123,1.39175,112,118.202,111,-179.957,0\H,124,1.08324,123,118.841,112,179.84,0\C,124,1.38392,123,122.609,112,-0.0208902,0\H,126,1.08171,124,120.407,123,179.959,0\C,126,1.3865,124,118.618,123,-0.008338,0\H,128,1.08254,126,120.595,124,179.997,0\C,128,1.38128,126,120.243,124,0.017586,0\H,130,1.08098,128,119.036,126,-179.981,0\C,110,1.5077,108,118.542,107,-178.506,0\H,132,1.0925,110,110.284,108,-144.19,0\H,132,1.09317,110,109.398,108,-27.7555,0\C,104,1.50783,103,121.031,102,1.94401,0\H,135,1.09237,104,110.092,103,32.5086,0\H,135,1.09336,104,109.423,103,148.914,0\C,114,1.51743,113,122.586,111,0.147837,0\C,135,1.5271,104,112.439,103,-89.5633,0\H,139,1.08987,135,111.056,104,61.4072,0\H,139,1.09092,135,110.979,104,-178.742,0\H,139,1.09114,135,111.149,104,-58.6511,0\C,132,1.52739,110,112.397,108,93.7382,0\H,143,1.0898,132,111.057,110,60.9847,0\H,143,1.09096,132,111.178,110,-59.1787,0\H,143,1.09106,132,110.902,110,-179.292,0\C,138,1.53743,114,108.754,113,118.906,0\H,147,1.09045,138,110.684,114,-60.4136,0\H,147,1.09052,138,111.24,114,179.49,0\H,147,1.09058,138,111.257,114,59.6417,0\C,138,1.53801,114,108.786,113,-121.294,0\H,151,1.09037,138,111.468,114,-178.734,0\H,151,1.09044,138,111.3,114,-58.996,0\H,151,1.09047,138,110.709,114,61.0448,0\\\@

 Total job time:  63738.69s(wall), 282370.15s(cpu) 
 Thu Nov 15 04:37:39 2018

        *************************************************************
        *                                                           *
        *  Thank you very much for using Q-Chem.  Have a nice day.  *
        *                                                           *
        *************************************************************


0 sent ACK to 0 
now end server 0 ... 
