mFile = /cm/shared/apps/q-chem/intel/QCHEM_5.1.0_Trunk/bin/mpi/machines
Process 0 of 1 is on ctcp009 - thread support 0
initial socket setup ...start
initial socket setup ...done 
now start server 0 ... 
Q-Chem Developer Version!
                  Welcome to Q-Chem
     A Quantum Leap Into The Future Of Chemistry


 Q-Chem 5.1, Q-Chem, Inc., Pleasanton, CA (2018)

 Yihan Shao,  Zhengting Gan,  E. Epifanovsky,  A. T. B. Gilbert,  M. Wormit,  
 J. Kussmann,  A. W. Lange,  A. Behn,  Jia Deng,  Xintian Feng,  D. Ghosh,  
 M. Goldey,  P. R. Horn,  L. D. Jacobson,  I. Kaliman,  T. Kus,  A. Landau,  
 Jie Liu,  E. I. Proynov,  R. M. Richard,  R. P. Steele,  E. J. Sundstrom,  
 H. L. Woodcock III,  P. M. Zimmerman,  D. Zuev,  B. Albrecht,  E. Alguire,  
 S. A. Baeppler,  D. Barton,  Z. Benda,  Y. A. Bernard,  E. J. Berquist,  
 K. B. Bravaya,  H. Burton,  D. Casanova,  Chun-Min Chang,  Yunqing Chen,  
 A. Chien,  K. D. Closser,  M. P. Coons,  S. Coriani,  S. Dasgupta,  
 A. L. Dempwolff,  M. Diedenhofen,  Hainam Do,  R. G. Edgar,  Po-Tung Fang,  
 S. Faraji,  S. Fatehi,  Qingguo Feng,  K. D. Fenk,  J. Fosso-Tande,  
 Qinghui Ge,  A. Ghysels,  G. Gidofalvi,  J. Gomes,  J. Gonthier,  A. Gunina,  
 D. Hait,  M. W. D. Hanson-Heine,  P. H. P. Harbach,  A. W. Hauser,  
 J. E. Herr,  E. G. Hohenstein,  Z. C. Holden,  Kerwin Hui,  B. C. Huynh,  
 T.-C. Jagau,  Hyunjun Ji,  B. Kaduk,  K. Khistyaev,  Jaehoon Kim,  
 P. Klunzinger,  K. Koh,  D. Kosenkov,  L. Koulias,  T. Kowalczyk,  
 C. M. Krauter,  A. Kunitsa,  Ka Un Lao,  A. Laurent,  K. V. Lawler,  
 Joonho Lee,  D. Lefrancois,  S. Lehtola,  D. S. Levine,  Yi-Pei Li,  
 You-Sheng Lin,  Fenglai Liu,  E. Livshits,  A. Luenser,  P. Manohar,  
 E. Mansoor,  S. F. Manzer,  Shan-Ping Mao,  Yuezhi Mao,  N. Mardirossian,  
 A. V. Marenich,  T. Markovich,  L. A. Martinez-Martinez,  S. A. Maurer,  
 N. J. Mayhall,  S. C. McKenzie,  J.-M. Mewes,  A. F. Morrison,  
 J. W. Mullinax,  K. Nanda,  T. S. Nguyen-Beck,  R. Olivares-Amaya,  
 J. A. Parkhill,  T. M. Perrine,  F. Plasser,  P. Pokhilko,  S. Prager,  
 A. Prociuk,  E. Ramos,  D. R. Rehn,  F. Rob,  M. Schneider,  N. Sergueev,  
 S. M. Sharada,  S. Sharma,  D. W. Small,  T. Stauch,  T. Stein,  
 Yu-Chuan Su,  A. J. W. Thom,  A. Tkatchenko,  T. Tsuchimochi,  N. M. Tubman,  
 L. Vogt,  M. L. Vidal,  O. Vydrov,  M. A. Watson,  J. Wenzel,  
 M. de Wergifosse,  T. A. Wesolowski,  A. White,  J. Witte,  A. Yamada,  
 Jun Yang,  K. Yao,  S. Yeganeh,  S. R. Yost,  Zhi-Qiang You,  A. Zech,  
 Igor Ying Zhang,  Xing Zhang,  Yan Zhao,  Ying Zhu,  B. R. Brooks,  
 G. K. L. Chan,  C. J. Cramer,  M. S. Gordon,  W. J. Hehre,  A. Klamt,  
 M. W. Schmidt,  C. D. Sherrill,  D. G. Truhlar,  A. Aspuru-Guzik,  R. Baer,  
 A. T. Bell,  N. A. Besley,  Jeng-Da Chai,  A. E. DePrince, III,  
 R. A. DiStasio Jr.,  A. Dreuw,  B. D. Dunietz,  T. R. Furlani,  
 Chao-Ping Hsu,  Yousung Jung,  Jing Kong,  D. S. Lambrecht,  WanZhen Liang,  
 C. Ochsenfeld,  V. A. Rassolov,  L. V. Slipchenko,  J. E. Subotnik,  
 T. Van Voorhis,  J. M. Herbert,  A. I. Krylov,  P. M. W. Gill,  M. Head-Gordon

 Contributors to earlier versions of Q-Chem not listed above: 
 R. D. Adamson,  B. Austin,  J. Baker,  G. J. O. Beran,  K. Brandhorst,  
 S. T. Brown,  E. F. C. Byrd,  A. K. Chakraborty,  C.-L. Cheng,  
 Siu Hung Chien,  D. M. Chipman,  D. L. Crittenden,  H. Dachsel,  
 R. J. Doerksen,  A. D. Dutoi,  L. Fusti-Molnar,  W. A. Goddard III,  
 A. Golubeva-Zadorozhnaya,  S. R. Gwaltney,  G. Hawkins,  A. Heyden,  
 S. Hirata,  G. Kedziora,  F. J. Keil,  C. Kelley,  Jihan Kim,  R. A. King,  
 R. Z. Khaliullin,  P. P. Korambath,  W. Kurlancheek,  A. M. Lee,  M. S. Lee,  
 S. V. Levchenko,  Ching Yeh Lin,  D. Liotard,  R. C. Lochan,  I. Lotan,  
 P. E. Maslen,  N. Nair,  D. P. O'Neill,  D. Neuhauser,  E. Neuscamman,  
 C. M. Oana,  R. Olson,  B. Peters,  R. Peverati,  P. A. Pieniazek,  
 Y. M. Rhee,  J. Ritchie,  M. A. Rohrdanz,  E. Rosta,  N. J. Russ,  
 H. F. Schaefer III,  N. E. Schultz,  N. Shenvi,  A. C. Simmonett,  A. Sodt,  
 D. Stuck,  K. S. Thanthiriwatte,  V. Vanovschi,  Tao Wang,  A. Warshel,  
 C. F. Williams,  Q. Wu,  X. Xu,  W. Zhang

 Please cite Q-Chem as follows:
 Y. Shao et al., Mol. Phys. 113, 184-215 (2015)
 DOI: 10.1080/00268976.2014.952696

 Q-Chem 5.1.1 for Intel X86 EM64T Linux

 Parts of Q-Chem use Armadillo 8.300.2 (Tropical Shenanigans).
 http://arma.sourceforge.net/

 Q-Chem begins on Tue Nov 27 16:27:33 2018  

Host: ctcp009
0

     Scratch files written to /scratch/mewes/140566/qchem94008//
 Parallel job on  1  processors
The previous job contains 0 fragments, simply inherited here
Symmetry turned off for PCM/SM12/SMD calculation
Input Ideriv = 2
Curr. Ideriv = -1
Max.  Ideriv = 2
Input Ideriv = 2
Curr. Ideriv = 2
Max.  Ideriv = 2

Checking the input file for inconsistencies... 	...done.

--------------------------------------------------------------
User input:
--------------------------------------------------------------
$rem
threads 8
jobtype opt
method PBEh-3c
basis def2-mSVP
mem_static      1024
mem_total       8000
sym_ignore      true
unrestricted true
scf_algorithm	diis
scf_max_cycles	2500
solvent_method  pcm
geom_opt_tol_energy 25
geom_opt_tol_gradient 75
$end

$pcm
theory  iefpcm
$end

$solvent
dielectric      8.93
$end

$molecule
read uincoords.mol
$end
--------------------------------------------------------------
 Adding empirical dispersion correction 
 ----------------------------------------------------------------
 Doing -D3(BJ) with
 s6 =   1.00000
 s8 =   0.00000
 a1 =   0.48600
 a2 =   4.50000
 -D3 energy including 3body term =     -0.1507731752 hartrees
 ----------------------------------------------------------------
 Adding gCP correction 
 ----------------------------------------------------------------
 gCP energy =      0.2100884175 hartrees
 ----------------------------------------------------------------
             Standard Nuclear Orientation (Angstroms)
    I     Atom           X                Y                Z
 ----------------------------------------------------------------
    1      N       0.1593970000    -1.1728530000     0.7182300000
    2      C      -0.4299490000    -0.5017740000     1.7813450000
    3      C       0.3380760000     0.2718040000     2.6572380000
    4      C       1.8367800000     0.4455620000     2.4910700000
    5      C      -0.3118980000     0.9180430000     3.7043370000
    6      H       0.2709970000     1.5216050000     4.3895860000
    7      C      -1.6770780000     0.8261910000     3.9048890000
    8      H      -2.1453670000     1.3442860000     4.7307470000
    9      C      -2.4274190000     0.0625910000     3.0253390000
   10      H      -3.4987840000    -0.0275680000     3.1509960000
   11      C      -1.8149620000    -0.5921790000     1.9765590000
   12      H      -2.4164470000    -1.1808690000     1.2990380000
   13      C       1.5284100000    -1.1241410000     0.4929560000
   14      C       2.0836300000    -1.8439730000    -0.5730220000
   15      H       1.4459530000    -2.4394910000    -1.2103950000
   16      C       3.4393650000    -1.8020860000    -0.8261660000
   17      H       3.8382750000    -2.3669550000    -1.6588210000
   18      C       4.2763940000    -1.0433340000    -0.0241030000
   19      H       5.3401010000    -0.9992180000    -0.2144870000
   20      C       3.7242330000    -0.3397240000     1.0304380000
   21      H       4.3800930000     0.2533170000     1.6561640000
   22      C       2.3628270000    -0.3617930000     1.3161900000
   23      C      -0.6584000000    -1.9382520000    -0.1607810000
   24      C      -0.9887580000    -3.2441550000     0.1551850000
   25      H      -0.6258690000    -3.6728090000     1.0829420000
   26      C      -1.7864340000    -3.9992120000    -0.6986780000
   27      C      -1.1227260000    -1.3805840000    -1.3392870000
   28      H      -0.8592650000    -0.3567110000    -1.5805480000
   29      C      -1.9099280000    -2.1235110000    -2.2124960000
   30      C      -2.2567720000    -3.4481930000    -1.9003430000
   31      C      -2.3281040000    -1.4941170000    -3.5170700000
   32      H      -2.3842120000    -0.4091570000    -3.3951290000
   33      H      -3.3332340000    -1.8209090000    -3.7913580000
   34      C      -1.3627900000    -1.8258210000    -4.6533070000
   35      C      -2.1774100000    -5.3926810000    -0.2779300000
   36      H      -1.3847610000    -5.8216370000     0.3410050000
   37      H      -2.2658610000    -6.0411080000    -1.1522080000
   38      C      -3.4913020000    -5.4112050000     0.4997160000
   39      H      -4.3145520000    -5.0418740000    -0.1114800000
   40      H      -3.7424600000    -6.4236440000     0.8191110000
   41      H      -3.4290830000    -4.7841590000     1.3901850000
   42      B      -3.1763290000    -4.2853930000    -2.8850710000
   43      C      -4.6984080000    -4.0511420000    -2.8909300000
   44      C      -5.2919760000    -3.1462800000    -1.9892560000
   45      H      -4.6600990000    -2.6139580000    -1.2859780000
   46      C      -6.6519060000    -2.9342620000    -1.9897260000
   47      C      -7.4737830000    -3.6364490000    -2.9191020000
   48      C      -6.9161440000    -4.5160440000    -3.8108200000
   49      H      -7.5545380000    -5.0379240000    -4.5169660000
   50      C      -5.5297870000    -4.7513470000    -3.8215770000
   51      C      -7.5249920000    -2.0853280000    -1.1813960000
   52      C      -7.3523350000    -1.1956420000    -0.1498280000
   53      H      -6.3726130000    -0.9768310000     0.2557730000
   54      C      -8.8386620000    -2.3070950000    -1.6474280000
   55      C      -9.9777620000    -1.6912400000    -1.1342790000
   56      C      -8.8582130000    -3.2397910000    -2.7028450000
   57      C     -10.0672530000    -3.5674510000    -3.2675460000
   58      H     -10.1398860000    -4.2779500000    -4.0823580000
   59      C      -8.4900820000    -0.5534680000     0.3900210000
   60      H      -8.3469640000     0.1468710000     1.2030240000
   61      C      -9.7660800000    -0.7811820000    -0.0718550000
   62      H     -10.6058490000    -0.2647670000     0.3768450000
   63      C     -11.2103180000    -2.0478430000    -1.7337190000
   64      H     -12.1333090000    -1.6050060000    -1.3795090000
   65      C     -11.2372630000    -2.9572880000    -2.7662460000
   66      H     -12.1905570000    -3.2156520000    -3.2108770000
   67      C      -2.5703900000    -5.3181300000    -3.8542950000
   68      C      -1.1892770000    -5.5971600000    -3.8441140000
   69      H      -0.5499530000    -5.0622610000    -3.1493930000
   70      C      -0.6487220000    -6.5397110000    -4.6902010000
   71      C      -1.4960550000    -7.2355050000    -5.6009820000
   72      C      -2.8400810000    -6.9653080000    -5.6428440000
   73      H      -3.4731190000    -7.4986700000    -6.3454020000
   74      C      -3.4126330000    -6.0152920000    -4.7788160000
   75      C       0.7083850000    -7.0506450000    -4.8727440000
   76      C       1.9343840000    -6.8064680000    -4.3058250000
   77      H       2.0643050000    -6.0683460000    -3.5245540000
   78      C       0.6312500000    -8.0363310000    -5.8801300000
   79      C       1.7086140000    -8.7869540000    -6.3418850000
   80      C      -0.6878500000    -8.1833510000    -6.3521260000
   81      C      -0.9399410000    -9.1181950000    -7.3260130000
   82      H      -1.9375260000    -9.2775170000    -7.7174890000
   83      C       3.0486100000    -7.5492500000    -4.7580640000
   84      H       4.0130390000    -7.3533690000    -4.3070440000
   85      C       2.9586780000    -8.5096450000    -5.7395650000
   86      H       3.8430230000    -9.0541010000    -6.0469980000
   87      C       1.4225590000    -9.7411890000    -7.3486960000
   88      H       2.2165010000   -10.3587840000    -7.7505590000
   89      C       0.1359520000    -9.8902120000    -7.8144550000
   90      H      -0.0605770000   -10.6297310000    -8.5809170000
   91      B      -4.9127990000    -5.7338100000    -4.8142130000
   92      C      -5.8391260000    -6.4372380000    -5.9076030000
   93      C      -6.1929170000    -5.7406540000    -7.0755330000
   94      C      -7.0288290000    -6.3272490000    -8.0202250000
   95      H      -7.3156180000    -5.7835030000    -8.9136410000
   96      C      -7.4960720000    -7.6068940000    -7.8046100000
   97      C      -7.1561310000    -8.3242740000    -6.6776710000
   98      H      -7.5416260000    -9.3274470000    -6.5312440000
   99      C      -6.3286480000    -7.7392730000    -5.7233100000
  100      N      -8.4006630000    -8.1927380000    -8.7655840000
  101      C      -9.7453240000    -8.0288710000    -8.5663560000
  102      C     -10.6742820000    -8.5684030000    -9.4810950000
  103      C     -10.2472210000    -9.3391230000   -10.7054070000
  104      C     -12.0211770000    -8.3651130000    -9.2310290000
  105      H     -12.7564600000    -8.7647280000    -9.9160200000
  106      C     -12.4612230000    -7.6590830000    -8.1243060000
  107      H     -13.5205620000    -7.5192590000    -7.9620290000
  108      C     -11.5366690000    -7.1297520000    -7.2262030000
  109      H     -11.8704920000    -6.5772750000    -6.3602510000
  110      C     -10.1944660000    -7.3068870000    -7.4393320000
  111      H      -9.4812200000    -6.8932920000    -6.7441960000
  112      C      -7.8866620000    -8.8818060000    -9.8317020000
  113      C      -8.7460050000    -9.4552960000   -10.7937600000
  114      C      -8.1684600000   -10.1393460000   -11.8500240000
  115      H      -8.8011270000   -10.5872210000   -12.6044630000
  116      C      -6.7952690000   -10.2690620000   -11.9734090000
  117      H      -6.3799510000   -10.8102640000   -12.8117130000
  118      C      -5.9547160000    -9.7024520000   -11.0172040000
  119      H      -4.8827190000    -9.8000280000   -11.1058460000
  120      C      -6.4871000000    -9.0161950000    -9.9569140000
  121      H      -5.8367950000    -8.5769270000    -9.2169510000
  122      C      -6.0413920000    -8.5161380000    -4.4673660000
  123      H      -5.9406350000    -9.5783200000    -4.7072540000
  124      H      -5.0860430000    -8.2030850000    -4.0464460000
  125      C      -7.1450350000    -8.3271950000    -3.4286860000
  126      C      -5.6498280000    -4.3690500000    -7.3704360000
  127      H      -6.3890420000    -3.7958510000    -7.9367710000
  128      H      -5.4857330000    -3.8255720000    -6.4399610000
  129      C      -4.3449210000    -4.4431510000    -8.1597850000
  130      H      -3.5817030000    -4.9812910000    -7.5993600000
  131      H      -4.4849540000    -4.9529980000    -9.1148810000
  132      H      -3.9613960000    -3.4444290000    -8.3675620000
  133      H      -7.2352890000    -7.2797260000    -3.1429130000
  134      H      -6.9301240000    -8.8994760000    -2.5264080000
  135      H      -8.1129760000    -8.6578920000    -3.8104320000
  136      H      -1.6736590000    -1.3457730000    -5.5825350000
  137      H      -1.3215890000    -2.8999620000    -4.8323480000
  138      H      -0.3520690000    -1.4870170000    -4.4222990000
  139      C     -10.7649640000    -8.6074500000   -11.9618680000
  140      C     -10.8573360000   -10.7553070000   -10.6430950000
  141      C       2.5380000000    -0.0235590000     3.7762030000
  142      C       2.1327950000     1.9341400000     2.2429820000
  143      H       1.6408060000     2.2760860000     1.3324880000
  144      H       3.2029650000     2.1143370000     2.1346740000
  145      H       1.7763300000     2.5517550000     3.0682610000
  146      H       2.3231830000    -1.0746480000     3.9683760000
  147      H       2.2074220000     0.5506980000     4.6423120000
  148      H       3.6200820000     0.0901170000     3.7054520000
  149      H     -10.3480410000    -7.6039750000   -12.0365940000
  150      H     -11.8506760000    -8.5214090000   -11.9430850000
  151      H     -10.4985230000    -9.1519040000   -12.8669420000
  152      H     -10.5112140000   -11.2975270000    -9.7643020000
  153      H     -10.5895800000   -11.3356280000   -11.5250220000
  154      H     -11.9447890000   -10.7095090000   -10.6048480000
 ----------------------------------------------------------------
 Nuclear Repulsion Energy = 13748.0058826392 hartrees
 There are      293 alpha and      291 beta electrons
 Requested basis set is def2-mSVP
 There are 738 shells and 1426 basis functions

 Total QAlloc Memory Limit   8000 MB
 Mega-Array Size      1001 MB
 MEM_STATIC part      1024 MB
 Discretize the solute cavity surface with Lebedev spheres
	Using 302 Lebedev grid points for each H atom
	Using 302 Lebedev grid points for other atoms
	Atomic van der Waals radii will be scaled by 1.20
 Remove points where switching function is < 1.0e-08
 Keep 15671 surface tesserae and discard 30837 interior tesserae
 Molecular Surface Area = 1137.235 Angst**2
 A cutoff of  1.0D-11 yielded  70187 shell pairs
 There are    271673 function pairs (    298758 Cartesian)
 
 -------------------------------------------------------
 OpenMP Integral Computing Module                       
 Release: version 1.0, May 2013, Q-Chem Inc. Pittsburgh 
 -------------------------------------------------------
 Integral Job Info:
 Integral job number is                      11
 Integral operator is                         1
 short-range coefficients                     0
 long-range coefficients              100000000
 Omega coefficients                           0
 if combine SR and LR in K                    0
 Integral screening is                        0
 Integral computing path is                   2
 max size of driver memory is            800000
 size of driver memory is                593474
 size of scratch memory is              1809772
 max col of scratch BK array               1296
 max len of scratch array in speh3          155
 max len of scratch index in speh4           18
 max int batch size is                      520
 min int batch size is                       52
 fixed nKL is                                52
 max L of basis functions is                  2
 order of int derivative is                   0
 number of shells is                        738
 number of basis is                        1512
 number of cartesian basis is              1512
 number of contracted shell pairs         70187
 number of primitive shell pairs         144860
 maxK2 (contraction) of shell pair           25
 max number of K2 of shell pair               1
 max number of CS2 of shell pair          17350
 max number of PS2 of shell pair          25530
 mem total for path MDJ                 1196540
 -------------------------------------------------------
 Smallest overlap matrix eigenvalue = 1.94E-04

 Scale SEOQF with 1.000000e-02/1.000000e-02/1.000000e-02

 Standard Electronic Orientation quadrupole field applied
 Nucleus-field energy     =     0.0000000191 hartrees
 Guess from superposition of atomic densities
 Warning:  Energy on first SCF cycle will be non-variational
 SAD guess density has 584.000001 electrons

 -----------------------------------------------------------------------
  General SCF calculation program by
  Eric Jon Sundstrom, Paul Horn, Yuezhi Mao, Dmitri Zuev, Alec White,
  David Stuck, Shaama M.S., Shane Yost, Joonho Lee, David Small,
  Daniel Levine, Susi Lehtola, Hugh Burton, Evgeny Epifanovsky
 -----------------------------------------------------------------------
 Exchange:     0.4200 Hartree-Fock + 0.5800 PBEh-3c
 Correlation:  1.0000 PBEh-3c
 Using SG-1 standard quadrature grid
 Dispersion:   Grimme D3
 using 8 threads for integral computing
 -------------------------------------------------------
 OpenMP Integral computing Module                
 Release: version 2.0, May 2017, Q-Chem Inc. Pleasanton 
 -------------------------------------------------------
 -------------------------------------------------------
 OpenMP BLAS3 based DFT computing Module                
 Release: version 1.0, May 2013, Q-Chem Inc. Pittsburgh 
 -------------------------------------------------------
 A unrestricted SCF calculation will be
 performed using DIIS
 SCF converges when DIIS error is below 1.0e-08
 ---------------------------------------
  Cycle       Energy         DIIS error
 ---------------------------------------
 Using non-symmetric K matrix
    1   -3346.4002724704      1.13e-02  
    2   -3316.9999672856      7.98e-04  
    3   -3316.9029148300      8.67e-04  
    4   -3317.6178176063      3.43e-04  
    5   -3317.7523963623      5.86e-05  
    6   -3317.7557076752      4.03e-05  
    7   -3317.7575925313      1.19e-05  
    8   -3317.7579034528      7.14e-06  
    9   -3317.7581267448      4.10e-06  
   10   -3317.7582252331      2.75e-06  
   11   -3317.7582808421      1.44e-06  
   12   -3317.7583004975      8.61e-07  
   13   -3317.7583065304      4.64e-07  
   14   -3317.7583081635      2.62e-07  
   15   -3317.7583085736      1.75e-07  
   16   -3317.7583088429      1.16e-07  
   17   -3317.7583090062      8.84e-08  
   18   -3317.7583091142      5.58e-08  
   19   -3317.7583091435      3.12e-08  
   20   -3317.7583091528      1.34e-08  
   21   -3317.7583091538      7.13e-09  Convergence criterion met
 ---------------------------------------
 SCF time:   CPU 52088.27s  wall 7157.00s 
<S^2> =          2.093833627

************** Final PCM Free Energy Summary **************
 G_electrostatic  =      -0.07122894 hartree =     -44.69683623 kcal/mol
 G_cavitation     =       0.00000000 hartree =       0.00000000 kcal/mol
 G_dispersion     =       0.00000000 hartree =       0.00000000 kcal/mol
 G_repulsion      =       0.00000000 hartree =       0.00000000 kcal/mol
 --------------------------------------------------
 Non-electrostatic Free Energy =       0.00000000 hartree =       0.00000000 kcal/mol
 Total                         =      -0.07122894 hartree =     -44.69683623 kcal/mol
 --------------------------------------------------
 SCF Energy (H0 + V/2)                       =   -3317.75830915 
 Solute Internal Energy (H0)                 =   -3317.68708021 
 Total Free Energy (H0 + V/2 + non-elec)     =   -3317.75830915 hartree
                                             = -2081924.76148293 kcal/mol
***********************************************************

 SCF   energy in the final basis set =    -3317.7583091538
 Total energy in the final basis set =    -3317.7583091538
 
 --------------------------------------------------------------
 
                    Orbital Energies (a.u.)
 --------------------------------------------------------------
 
 Alpha MOs
 -- Occupied --
-14.783 -14.673 -10.541 -10.541 -10.507 -10.504 -10.504 -10.502
-10.490 -10.490 -10.486 -10.486 -10.484 -10.484 -10.476 -10.475
-10.475 -10.475 -10.475 -10.465 -10.460 -10.460 -10.458 -10.458
-10.456 -10.455 -10.452 -10.451 -10.451 -10.451 -10.451 -10.450
-10.450 -10.450 -10.450 -10.450 -10.449 -10.449 -10.449 -10.449
-10.449 -10.449 -10.448 -10.448 -10.447 -10.447 -10.443 -10.443
-10.442 -10.442 -10.441 -10.441 -10.441 -10.441 -10.440 -10.440
-10.438 -10.438 -10.437 -10.437 -10.435 -10.435 -10.435 -10.435
-10.434 -10.434 -10.433 -10.433 -10.433 -10.433 -10.432 -10.425
-10.425 -10.421 -10.421 -10.420 -10.419 -10.416 -10.413 -10.413
-10.409 -10.409 -10.408 -10.408  -6.902  -6.902  -1.168  -1.085
 -1.008  -1.004  -1.003  -1.003  -0.972  -0.966  -0.957  -0.947
 -0.946  -0.944  -0.943  -0.923  -0.923  -0.907  -0.898  -0.896
 -0.893  -0.886  -0.883  -0.881  -0.878  -0.860  -0.855  -0.848
 -0.840  -0.839  -0.839  -0.837  -0.836  -0.833  -0.815  -0.815
 -0.813  -0.812  -0.805  -0.799  -0.798  -0.796  -0.791  -0.787
 -0.782  -0.765  -0.760  -0.759  -0.725  -0.723  -0.721  -0.718
 -0.715  -0.715  -0.708  -0.707  -0.706  -0.704  -0.703  -0.699
 -0.682  -0.676  -0.670  -0.667  -0.666  -0.660  -0.659  -0.653
 -0.650  -0.641  -0.634  -0.630  -0.630  -0.624  -0.613  -0.612
 -0.612  -0.585  -0.583  -0.581  -0.580  -0.579  -0.578  -0.576
 -0.570  -0.569  -0.562  -0.561  -0.561  -0.559  -0.549  -0.541
 -0.538  -0.537  -0.533  -0.533  -0.529  -0.527  -0.522  -0.521
 -0.517  -0.516  -0.514  -0.513  -0.509  -0.505  -0.501  -0.499
 -0.496  -0.495  -0.494  -0.494  -0.492  -0.488  -0.484  -0.483
 -0.483  -0.481  -0.478  -0.477  -0.476  -0.476  -0.476  -0.475
 -0.475  -0.475  -0.471  -0.469  -0.468  -0.467  -0.465  -0.465
 -0.461  -0.457  -0.457  -0.451  -0.451  -0.449  -0.449  -0.445
 -0.443  -0.441  -0.441  -0.435  -0.434  -0.434  -0.430  -0.428
 -0.426  -0.425  -0.423  -0.421  -0.420  -0.417  -0.416  -0.415
 -0.414  -0.414  -0.411  -0.410  -0.403  -0.403  -0.400  -0.398
 -0.394  -0.394  -0.391  -0.388  -0.388  -0.388  -0.386  -0.384
 -0.384  -0.382  -0.382  -0.377  -0.375  -0.373  -0.370  -0.369
 -0.362  -0.362  -0.357  -0.354  -0.344  -0.341  -0.336  -0.331
 -0.329  -0.323  -0.320  -0.310  -0.304  -0.297  -0.291  -0.290
 -0.289  -0.288  -0.288  -0.284  -0.283  -0.274  -0.271  -0.268
 -0.255  -0.245  -0.242  -0.220  -0.150
 -- Virtual --
 -0.059  -0.033  -0.030  -0.027  -0.024  -0.014   0.003   0.004
  0.011   0.013   0.014   0.014   0.014   0.021   0.023   0.029
  0.040   0.050   0.062   0.079   0.093   0.099   0.100   0.111
  0.124   0.128   0.131   0.135   0.137   0.140   0.149   0.151
  0.155   0.155   0.157   0.157   0.160   0.160   0.163   0.164
  0.170   0.172   0.173   0.175   0.176   0.176   0.178   0.180
  0.183   0.186   0.187   0.191   0.193   0.195   0.196   0.199
  0.200   0.200   0.200   0.203   0.205   0.208   0.208   0.209
  0.210   0.211   0.211   0.212   0.213   0.214   0.216   0.217
  0.221   0.222   0.223   0.225   0.226   0.227   0.227   0.229
  0.230   0.231   0.231   0.234   0.235   0.236   0.238   0.238
  0.239   0.242   0.242   0.245   0.246   0.247   0.247   0.247
  0.250   0.252   0.253   0.255   0.257   0.258   0.260   0.261
  0.262   0.268   0.269   0.270   0.272   0.272   0.275   0.277
  0.279   0.279   0.280   0.282   0.285   0.285   0.285   0.288
  0.290   0.291   0.292   0.295   0.297   0.298   0.299   0.301
  0.304   0.307   0.310   0.313   0.313   0.315   0.317   0.320
  0.320   0.321   0.322   0.324   0.326   0.335   0.337   0.344
  0.346   0.346   0.347   0.354   0.355   0.358   0.359   0.361
  0.365   0.367   0.370   0.377   0.379   0.380   0.382   0.384
  0.392   0.394   0.397   0.401   0.407   0.410   0.413   0.413
  0.421   0.425   0.427   0.433   0.436   0.442   0.446   0.446
  0.449   0.450   0.452   0.457   0.460   0.464   0.469   0.471
  0.472   0.478   0.479   0.480   0.483   0.484   0.487   0.491
  0.493   0.494   0.498   0.500   0.501   0.503   0.504   0.505
  0.507   0.508   0.512   0.514   0.516   0.518   0.521   0.521
  0.523   0.526   0.527   0.532   0.533   0.534   0.535   0.536
  0.538   0.538   0.543   0.544   0.547   0.548   0.549   0.550
  0.551   0.552   0.555   0.556   0.558   0.561   0.561   0.563
  0.564   0.566   0.568   0.569   0.569   0.572   0.573   0.574
  0.577   0.578   0.579   0.583   0.587   0.591   0.592   0.592
  0.593   0.593   0.594   0.596   0.597   0.597   0.598   0.599
  0.599   0.600   0.601   0.602   0.607   0.608   0.609   0.610
  0.611   0.611   0.612   0.613   0.616   0.618   0.620   0.622
  0.624   0.626   0.627   0.628   0.629   0.629   0.631   0.632
  0.632   0.634   0.635   0.636   0.637   0.637   0.639   0.643
  0.644   0.649   0.650   0.651   0.652   0.653   0.658   0.659
  0.661   0.662   0.663   0.666   0.667   0.668   0.672   0.673
  0.675   0.677   0.679   0.680   0.681   0.686   0.689   0.692
  0.697   0.698   0.701   0.702   0.707   0.709   0.712   0.714
  0.717   0.718   0.721   0.723   0.725   0.727   0.727   0.732
  0.735   0.740   0.743   0.746   0.746   0.748   0.750   0.754
  0.755   0.756   0.759   0.760   0.765   0.768   0.769   0.772
  0.774   0.775   0.776   0.779   0.780   0.782   0.782   0.785
  0.788   0.790   0.793   0.798   0.799   0.801   0.804   0.807
  0.808   0.809   0.813   0.813   0.815   0.818   0.823   0.825
  0.829   0.831   0.833   0.837   0.840   0.845   0.848   0.850
  0.855   0.858   0.865   0.867   0.870   0.872   0.874   0.877
  0.878   0.888   0.889   0.894   0.897   0.900   0.905   0.909
  0.911   0.913   0.917   0.920   0.923   0.927   0.929   0.930
  0.933   0.936   0.937   0.946   0.948   0.953   0.955   0.957
  0.958   0.961   0.964   0.965   0.966   0.971   0.973   0.976
  0.977   0.978   0.980   0.981   0.985   0.987   0.990   0.991
  0.995   0.996   0.999   0.999   1.000   1.002   1.004   1.006
  1.008   1.009   1.011   1.012   1.015   1.017   1.019   1.019
  1.024   1.028   1.030   1.030   1.032   1.036   1.037   1.039
  1.041   1.041   1.043   1.045   1.048   1.050   1.051   1.051
  1.053   1.054   1.055   1.057   1.058   1.059   1.059   1.060
  1.062   1.068   1.072   1.072   1.074   1.078   1.078   1.079
  1.081   1.085   1.085   1.088   1.090   1.091   1.093   1.097
  1.099   1.100   1.101   1.104   1.106   1.109   1.110   1.112
  1.117   1.118   1.123   1.125   1.133   1.134   1.135   1.137
  1.139   1.141   1.142   1.144   1.147   1.150   1.150   1.153
  1.154   1.159   1.160   1.162   1.165   1.169   1.172   1.173
  1.177   1.181   1.183   1.184   1.186   1.188   1.192   1.204
  1.204   1.213   1.215   1.224   1.226   1.228   1.230   1.231
  1.232   1.239   1.245   1.251   1.254   1.255   1.264   1.265
  1.268   1.270   1.273   1.274   1.280   1.282   1.286   1.291
  1.292   1.295   1.296   1.300   1.302   1.304   1.307   1.309
  1.310   1.312   1.313   1.316   1.320   1.324   1.330   1.331
  1.334   1.335   1.339   1.340   1.343   1.349   1.351   1.352
  1.358   1.366   1.367   1.369   1.371   1.373   1.376   1.378
  1.381   1.382   1.388   1.390   1.391   1.394   1.396   1.405
  1.406   1.409   1.417   1.418   1.420   1.427   1.431   1.435
  1.437   1.445   1.449   1.450   1.451   1.453   1.456   1.457
  1.458   1.463   1.466   1.469   1.471   1.480   1.485   1.492
  1.498   1.500   1.503   1.504   1.505   1.506   1.508   1.522
  1.522   1.523   1.524   1.527   1.528   1.531   1.534   1.534
  1.538   1.540   1.542   1.542   1.543   1.545   1.548   1.551
  1.554   1.555   1.558   1.560   1.563   1.566   1.569   1.570
  1.575   1.577   1.583   1.586   1.588   1.592   1.594   1.599
  1.602   1.603   1.609   1.617   1.625   1.625   1.628   1.631
  1.634   1.636   1.645   1.653   1.655   1.665   1.669   1.671
  1.676   1.679   1.683   1.689   1.702   1.706   1.712   1.713
  1.720   1.723   1.731   1.743   1.744   1.753   1.761   1.761
  1.762   1.766   1.769   1.773   1.779   1.787   1.788   1.792
  1.799   1.804   1.805   1.808   1.810   1.813   1.820   1.821
  1.821   1.824   1.826   1.830   1.832   1.834   1.836   1.836
  1.840   1.851   1.856   1.860   1.864   1.871   1.881   1.882
  1.883   1.886   1.890   1.893   1.898   1.899   1.904   1.907
  1.915   1.919   1.920   1.921   1.925   1.928   1.931   1.932
  1.938   1.941   1.943   1.945   1.951   1.952   1.954   1.956
  1.965   1.968   1.971   1.978   1.983   1.985   1.989   1.992
  1.993   1.994   1.994   2.000   2.003   2.004   2.005   2.007
  2.014   2.018   2.025   2.033   2.041   2.045   2.046   2.050
  2.053   2.058   2.063   2.065   2.069   2.069   2.073   2.075
  2.081   2.081   2.086   2.091   2.095   2.100   2.102   2.103
  2.105   2.106   2.111   2.115   2.121   2.122   2.123   2.129
  2.135   2.136   2.141   2.146   2.148   2.151   2.151   2.152
  2.156   2.164   2.168   2.169   2.172   2.173   2.175   2.176
  2.179   2.184   2.189   2.194   2.197   2.204   2.214   2.214
  2.215   2.215   2.221   2.221   2.223   2.224   2.233   2.237
  2.241   2.243   2.244   2.252   2.254   2.257   2.260   2.261
  2.263   2.272   2.276   2.277   2.281   2.284   2.284   2.286
  2.287   2.290   2.291   2.297   2.300   2.302   2.307   2.308
  2.311   2.317   2.320   2.320   2.324   2.326   2.330   2.331
  2.332   2.333   2.336   2.340   2.343   2.346   2.347   2.348
  2.350   2.351   2.357   2.360   2.361   2.364   2.367   2.369
  2.370   2.371   2.373   2.376   2.377   2.378   2.386   2.388
  2.389   2.392   2.399   2.400   2.402   2.403   2.407   2.412
  2.417   2.418   2.419   2.421   2.423   2.427   2.434   2.435
  2.440   2.443   2.446   2.450   2.450   2.460   2.463   2.471
  2.479   2.482   2.486   2.489   2.499   2.501   2.503   2.505
  2.509   2.513   2.514   2.517   2.520   2.527   2.535   2.537
  2.544   2.556   2.564   2.565   2.574   2.577   2.587   2.592
  2.595   2.598   2.614   2.616   2.625   2.630   2.641   2.645
  2.654   2.655   2.656   2.660   2.667   2.678   2.683   2.685
  2.689   2.690   2.694   2.699   2.700   2.703   2.705   2.709
  2.721   2.724   2.728   2.729   2.733   2.736   2.740   2.744
  2.748   2.754   2.755   2.763   2.764   2.764   2.771   2.773
  2.774   2.779   2.781   2.789   2.794   2.796   2.798   2.799
  2.800   2.801   2.801   2.802   2.807   2.813   2.816   2.818
  2.821   2.822   2.824   2.825   2.835   2.836   2.837   2.847
  2.851   2.862   2.868   2.870   2.878   2.881   2.882   2.886
  2.892   2.893   2.905   2.915   2.921   2.930   2.933   2.942
  2.948   2.956   2.961   2.969   2.972   2.973   2.974   2.993
  2.995   3.008   3.009   3.014   3.019   3.020   3.036   3.040
  3.055   3.075   3.083   3.089   3.092   3.099   3.126   3.150
  3.160   3.204   3.215   3.247   3.260   3.271   3.273   3.376
  3.414   3.420   3.461   3.462   3.488   3.503   3.504   3.511
  3.522   3.524   3.551   3.575   3.584   3.679   3.692   9.634
  9.793  13.156  13.190  13.210  13.251  13.301  13.340  13.472
 13.513  13.522  13.536  13.556  13.565  13.613  13.651  13.670
 13.671  13.689  13.698  13.712  13.738  13.742  13.745  13.776
 13.779  13.786  13.805  13.814  13.816  13.848  13.864  13.872
 13.875  13.875  13.885  13.906  13.940  13.941  14.021  14.029
 14.040  14.043  14.049  14.050  14.052  14.058  14.060  14.128
 14.146  14.167  14.172  14.174  14.175  14.177  14.187  14.204
 14.207  14.219  14.226  14.228  14.244  14.263  14.273  14.295
 14.298  14.300  14.315  14.329  14.334  14.359  14.360  14.523
 14.527  14.541  14.557  14.579  14.589  14.591  14.592  14.596
 14.606  14.610  14.629  19.547  19.650
 
 Beta MOs
 -- Occupied --
-14.771 -14.673 -10.543 -10.542 -10.507 -10.502 -10.501 -10.500
-10.490 -10.490 -10.483 -10.483 -10.480 -10.480 -10.478 -10.477
-10.477 -10.476 -10.475 -10.465 -10.460 -10.460 -10.458 -10.458
-10.456 -10.456 -10.452 -10.452 -10.452 -10.451 -10.451 -10.450
-10.450 -10.450 -10.449 -10.449 -10.449 -10.449 -10.449 -10.449
-10.448 -10.448 -10.448 -10.448 -10.446 -10.446 -10.443 -10.443
-10.441 -10.441 -10.441 -10.441 -10.441 -10.441 -10.440 -10.439
-10.438 -10.438 -10.437 -10.437 -10.436 -10.435 -10.435 -10.435
-10.434 -10.434 -10.433 -10.433 -10.433 -10.433 -10.432 -10.425
-10.425 -10.421 -10.421 -10.420 -10.419 -10.417 -10.413 -10.413
-10.409 -10.408 -10.408 -10.408  -6.900  -6.899  -1.150  -1.085
 -1.003  -1.003  -1.003  -1.000  -0.970  -0.966  -0.957  -0.945
 -0.944  -0.942  -0.942  -0.922  -0.922  -0.907  -0.896  -0.895
 -0.892  -0.884  -0.883  -0.881  -0.875  -0.860  -0.852  -0.848
 -0.839  -0.838  -0.835  -0.835  -0.835  -0.833  -0.815  -0.813
 -0.811  -0.811  -0.802  -0.798  -0.797  -0.796  -0.788  -0.785
 -0.782  -0.765  -0.757  -0.754  -0.723  -0.721  -0.720  -0.717
 -0.714  -0.713  -0.706  -0.706  -0.705  -0.704  -0.703  -0.698
 -0.682  -0.676  -0.668  -0.667  -0.665  -0.658  -0.656  -0.650
 -0.648  -0.638  -0.634  -0.630  -0.629  -0.624  -0.613  -0.612
 -0.610  -0.583  -0.580  -0.579  -0.579  -0.575  -0.574  -0.570
 -0.568  -0.567  -0.561  -0.560  -0.560  -0.558  -0.548  -0.540
 -0.537  -0.533  -0.532  -0.528  -0.527  -0.524  -0.521  -0.521
 -0.517  -0.515  -0.514  -0.512  -0.508  -0.504  -0.500  -0.497
 -0.495  -0.494  -0.494  -0.492  -0.487  -0.484  -0.484  -0.483
 -0.483  -0.478  -0.477  -0.476  -0.476  -0.475  -0.474  -0.474
 -0.474  -0.474  -0.470  -0.468  -0.466  -0.465  -0.465  -0.465
 -0.461  -0.456  -0.455  -0.451  -0.450  -0.449  -0.445  -0.442
 -0.441  -0.441  -0.441  -0.434  -0.433  -0.433  -0.428  -0.426
 -0.425  -0.423  -0.419  -0.419  -0.418  -0.414  -0.414  -0.414
 -0.412  -0.410  -0.409  -0.403  -0.402  -0.401  -0.399  -0.397
 -0.393  -0.393  -0.390  -0.386  -0.386  -0.385  -0.385  -0.384
 -0.383  -0.382  -0.381  -0.376  -0.374  -0.372  -0.370  -0.369
 -0.362  -0.359  -0.355  -0.349  -0.342  -0.335  -0.327  -0.327
 -0.319  -0.317  -0.316  -0.304  -0.300  -0.297  -0.289  -0.288
 -0.287  -0.286  -0.286  -0.283  -0.270  -0.269  -0.262  -0.248
 -0.243  -0.235  -0.220
 -- Virtual --
 -0.158  -0.068  -0.046  -0.021  -0.018  -0.014  -0.013  -0.008
  0.003   0.007   0.011   0.013   0.015   0.017   0.021   0.023
  0.030   0.037   0.040   0.062   0.062   0.085   0.094   0.106
  0.111   0.113   0.127   0.128   0.136   0.136   0.137   0.143
  0.150   0.151   0.155   0.157   0.160   0.161   0.161   0.164
  0.165   0.167   0.170   0.172   0.174   0.176   0.177   0.178
  0.179   0.184   0.185   0.187   0.188   0.192   0.193   0.196
  0.197   0.199   0.200   0.201   0.201   0.205   0.206   0.209
  0.209   0.211   0.211   0.211   0.212   0.212   0.214   0.215
  0.217   0.219   0.221   0.223   0.224   0.226   0.226   0.227
  0.228   0.229   0.231   0.232   0.232   0.234   0.236   0.237
  0.239   0.239   0.240   0.242   0.243   0.245   0.246   0.248
  0.248   0.251   0.253   0.253   0.254   0.255   0.259   0.261
  0.261   0.262   0.263   0.269   0.270   0.271   0.273   0.273
  0.277   0.278   0.280   0.281   0.281   0.282   0.286   0.286
  0.287   0.290   0.291   0.293   0.294   0.295   0.298   0.299
  0.299   0.302   0.305   0.310   0.311   0.313   0.314   0.315
  0.317   0.320   0.321   0.322   0.322   0.326   0.329   0.335
  0.341   0.345   0.346   0.347   0.349   0.354   0.357   0.359
  0.360   0.363   0.366   0.368   0.370   0.377   0.379   0.383
  0.385   0.386   0.393   0.397   0.398   0.405   0.409   0.412
  0.414   0.415   0.422   0.426   0.429   0.435   0.437   0.444
  0.446   0.447   0.449   0.453   0.454   0.459   0.462   0.466
  0.470   0.473   0.475   0.479   0.480   0.482   0.484   0.486
  0.488   0.493   0.494   0.495   0.499   0.501   0.503   0.505
  0.506   0.506   0.508   0.511   0.514   0.515   0.516   0.521
  0.521   0.523   0.525   0.528   0.533   0.534   0.534   0.535
  0.536   0.538   0.539   0.539   0.544   0.545   0.548   0.549
  0.551   0.551   0.552   0.554   0.556   0.557   0.559   0.563
  0.564   0.565   0.567   0.568   0.569   0.570   0.571   0.574
  0.574   0.576   0.578   0.580   0.580   0.583   0.589   0.590
  0.592   0.594   0.595   0.595   0.596   0.597   0.598   0.599
  0.600   0.600   0.601   0.602   0.602   0.604   0.608   0.609
  0.611   0.611   0.612   0.612   0.613   0.615   0.616   0.619
  0.622   0.623   0.626   0.627   0.627   0.629   0.630   0.630
  0.633   0.634   0.634   0.635   0.636   0.637   0.637   0.638
  0.640   0.644   0.646   0.649   0.651   0.652   0.653   0.654
  0.660   0.660   0.661   0.663   0.664   0.666   0.668   0.669
  0.673   0.674   0.676   0.679   0.680   0.681   0.682   0.688
  0.690   0.693   0.698   0.699   0.702   0.703   0.707   0.709
  0.713   0.714   0.718   0.718   0.722   0.725   0.727   0.728
  0.732   0.734   0.737   0.742   0.744   0.747   0.748   0.749
  0.751   0.755   0.756   0.757   0.760   0.760   0.766   0.769
  0.769   0.773   0.775   0.776   0.776   0.779   0.782   0.782
  0.783   0.786   0.788   0.790   0.794   0.799   0.800   0.802
  0.804   0.808   0.809   0.811   0.813   0.814   0.816   0.820
  0.824   0.826   0.830   0.833   0.833   0.838   0.841   0.846
  0.851   0.852   0.856   0.859   0.866   0.868   0.871   0.872
  0.874   0.878   0.879   0.890   0.890   0.895   0.898   0.901
  0.906   0.909   0.911   0.913   0.918   0.921   0.924   0.928
  0.929   0.930   0.934   0.936   0.938   0.947   0.950   0.953
  0.956   0.958   0.958   0.962   0.964   0.966   0.966   0.971
  0.973   0.976   0.978   0.979   0.980   0.982   0.986   0.988
  0.991   0.992   0.996   0.996   0.999   0.999   1.000   1.002
  1.005   1.006   1.009   1.009   1.012   1.015   1.016   1.017
  1.019   1.020   1.025   1.030   1.030   1.031   1.033   1.036
  1.037   1.039   1.042   1.042   1.043   1.045   1.050   1.050
  1.051   1.052   1.054   1.054   1.056   1.058   1.058   1.059
  1.060   1.061   1.063   1.069   1.072   1.073   1.075   1.078
  1.079   1.080   1.081   1.085   1.086   1.088   1.090   1.092
  1.093   1.098   1.100   1.101   1.102   1.106   1.107   1.109
  1.110   1.113   1.117   1.118   1.125   1.133   1.135   1.135
  1.138   1.139   1.140   1.142   1.143   1.145   1.148   1.150
  1.151   1.154   1.157   1.160   1.161   1.163   1.166   1.170
  1.172   1.174   1.178   1.181   1.184   1.185   1.187   1.189
  1.194   1.204   1.206   1.214   1.216   1.224   1.227   1.229
  1.231   1.232   1.233   1.240   1.245   1.251   1.256   1.262
  1.264   1.266   1.270   1.272   1.274   1.278   1.281   1.284
  1.287   1.292   1.292   1.296   1.297   1.301   1.302   1.305
  1.309   1.310   1.311   1.312   1.313   1.316   1.320   1.325
  1.331   1.332   1.335   1.336   1.339   1.340   1.344   1.350
  1.352   1.353   1.359   1.367   1.369   1.371   1.373   1.374
  1.378   1.380   1.382   1.384   1.390   1.391   1.393   1.397
  1.399   1.406   1.407   1.410   1.417   1.419   1.420   1.427
  1.433   1.437   1.438   1.446   1.450   1.451   1.452   1.454
  1.456   1.457   1.462   1.463   1.469   1.471   1.473   1.483
  1.487   1.494   1.499   1.501   1.505   1.506   1.507   1.508
  1.509   1.522   1.522   1.525   1.525   1.529   1.529   1.531
  1.535   1.538   1.539   1.541   1.543   1.543   1.545   1.547
  1.548   1.552   1.554   1.556   1.559   1.561   1.564   1.566
  1.569   1.571   1.576   1.577   1.583   1.587   1.588   1.594
  1.597   1.600   1.602   1.604   1.611   1.618   1.626   1.626
  1.629   1.633   1.635   1.637   1.646   1.655   1.656   1.665
  1.670   1.672   1.679   1.682   1.686   1.691   1.705   1.707
  1.713   1.715   1.726   1.728   1.732   1.743   1.751   1.754
  1.762   1.762   1.762   1.767   1.770   1.773   1.780   1.787
  1.788   1.792   1.800   1.804   1.807   1.809   1.811   1.814
  1.821   1.822   1.823   1.824   1.828   1.831   1.833   1.835
  1.836   1.836   1.842   1.851   1.860   1.862   1.866   1.875
  1.882   1.883   1.885   1.888   1.892   1.896   1.903   1.904
  1.908   1.910   1.915   1.920   1.921   1.921   1.925   1.930
  1.932   1.933   1.939   1.942   1.944   1.947   1.953   1.954
  1.956   1.960   1.968   1.971   1.973   1.979   1.985   1.987
  1.990   1.992   1.994   1.994   1.995   2.001   2.004   2.005
  2.006   2.008   2.014   2.020   2.026   2.036   2.042   2.045
  2.046   2.053   2.055   2.059   2.065   2.066   2.069   2.070
  2.074   2.075   2.081   2.083   2.087   2.091   2.095   2.100
  2.103   2.105   2.105   2.107   2.113   2.115   2.122   2.123
  2.124   2.131   2.135   2.137   2.142   2.146   2.149   2.151
  2.152   2.153   2.158   2.166   2.170   2.171   2.174   2.175
  2.179   2.180   2.180   2.184   2.189   2.196   2.198   2.204
  2.213   2.215   2.215   2.217   2.221   2.223   2.223   2.228
  2.236   2.240   2.242   2.244   2.248   2.255   2.257   2.258
  2.261   2.262   2.264   2.274   2.277   2.278   2.282   2.285
  2.286   2.288   2.289   2.291   2.295   2.299   2.302   2.303
  2.308   2.312   2.312   2.319   2.321   2.323   2.325   2.327
  2.331   2.332   2.333   2.334   2.337   2.341   2.343   2.347
  2.349   2.349   2.351   2.353   2.357   2.360   2.362   2.365
  2.368   2.370   2.370   2.372   2.374   2.377   2.379   2.379
  2.387   2.389   2.390   2.396   2.400   2.401   2.403   2.406
  2.408   2.414   2.418   2.419   2.420   2.421   2.424   2.428
  2.435   2.436   2.442   2.443   2.447   2.451   2.454   2.461
  2.466   2.474   2.480   2.482   2.488   2.489   2.499   2.504
  2.507   2.510   2.511   2.514   2.515   2.518   2.521   2.527
  2.535   2.537   2.545   2.558   2.565   2.566   2.576   2.578
  2.588   2.596   2.598   2.600   2.615   2.616   2.627   2.631
  2.643   2.647   2.655   2.656   2.657   2.664   2.670   2.679
  2.685   2.685   2.691   2.692   2.695   2.699   2.700   2.704
  2.705   2.709   2.722   2.724   2.728   2.732   2.733   2.737
  2.741   2.745   2.748   2.755   2.756   2.763   2.764   2.766
  2.773   2.773   2.774   2.782   2.783   2.790   2.795   2.796
  2.799   2.800   2.801   2.801   2.802   2.802   2.807   2.814
  2.816   2.819   2.821   2.822   2.824   2.825   2.835   2.837
  2.838   2.848   2.854   2.862   2.870   2.871   2.878   2.882
  2.883   2.886   2.894   2.894   2.907   2.917   2.921   2.932
  2.934   2.943   2.949   2.956   2.962   2.970   2.972   2.973
  2.975   2.994   2.997   3.008   3.011   3.016   3.020   3.020
  3.037   3.041   3.056   3.076   3.086   3.090   3.092   3.100
  3.127   3.151   3.161   3.204   3.216   3.247   3.261   3.271
  3.274   3.378   3.414   3.420   3.461   3.463   3.489   3.503
  3.504   3.512   3.522   3.525   3.553   3.575   3.584   3.680
  3.692   9.638   9.797  13.156  13.190  13.211  13.251  13.302
 13.340  13.473  13.514  13.522  13.536  13.556  13.566  13.614
 13.651  13.671  13.673  13.689  13.698  13.712  13.740  13.742
 13.745  13.776  13.779  13.786  13.805  13.814  13.816  13.849
 13.864  13.872  13.875  13.875  13.885  13.906  13.940  13.941
 14.022  14.029  14.040  14.044  14.050  14.051  14.052  14.059
 14.060  14.129  14.147  14.167  14.172  14.174  14.175  14.177
 14.187  14.205  14.207  14.219  14.226  14.228  14.244  14.263
 14.273  14.295  14.298  14.300  14.315  14.329  14.334  14.360
 14.360  14.523  14.528  14.542  14.558  14.580  14.589  14.591
 14.592  14.596  14.606  14.610  14.629  19.562  19.650
 --------------------------------------------------------------
 
          Ground-State Mulliken Net Atomic Charges

     Atom                 Charge (a.u.)    Spin (a.u.)
  --------------------------------------------------------
      1 N                    -0.716153      -0.000160
      2 C                     0.306779       0.000050
      3 C                     0.126004      -0.000002
      4 C                    -0.194719       0.000000
      5 C                    -0.316556      -0.000001
      6 H                     0.237139       0.000001
      7 C                    -0.261043      -0.000001
      8 H                     0.236885       0.000000
      9 C                    -0.259615      -0.000004
     10 H                     0.242205       0.000001
     11 C                    -0.329811       0.000018
     12 H                     0.268646      -0.000012
     13 C                     0.306953       0.000050
     14 C                    -0.328856       0.000020
     15 H                     0.269198      -0.000014
     16 C                    -0.260044      -0.000007
     17 H                     0.242602       0.000001
     18 C                    -0.260953       0.000002
     19 H                     0.236853       0.000000
     20 C                    -0.316770      -0.000004
     21 H                     0.236967       0.000001
     22 C                     0.125426       0.000002
     23 C                     0.188720       0.002912
     24 C                    -0.313595      -0.002327
     25 H                     0.236918       0.000451
     26 C                     0.039761       0.005432
     27 C                    -0.316942      -0.002328
     28 H                     0.236362       0.000430
     29 C                     0.036302       0.005547
     30 C                    -0.178571      -0.028924
     31 C                    -0.542425       0.002621
     32 H                     0.233588       0.000406
     33 H                     0.256013      -0.001988
     34 C                    -0.662178       0.000297
     35 C                    -0.541373       0.002576
     36 H                     0.233073       0.000405
     37 H                     0.255055      -0.001821
     38 C                    -0.661626       0.000120
     39 H                     0.243511      -0.000451
     40 H                     0.223033      -0.000018
     41 H                     0.216897      -0.000088
     42 B                     0.518071       0.298002
     43 C                    -0.141170       0.047914
     44 C                    -0.412834      -0.047232
     45 H                     0.227639       0.001616
     46 C                     0.075718       0.077029
     47 C                     0.057389       0.057480
     48 C                    -0.408854      -0.031565
     49 H                     0.217421       0.000737
     50 C                    -0.133198       0.028024
     51 C                     0.175411      -0.053790
     52 C                    -0.413595       0.082707
     53 H                     0.240921      -0.004836
     54 C                    -0.085987       0.024056
     55 C                     0.223782      -0.039331
     56 C                     0.177465      -0.049609
     57 C                    -0.408458       0.077650
     58 H                     0.232833      -0.004571
     59 C                    -0.229447      -0.052195
     60 H                     0.247551       0.002519
     61 C                    -0.366148       0.076084
     62 H                     0.243790      -0.004452
     63 C                    -0.363134       0.072479
     64 H                     0.243589      -0.004232
     65 C                    -0.231283      -0.049835
     66 H                     0.245088       0.002422
     67 C                    -0.139644       0.047549
     68 C                    -0.415448      -0.046738
     69 H                     0.225776       0.001598
     70 C                     0.077436       0.076424
     71 C                     0.056031       0.057489
     72 C                    -0.408151      -0.031403
     73 H                     0.216781       0.000732
     74 C                    -0.131999       0.027705
     75 C                     0.174394      -0.053573
     76 C                    -0.413357       0.082333
     77 H                     0.241400      -0.004809
     78 C                    -0.084895       0.023934
     79 C                     0.224825      -0.039175
     80 C                     0.176688      -0.049607
     81 C                    -0.407164       0.077529
     82 H                     0.234476      -0.004553
     83 C                    -0.229581      -0.052024
     84 H                     0.247587       0.002511
     85 C                    -0.366859       0.075832
     86 H                     0.243625      -0.004438
     87 C                    -0.363250       0.072458
     88 H                     0.243317      -0.004234
     89 C                    -0.231953      -0.049780
     90 H                     0.245591       0.002418
     91 B                     0.498824       0.319711
     92 C                    -0.167814      -0.024300
     93 C                     0.028391       0.002150
     94 C                    -0.287535       0.014096
     95 H                     0.256725      -0.000371
     96 C                     0.120986      -0.029360
     97 C                    -0.284833       0.014064
     98 H                     0.257137      -0.000343
     99 C                     0.033000       0.001999
    100 N                    -0.604545       0.435654
    101 C                     0.303211      -0.098622
    102 C                     0.188472       0.233186
    103 C                    -0.230678      -0.038955
    104 C                    -0.310184      -0.151784
    105 H                     0.271806       0.007078
    106 C                    -0.209200       0.254271
    107 H                     0.279496      -0.013534
    108 C                    -0.250257      -0.129833
    109 H                     0.278443       0.005853
    110 C                    -0.268961       0.182188
    111 H                     0.312605      -0.009893
    112 C                     0.307680      -0.098426
    113 C                     0.187684       0.233294
    114 C                    -0.309897      -0.151936
    115 H                     0.272094       0.007086
    116 C                    -0.209464       0.255010
    117 H                     0.279707      -0.013581
    118 C                    -0.249819      -0.130356
    119 H                     0.279286       0.005871
    120 C                    -0.272835       0.182637
    121 H                     0.311152      -0.009902
    122 C                    -0.541992       0.004361
    123 H                     0.237194       0.000410
    124 H                     0.266709      -0.002027
    125 C                    -0.661216      -0.000330
    126 C                    -0.545061       0.004669
    127 H                     0.237595       0.000430
    128 H                     0.269702      -0.002440
    129 C                    -0.661307      -0.000280
    130 H                     0.246869      -0.000353
    131 H                     0.214832      -0.000093
    132 H                     0.229858       0.000025
    133 H                     0.244748      -0.000281
    134 H                     0.231043       0.000029
    135 H                     0.214620      -0.000086
    136 H                     0.221855      -0.000017
    137 H                     0.245119      -0.000588
    138 H                     0.217096      -0.000098
    139 C                    -0.618335       0.023234
    140 C                    -0.619456       0.022754
    141 C                    -0.623033      -0.000000
    142 C                    -0.618889      -0.000000
    143 H                     0.232768       0.000000
    144 H                     0.228245       0.000000
    145 H                     0.228454       0.000000
    146 H                     0.233372       0.000000
    147 H                     0.228839       0.000000
    148 H                     0.229232       0.000000
    149 H                     0.249492      -0.000872
    150 H                     0.249869       0.000271
    151 H                     0.249859       0.000271
    152 H                     0.249429      -0.000827
    153 H                     0.249978       0.000225
    154 H                     0.249996       0.000217
  --------------------------------------------------------
  Sum of atomic charges =    -0.000000
  Sum of spin   charges =     2.000000

 -----------------------------------------------------------------
                    Cartesian Multipole Moments
 -----------------------------------------------------------------
    Charge (ESU x 10^10)
                -0.0000
    Dipole Moment (Debye)
         X     -22.5681      Y     -16.4552      Z     -25.2150
       Tot      37.6282
    Quadrupole Moments (Debye-Ang)
        XX    -181.4465     XY     254.9163     YY    -278.5650
        XZ     307.4119     YZ     294.0785     ZZ    -156.1456
    Octopole Moments (Debye-Ang^2)
       XXX    2394.1748    XXY    -502.6447    XYY    -451.5073
       YYY    4865.9403    XXZ   -1384.8352    XYZ   -2967.3433
       YYZ   -1016.5842    XZZ   -1361.7780    YZZ   -1016.0022
       ZZZ    1884.6453
    Hexadecapole Moments (Debye-Ang^3)
      XXXX  -65222.3564   XXXY   -5711.7406   XXYY   -9576.5046
      XYYY  -14125.9507   YYYY  -81604.1402   XXXZ   -1313.4406
      XXYZ   15459.3994   XYYZ   15065.8186   YYYZ  -17423.7421
      XXZZ    -648.6644   XYZZ   19497.0180   YYZZ     894.5081
      XZZZ   -1055.2233   YZZZ   -7195.1388   ZZZZ  -52949.3032
 -----------------------------------------------------------------
 Calculating analytic gradient of the SCF energy
 -1.468246343569332E-003 -1.468246760285221E-003
 -1.468246461237867E-003 -1.468246714273598E-003
 -1.468247380947049E-003 -1.468245756441352E-003
 -1.468211392292615E-003 -1.468281721975390E-003
 -1.468225826841458E-003 -1.468267349306912E-003
 -1.468224085993109E-003 -1.468269059207504E-003
 -1.468262650089281E-003 -1.468230454365639E-003
 -1.468266423826694E-003 -1.468226749513490E-003
 -1.468268665163080E-003 -1.468224485189717E-003
 -1.468254853612038E-003 -1.468238252559863E-003
 -1.468256631637592E-003 -1.468236493477299E-003
 -1.468252948106366E-003 -1.468240167197310E-003
 -1.468229600483576E-003 -1.468263498234564E-003
 -1.468235514597669E-003 -1.468257641869417E-003
 -1.468234920768713E-003 -1.468258213219049E-003
 -1.468265453376690E-003 -1.468227658292238E-003
 -1.468255735506180E-003 -1.468237392771438E-003
 -1.468253748692446E-003 -1.468239372557719E-003
 -1.468277664776244E-003 -1.468215435892037E-003
 -1.468253832832499E-003 -1.468239343756213E-003
 -1.468248898413314E-003 -1.468244252858242E-003
 -1.468244178590419E-003 -1.468248917027175E-003
 -1.468244707445042E-003 -1.468248439924160E-003
 -1.468244495342804E-003 -1.468248645005950E-003
 -1.468219353535752E-003 -1.468273751010458E-003
 -1.468228176244620E-003 -1.468264993268268E-003
 -1.468229507881870E-003 -1.468263633457116E-003
 -1.468254751890197E-003 -1.468238374240102E-003
 -1.468237092891837E-003 -1.468256031830543E-003
 -1.468241412537212E-003 -1.468251689908684E-003
 -1.468255875348997E-003 -1.468237216859881E-003
 -1.468242596087471E-003 -1.468250579210930E-003
 -1.468236070774326E-003 -1.468257077934770E-003
 -1.468235922370476E-003 -1.468257185293274E-003
 -1.468231154707832E-003 -1.468261994989671E-003
 -1.468232401806795E-003 -1.468260744918283E-003
 -1.468230369230870E-003 -1.468262742593870E-003
 -1.468216455069410E-003 -1.468276725470473E-003
 -1.468214737192688E-003 -1.468278407140174E-003
 -1.468234429912456E-003 -1.468258671392484E-003
 -1.468247124090550E-003 -1.468246052099498E-003
 -1.468253244971055E-003 -1.468239895467908E-003
 -1.468230557661171E-003 -1.468262563739130E-003
 -1.468234584518703E-003 -1.468258563972415E-003
 -1.468233064659969E-003 -1.468260071201977E-003
 -1.468232288221193E-003 -1.468260819646766E-003
 -1.468224858429417E-003 -1.468268308928802E-003
 -1.468218828580008E-003 -1.468274311106981E-003
 -1.468234226087324E-003 -1.468258866565458E-003
 -1.468252207703071E-003 -1.468240923086637E-003
 -1.468246721301884E-003 -1.468246406134443E-003
 -1.468241676600914E-003 -1.468251430597637E-003
 -1.468266133983534E-003 -1.468227043908989E-003
 -1.468272508358208E-003 -1.468220635721364E-003
 -1.468244316929843E-003 -1.468248811584261E-003
 -1.468245494506936E-003 -1.468247642248455E-003
 -1.468243455453647E-003 -1.468249666011421E-003
 -1.468238706073535E-003 -1.468254400753269E-003
 -1.468232350781385E-003 -1.468260804078818E-003
 -1.468229537635596E-003 -1.468263587056772E-003
 -1.468250026918469E-003 -1.468243091278767E-003
 -1.468260711295045E-003 -1.468232414044373E-003
 -1.468262743806086E-003 -1.468230372298315E-003
 -1.468268526475035E-003 -1.468224589231630E-003
 -1.468264320539772E-003 -1.468228851355911E-003
 -1.468266011015069E-003 -1.468227129334010E-003
 -1.468222307341398E-003 -1.468270800758140E-003
 -1.468222104114393E-003 -1.468271022829428E-003
 -1.468221312435209E-003 -1.468271795864604E-003
 -1.468277109427846E-003 -1.468216025810712E-003
 -1.468260491395350E-003 -1.468232593475845E-003
 -1.468274000989990E-003 -1.468219111508545E-003
 -1.468246624123956E-003 -1.468246494410112E-003
 -1.468232800615383E-003 -1.468260263776637E-003
 -1.468247209337785E-003 -1.468245900243186E-003
 -1.468219303067927E-003 -1.468273828121327E-003
 -1.468199106307119E-003 -1.468294000371841E-003
 -1.468232444661581E-003 -1.468260661360218E-003
 -1.468263164318675E-003 -1.468229965849259E-003
 -1.468282107718468E-003 -1.468211007375912E-003
 -1.468267857017145E-003 -1.468225232513187E-003
 -1.468236423324979E-003 -1.468256686909434E-003
 -1.468251613264442E-003 -1.468241491920725E-003
 -1.468238105936569E-003 -1.468254969470067E-003
 -1.468214925374193E-003 -1.468278194088559E-003
 -1.468237464178793E-003 -1.468255648674104E-003
 -1.468198176714908E-003 -1.468294938748378E-003
 -1.468262233520724E-003 -1.468230882211401E-003
 -1.468263354257875E-003 -1.468229754886277E-003
 -1.468259651514703E-003 -1.468233464317653E-003
 -1.468256909206249E-003 -1.468236170824514E-003
 -1.468236456217263E-003 -1.468256636436717E-003
 -1.468251374474913E-003 -1.468241760581600E-003
 -1.468234113883595E-003 -1.468258991024224E-003
 -1.468234310881446E-003 -1.468258777782118E-003
 -1.468246244999092E-003 -1.468246874308961E-003
 -1.468224205163413E-003 -1.468268893667185E-003
 -1.468242000551098E-003 -1.468251125227111E-003
 -1.468248694331766E-003 -1.468244442426960E-003
 -1.468221848888384E-003 -1.468271220472578E-003
 -1.468233343719089E-003 -1.468259766051783E-003
 -1.468240026790978E-003 -1.468253112391013E-003
 -1.468238589391217E-003 -1.468254535442819E-003
 -1.468263869558263E-003 -1.468229225219559E-003
 -1.468245548395496E-003 -1.468247548419731E-003
 -1.468245680989346E-003 -1.468247441956986E-003
 -1.468246615697867E-003 -1.468246471108946E-003
 -1.468232880241189E-003 -1.468260227249987E-003
 -1.468249938524119E-003 -1.468243190348754E-003
 -1.468236780197361E-003 -1.468256338641469E-003
 -1.468228824537787E-003 -1.468264293005690E-003
 -1.468243755275546E-003 -1.468249387148370E-003
 -1.468230846763378E-003 -1.468262232210021E-003
 -1.468222688911085E-003 -1.468270414160251E-003
 -1.468235901499099E-003 -1.468257204419145E-003
 -1.468261617448349E-003 -1.468231473914007E-003
 -1.468237437765707E-003 -1.468255673525052E-003
 -1.468248792331032E-003 -1.468244316363742E-003
 -1.468265077492039E-003 -1.468228038780890E-003
 -1.468218518709509E-003 -1.468274572632456E-003
 -1.468235304851215E-003 -1.468257818809620E-003
 -1.468263572757964E-003 -1.468229532199419E-003
 -1.468240715871068E-003 -1.468252400652738E-003
 -1.468240707052651E-003 -1.468252405358907E-003
 -1.468239801056306E-003 -1.468253352708485E-003
 -1.468239513640036E-003 -1.468253636034204E-003
 -1.468262890279260E-003 -1.468230216806636E-003
 -1.468258503267550E-003 -1.468234671317337E-003
 -1.468263396983416E-003 -1.468229769476651E-003
 -1.468255324487110E-003 -1.468237764878775E-003
 -1.468234155465409E-003 -1.468259031221816E-003
 -1.468233713487166E-003 -1.468259460842153E-003
 -1.468268206943823E-003 -1.468224900124548E-003
 -1.468251677427562E-003 -1.468241483413395E-003
 -1.468258067631461E-003 -1.468235077708983E-003
 -1.468282375132014E-003 -1.468210743430450E-003
 -1.468245688651893E-003 -1.468247486927226E-003
 -1.468249543280155E-003 -1.468243623118081E-003
 -1.468257166656272E-003 -1.468235934946082E-003
 -1.468222795804124E-003 -1.468270386408926E-003
 -1.468219123335205E-003 -1.468274053068086E-003
 -1.468264704116081E-003 -1.468228405054084E-003
 -1.468243483913953E-003 -1.468249691293476E-003
 -1.468244317153459E-003 -1.468248845848881E-003
 -1.468242925767684E-003 -1.468250191807027E-003
 -1.468230609269415E-003 -1.468262541365785E-003
 -1.468230121961371E-003 -1.468263019380963E-003
 -1.468232374881052E-003 -1.468260730715128E-003
 -1.468231279573030E-003 -1.468261896542814E-003
 -1.468226852011811E-003 -1.468266315874583E-003
 -1.468267533968693E-003 -1.468225572081283E-003
 -1.468241582945404E-003 -1.468251596324481E-003
 -1.468241977512283E-003 -1.468251184817210E-003
 -1.468286005396627E-003 -1.468207105440228E-003
 -1.468245994956334E-003 -1.468247182649669E-003
 -1.468249433922130E-003 -1.468243727617587E-003
 -1.468261288044599E-003 -1.468231822954813E-003
 -1.468243840703223E-003 -1.468249295865945E-003
 -1.468243719297928E-003 -1.468249405925547E-003
 -1.468263996630583E-003 -1.468229124331905E-003
 -1.468237170522044E-003 -1.468256018565489E-003
 -1.468237868711990E-003 -1.468255313250513E-003
 -1.468221084272124E-003 -1.468272024821088E-003
 -1.468258209959383E-003 -1.468234950853068E-003
 -1.468257585667307E-003 -1.468235555452707E-003
 -1.468258917238766E-003 -1.468234197112919E-003
 -1.468235486331298E-003 -1.468257689211491E-003
 -1.468232849787487E-003 -1.468260309713832E-003
 -1.468260275303379E-003 -1.468232820082889E-003
 -1.468221503356389E-003 -1.468271676520684E-003
 -1.468217310671434E-003 -1.468275863537862E-003
 -1.468256981258955E-003 -1.468236117173412E-003
 -1.468237734019335E-003 -1.468255405800989E-003
 -1.468238183452818E-003 -1.468254955206737E-003
 -1.468233619107796E-003 -1.468259485680002E-003
 -1.468260742806831E-003 -1.468232424219406E-003
 -1.468260257813540E-003 -1.468232884530569E-003
 -1.468257687181309E-003 -1.468235405670426E-003
 -1.468244359844940E-003 -1.468248759472071E-003
 -1.468245925859140E-003 -1.468247180307177E-003
 -1.468263382800849E-003 -1.468229733983610E-003
 -1.468234963816305E-003 -1.468258195268430E-003
 -1.468237818769273E-003 -1.468255323029617E-003
 -1.468229123542729E-003 -1.468263975515254E-003
 -1.468254926824703E-003 -1.468238209537548E-003
 -1.468254872296919E-003 -1.468238260795033E-003
 -1.468267905138067E-003 -1.468225161319763E-003
 -1.468238365782281E-003 -1.468254816084344E-003
 -1.468242146376447E-003 -1.468251024129659E-003
 -1.468228620635894E-003 -1.468264453664766E-003
 -1.468254635031616E-003 -1.468238513300262E-003
 -1.468254529930670E-003 -1.468238617034245E-003
 -1.468223390109637E-003 -1.468269731270751E-003
 -1.468251437554638E-003 -1.468241718412610E-003
 -1.468248295771157E-003 -1.468244841463865E-003
 -1.468251782827475E-003 -1.468241314433951E-003
 -1.468239302613546E-003 -1.468253811515311E-003
 -1.468240143304158E-003 -1.468252960966488E-003
 -1.468259314115028E-003 -1.468233792759768E-003
 -1.468260966469851E-003 -1.468232202899752E-003
 -1.468264924512470E-003 -1.468228243215564E-003
 -1.468228442075116E-003 -1.468264669207869E-003
 -1.468254442335294E-003 -1.468238726699262E-003
 -1.468246376537706E-003 -1.468246789864034E-003
 -1.468250662961038E-003 -1.468242457549666E-003
 -1.468265282986038E-003 -1.468227863915163E-003
 -1.468262865790770E-003 -1.468230276612223E-003
 -1.468236327257871E-003 -1.468256778363861E-003
 -1.468273846756758E-003 -1.468219327356623E-003
 -1.468267839837022E-003 -1.468225336282863E-003
 -1.468212869938540E-003 -1.468280252906392E-003
 -1.468252498562100E-003 -1.468240667303291E-003
 -1.468241653897385E-003 -1.468251515056975E-003
 -1.468234795388749E-003 -1.468258298767222E-003
 -1.468261225250349E-003 -1.468231948782097E-003
 -1.468256704879077E-003 -1.468236475824485E-003
 -1.468225125244583E-003 -1.468267983918766E-003
 -1.468242437830747E-003 -1.468250712984869E-003
 -1.468235632750024E-003 -1.468257516538225E-003
 -1.468228267911328E-003 -1.468264844931222E-003
 -1.468234559292165E-003 -1.468258605336870E-003
 -1.468231133713999E-003 -1.468262034725023E-003
 -1.468238194773186E-003 -1.468254921944333E-003
 -1.468261207418521E-003 -1.468231957633884E-003
 -1.468255396881545E-003 -1.468237760889288E-003
 -1.468233315894181E-003 -1.468259784772404E-003
 -1.468275519009787E-003 -1.468217651529881E-003
 -1.468271745009547E-003 -1.468221429092658E-003
 -1.468240296544914E-003 -1.468252803186261E-003
 -1.468253511445913E-003 -1.468239623238032E-003
 -1.468256602522636E-003 -1.468236531332292E-003
 -1.468229541292142E-003 -1.468263584959295E-003
 -1.468260942411103E-003 -1.468232235996814E-003
 -1.468251938273360E-003 -1.468241242335404E-003
 -1.468272421806999E-003 -1.468220688460311E-003
 -1.468229445944106E-003 -1.468263707377028E-003
 -1.468233147906299E-003 -1.468259997069391E-003
 -1.468228576783386E-003 -1.468264528602723E-003
 -1.468252660253153E-003 -1.468240506923325E-003
 -1.468245772873104E-003 -1.468247393771786E-003
 -1.468206208343507E-003 -1.468286905609012E-003
 -1.468254096494624E-003 -1.468239065328111E-003
 -1.468244306027829E-003 -1.468248861402886E-003
 -1.468231577247111E-003 -1.468261536313099E-003
 -1.468247406646159E-003 -1.468245720885456E-003
 -1.468249598181829E-003 -1.468243528165189E-003
 -1.468271616715400E-003 -1.468221506460718E-003
 -1.468237945211608E-003 -1.468255205698342E-003
 -1.468243973151647E-003 -1.468249163555559E-003
 -1.468239766735529E-003 -1.468253336943176E-003
 -1.468253696122194E-003 -1.468239413471761E-003
 -1.468253463271185E-003 -1.468239642470167E-003
 -1.468225582919572E-003 -1.468267495639138E-003
 -1.468258433064045E-003 -1.468234733868048E-003
 -1.468250959280279E-003 -1.468242205144574E-003
 -1.468262567166129E-003 -1.468230513996191E-003
 -1.468235405965373E-003 -1.468257731340457E-003
 -1.468238998815347E-003 -1.468254149454486E-003
 -1.468231984943007E-003 -1.468261135421375E-003
 -1.468263635236252E-003 -1.468229507889965E-003
 -1.468257353778788E-003 -1.468235795668993E-003
 -1.468262767943107E-003 -1.468230339063144E-003
 -1.468235779622556E-003 -1.468257345191999E-003
 -1.468239128977810E-003 -1.468254007784222E-003
 -1.468259057589964E-003 -1.468234042877580E-003
 -1.468228524005343E-003 -1.468264635745675E-003
 -1.468231412284313E-003 -1.468261735375828E-003
 -1.468235176953899E-003 -1.468257912950070E-003
 -1.468250298015109E-003 -1.468242816673494E-003
 -1.468248901618472E-003 -1.468244208913692E-003
 -1.468250218577807E-003 -1.468242889882458E-003
 -1.468250083500262E-003 -1.468243072607333E-003
 -1.468253450430160E-003 -1.468239694016845E-003
 -1.468233195648126E-003 -1.468259916868519E-003
 -1.468239468005266E-003 -1.468253639250020E-003
 -1.468226633296734E-003 -1.468266482606852E-003
 -1.468278572760657E-003 -1.468214556504930E-003
 -1.468288611687380E-003 -1.468204501713720E-003
 -1.468268887301911E-003 -1.468224215608662E-003
 -1.468217163222495E-003 -1.468275968950952E-003
 -1.468242404304606E-003 -1.468250676461567E-003
 -1.468214300225989E-003 -1.468278817155300E-003
 -1.468247044767612E-003 -1.468246068118262E-003
 -1.468260056473133E-003 -1.468233001598876E-003
 -1.468250481877936E-003 -1.468242636741855E-003
 -1.468273876149544E-003 -1.468219225563625E-003
 -1.468261822005131E-003 -1.468231305456855E-003
 -1.468276260089558E-003 -1.468216847357126E-003
 -1.468226866306080E-003 -1.468266260822163E-003
 -1.468220828408130E-003 -1.468272273807333E-003
 -1.468219314294227E-003 -1.468273782992064E-003
 -1.468252456858098E-003 -1.468240659050347E-003
 -1.468239834936395E-003 -1.468253255253393E-003
 -1.468255951695639E-003 -1.468237133763763E-003
 -1.468273750124123E-003 -1.468219363583481E-003
 -1.468244701696941E-003 -1.468248411970540E-003
 -1.468294599522038E-003 -1.468198511872018E-003
 -1.468245963828518E-003 -1.468247135671169E-003
 -1.468248567848793E-003 -1.468244613288383E-003
 -1.468250254759024E-003 -1.468242879240067E-003
 -1.468267851014460E-003 -1.468225254173404E-003
 -1.468268983515410E-003 -1.468224209387562E-003
 -1.468280932558408E-003 -1.468212205467985E-003
 -1.468220643556879E-003 -1.468272471167343E-003
 -1.468236833048477E-003 -1.468256341542921E-003
 -1.468228562531344E-003 -1.468264573675059E-003
 -1.468240034149005E-003 -1.468253078467501E-003
 -1.468240917808997E-003 -1.468252195478925E-003
 -1.468234713903476E-003 -1.468258406739755E-003
 -1.468262009361925E-003 -1.468231088936409E-003
 -1.468256751423922E-003 -1.468236424192236E-003
 -1.468262900751480E-003 -1.468230224572872E-003
 -1.468239015899894E-003 -1.468254093479644E-003
 -1.468235870524649E-003 -1.468257275392787E-003
 -1.468228050606413E-003 -1.468265064224183E-003
 -1.468247181049111E-003 -1.468245929146114E-003
 -1.468230890729236E-003 -1.468262290016751E-003
 -1.468221339363153E-003 -1.468271798968356E-003
 -1.468249428105267E-003 -1.468243699299791E-003
 -1.468248312016693E-003 -1.468244821833771E-003
 -1.468249597612898E-003 -1.468243519787690E-003
 -1.468265677881906E-003 -1.468227428824305E-003
 -1.468261912034763E-003 -1.468231269708645E-003
 -1.468274827333845E-003 -1.468218305112581E-003
 -1.468257849273113E-003 -1.468235244121425E-003
 -1.468239144113386E-003 -1.468253995183196E-003
 -1.468245761541229E-003 -1.468247368148872E-003
 -1.468257968534135E-003 -1.468235127237364E-003
 -1.468245559127694E-003 -1.468247633012952E-003
 -1.468242166768695E-003 -1.468250963015241E-003
 -1.468263454616332E-003 -1.468229660162553E-003
 -1.468252061692081E-003 -1.468241102832734E-003
 -1.468260893852056E-003 -1.468232231035165E-003
 -1.468284640420693E-003 -1.468208465876151E-003
 -1.468258779563165E-003 -1.468234409488470E-003
 -1.468270599973311E-003 -1.468222543296708E-003
 -1.468225145818755E-003 -1.468267957372757E-003
 -1.468232612231982E-003 -1.468260563545664E-003
 -1.468223234398751E-003 -1.468269913111195E-003
 -1.468266628354118E-003 -1.468226463226264E-003
 -1.468252892466968E-003 -1.468240276067232E-003
 -1.468257555989555E-003 -1.468235570812083E-003
 -1.468227004269543E-003 -1.468266100232788E-003
 -1.468242590543944E-003 -1.468250551127851E-003
 -1.468238082615583E-003 -1.468255031188038E-003
 -1.468213188031775E-003 -1.468279914534961E-003
 -1.468246170802481E-003 -1.468247007954669E-003
 -1.468242878636797E-003 -1.468250270037721E-003
 -1.468248895444754E-003 -1.468244203072212E-003
 -1.468248480587464E-003 -1.468244666267733E-003
 -1.468248228702075E-003 -1.468244913117888E-003
 -1.468276701735951E-003 -1.468216400031973E-003
 -1.468257958521107E-003 -1.468235220941239E-003
 -1.468263373234404E-003 -1.468229761350949E-003
 -1.468239606693485E-003 -1.468253518199060E-003
 -1.468256508933051E-003 -1.468236616402996E-003
 -1.468252934760379E-003 -1.468240165612236E-003
 -1.468236515702524E-003 -1.468256575176479E-003
 -1.468253332836943E-003 -1.468239854876287E-003
 -1.468258521475059E-003 -1.468234620455563E-003
 -1.468259312556578E-003 -1.468233792224502E-003
 -1.468258615863077E-003 -1.468234545440201E-003
 -1.468263859740646E-003 -1.468229279462822E-003
 -1.468233991450162E-003 -1.468259092502296E-003
 -1.468258294840028E-003 -1.468234798800173E-003
 -1.468238547685022E-003 -1.468254591342877E-003
 -1.468255703540526E-003 -1.468237401200993E-003
 -1.468257520896873E-003 -1.468235565952684E-003
 -1.468244291446592E-003 -1.468248830611931E-003
 -1.468267390618805E-003 -1.468225714787026E-003
 -1.468253258804597E-003 -1.468239868851587E-003
 -1.468250163424951E-003 -1.468242972900785E-003
 -1.468272865719495E-003 -1.468220212704544E-003
 -1.468259736116742E-003 -1.468233372292445E-003
 -1.468256871908221E-003 -1.468236263770349E-003
 -1.468247360815731E-003 -1.468245768415142E-003
 -1.468233534780502E-003 -1.468259552601392E-003
 -1.468244914384543E-003 -1.468248174243925E-003
 -1.468249162254034E-003 -1.468243963792628E-003
 -1.468246837850829E-003 -1.468246238122638E-003
 -1.468264729801182E-003 -1.468228376591818E-003
 -1.468240210023058E-003 -1.468252921268196E-003
 -1.468255897457892E-003 -1.468237222313001E-003
 -1.468268549896857E-003 -1.468224558561196E-003
 -1.468253751812837E-003 -1.468239404763238E-003
 -1.468255789293651E-003 -1.468237287388264E-003
 -1.468275236256291E-003 -1.468217850534485E-003
 -1.468252074687609E-003 -1.468241037212853E-003
 -1.468230099398779E-003 -1.468262975579037E-003
 -1.468254650485210E-003 -1.468238453790969E-003
 -1.468255241515981E-003 -1.468237885501108E-003
 -1.468229636064126E-003 -1.468263472835758E-003
 -1.468253388467544E-003 -1.468239723419133E-003
 -1.468239797008065E-003 -1.468253321200110E-003
 -1.468228614372625E-003 -1.468264497687404E-003
 -1.468271516003065E-003 -1.468221570961442E-003
 -1.468242097606401E-003 -1.468250998934952E-003
 -1.468264271569388E-003 -1.468228818166455E-003
 -1.468242696380446E-003 -1.468250415272653E-003
 -1.468258048581793E-003 -1.468235047274922E-003
 -1.468273080270733E-003 -1.468220013186619E-003
 -1.468229014407784E-003 -1.468264116645071E-003
 -1.468236193503835E-003 -1.468256912109852E-003
 -1.468263155304012E-003 -1.468229971746417E-003
 -1.468240186883932E-003 -1.468252931044177E-003
 -1.468236597769527E-003 -1.468256498276202E-003
 -1.468224456362118E-003 -1.468268628665618E-003
 -1.468267391390934E-003 -1.468225742020677E-003
 -1.468252666455838E-003 -1.468240430532483E-003
 -1.468226831169667E-003 -1.468266257389960E-003
 -1.468253343379579E-003 -1.468239766458322E-003
 -1.468253270116748E-003 -1.468239829353051E-003
 -1.468226332896290E-003 -1.468266794341327E-003
 -1.468249064848684E-003 -1.468244050117659E-003
 -1.468249827150705E-003 -1.468243275032188E-003
 -1.468265703632618E-003 -1.468227418554344E-003
 -1.468242127280506E-003 -1.468250967021613E-003
 -1.468248213986273E-003 -1.468244884120325E-003
 -1.468232623136446E-003 -1.468260464329239E-003
 -1.468262261247332E-003 -1.468230871516612E-003
 -1.468246427717168E-003 -1.468246658515628E-003
 -1.468227700463124E-003 -1.468265442005090E-003
 -1.468255173477650E-003 -1.468237917005206E-003
 -1.468239971250251E-003 -1.468253122703133E-003
 -1.468256082385539E-003 -1.468237016273007E-003
 -1.468233178061129E-003 -1.468259948802755E-003
 -1.468240450039878E-003 -1.468252658460415E-003
 -1.468252794919695E-003 -1.468240265824175E-003
 -1.468233946231806E-003 -1.468259152697600E-003
 -1.468239280894037E-003 -1.468253827602637E-003
 -1.468236115135765E-003 -1.468256987575701E-003
 -1.468231845044989E-003 -1.468261264292032E-003
 -1.468232385045145E-003 -1.468260705652854E-003
 -1.468238205325627E-003 -1.468254906291231E-003
 -1.468236278754837E-003 -1.468256840156305E-003
 -1.468243460831227E-003 -1.468249638704760E-003
 -1.468233448159443E-003 -1.468259643731072E-003
 -1.468248208565138E-003 -1.468244865934430E-003
 -1.468233253999935E-003 -1.468259833016775E-003
 -1.468236811320807E-003 -1.468256309002627E-003
 -1.468238673150757E-003 -1.468254440439468E-003
 -1.468239688304244E-003 -1.468253421843285E-003
 -1.468234671624491E-003 -1.468258446324095E-003
 -1.468234466215525E-003 -1.468258626746688E-003
 -1.468251946864819E-003 -1.468241159886949E-003
 -1.468259356017154E-003 -1.468233724027749E-003
 -1.468245452247133E-003 -1.468247627043730E-003
 -1.468256173505946E-003 -1.468236942537959E-003
 -1.468256671260941E-003 -1.468236439954555E-003
 -1.468260393010688E-003 -1.468232700317584E-003
 -1.468262172406065E-003 -1.468230920975119E-003
 -1.468253040572774E-003 -1.468240072499967E-003
 -1.468255312945418E-003 -1.468237801703986E-003
 -1.468251349614653E-003 -1.468241754568753E-003
 -1.468240551407850E-003 -1.468252503348533E-003
 -1.468257333705116E-003 -1.468235772980111E-003
 -1.468261600444401E-003 -1.468231491474716E-003
 -1.468250831120466E-003 -1.468242279240360E-003
 -1.468256469198609E-003 -1.468236650304435E-003
 -1.468255783920651E-003 -1.468237330810974E-003
 -1.468254044392010E-003 -1.468239051163613E-003
 -1.468261684686751E-003 -1.468231424942832E-003
 Gradient of SCF Energy
            1           2           3           4           5           6
    1   0.0034408  -0.0007782  -0.0115798   0.0013914  -0.0040902  -0.0008124
    2   0.0031916  -0.0007402  -0.0022342   0.0014846  -0.0031073  -0.0010584
    3   0.0035820  -0.0004402   0.0000651   0.0016272  -0.0033746  -0.0012122
            7           8           9          10          11          12
    1   0.0015640   0.0014158   0.0064718   0.0039208  -0.0025396   0.0042094
    2  -0.0023262  -0.0013065  -0.0005699   0.0006131   0.0011955   0.0049731
    3  -0.0036274  -0.0021329  -0.0021706  -0.0000886   0.0017232   0.0058367
           13          14          15          16          17          18
    1  -0.0005520   0.0025716   0.0058203  -0.0041636  -0.0011203  -0.0045050
    2  -0.0005905  -0.0008974   0.0045395   0.0028833   0.0023328  -0.0005217
    3  -0.0010983  -0.0013230   0.0048670   0.0045463   0.0032805   0.0005193
           19          20          21          22          23          24
    1  -0.0028627  -0.0028732  -0.0012821   0.0026167  -0.0055769   0.0010303
    2  -0.0000028  -0.0034711  -0.0010005  -0.0069189  -0.0052788   0.0003392
    3   0.0007059  -0.0042209  -0.0010432  -0.0095130  -0.0063820   0.0005225
           25          26          27          28          29          30
    1  -0.0025957   0.0041368   0.0003139  -0.0016678   0.0045696   0.0021803
    2   0.0028350   0.0119055   0.0006903  -0.0068524  -0.0044072   0.0025237
    3  -0.0060782  -0.0029250   0.0007794   0.0014854   0.0118928   0.0027112
           31          32          33          34          35          36
    1  -0.0131525   0.0003646   0.0078369   0.0075047   0.0062651  -0.0035813
    2   0.0038436  -0.0046930   0.0031668  -0.0073214  -0.0101157   0.0020144
[...]
   Point Group: c1    Number of degrees of freedom:   456


   Energy is  -3317.756320425

 Hessian Updated using BFGS Update

451 Hessian modes will be used to form the next step
  Hessian Eigenvalues:
     0.003438    0.003448    0.004098    0.004217    0.005276    0.005569
     0.005585    0.005623    0.006809    0.007965    0.008329    0.008411
     0.008588    0.009368    0.009759    0.011854    0.012321    0.013210
     0.014115    0.014699    0.014978    0.015582    0.015757    0.016154
     0.016498    0.016542    0.016572    0.016675    0.016913    0.017176
     0.017432    0.017594    0.017781    0.017974    0.018032    0.018315
     0.018468    0.018591    0.018639    0.018787    0.019089    0.019246
     0.019389    0.020174    0.020306    0.020469    0.020496    0.020643
     0.020715    0.020748    0.020982    0.020994    0.021030    0.021166
     0.021198    0.021218    0.021271    0.021331    0.021434    0.021479
     0.021649    0.021690    0.021702    0.021990    0.022275    0.022281
     0.022527    0.022535    0.022656    0.022663    0.022838    0.023113
     0.023132    0.023158    0.023167    0.023190    0.023197    0.023221
     0.023381    0.023443    0.023483    0.023493    0.023518    0.023541
     0.023683    0.023742    0.023745    0.023759    0.023765    0.023782
     0.023788    0.023849    0.023869    0.023937    0.023952    0.023996
     0.024050    0.024077    0.024087    0.024136    0.024243    0.024250
     0.024266    0.024356    0.024368    0.024373    0.024410    0.024444
     0.024491    0.024499    0.024513    0.024523    0.024569    0.024606
     0.024640    0.024674    0.024751    0.024783    0.025045    0.025059
     0.029778    0.035250    0.037955    0.043457    0.043871    0.045869
     0.048422    0.054186    0.054324    0.054486    0.054499    0.054704
     0.054994    0.055082    0.055308    0.055425    0.055627    0.055700
     0.055773    0.055820    0.055955    0.056053    0.056096    0.056136
     0.056399    0.056469    0.056496    0.056770    0.056879    0.057153
     0.058664    0.079281    0.079645    0.093040    0.093441    0.093818
     0.094077    0.127794    0.128433    0.128591    0.129416    0.133288
     0.133824    0.158079    0.159204    0.159446    0.159861    0.159920
     0.159943    0.159959    0.159967    0.159983    0.159986    0.159989
     0.159989    0.159994    0.159995    0.159996    0.159997    0.159997
     0.159997    0.159998    0.159998    0.159998    0.159999    0.159999
     0.159999    0.159999    0.159999    0.159999    0.160000    0.160000
     0.160000    0.160000    0.160000    0.160000    0.160000    0.160000
     0.160000    0.160000    0.160000    0.160000    0.160000    0.160000
     0.160000    0.160000    0.160001    0.160003    0.160019    0.160051
     0.160078    0.160289    0.160325    0.160371    0.160488    0.160684
     0.160798    0.161165    0.164609    0.178904    0.179826    0.219020
     0.219520    0.219974    0.220044    0.220100    0.220533    0.220607
     0.221181    0.221685    0.222129    0.223886    0.225456    0.226043
     0.226133    0.227042    0.229442    0.231363    0.231907    0.233531
     0.233769    0.234277    0.234736    0.235068    0.235164    0.237373
     0.237544    0.239001    0.239744    0.240060    0.243060    0.244407
     0.245163    0.245403    0.247142    0.247864    0.248769    0.248922
     0.248999    0.249037    0.249529    0.249666    0.249705    0.249724
     0.249766    0.249802    0.249863    0.249878    0.249903    0.249914
     0.249926    0.249960    0.249970    0.249991    0.250048    0.250327
     0.250791    0.251811    0.254416    0.261055    0.269065    0.276498
     0.279365    0.282154    0.282401    0.284383    0.286870    0.287633
     0.289228    0.293887    0.296606    0.296898    0.297054    0.297118
     0.298158    0.302817    0.304307    0.311324    0.315368    0.317351
     0.319403    0.320610    0.322600    0.333166    0.335670    0.336460
     0.344044    0.344173    0.344304    0.344415    0.345333    0.345810
     0.345947    0.346107    0.346237    0.346300    0.346849    0.347070
     0.347141    0.347287    0.347397    0.347470    0.347668    0.347978
     0.348171    0.348220    0.348264    0.348312    0.348372    0.348695
     0.348823    0.348962    0.348994    0.349135    0.349230    0.349332
     0.349460    0.349905    0.350120    0.350892    0.353135    0.353357
     0.353863    0.354006    0.354421    0.354576    0.354595    0.354780
     0.355760    0.355875    0.356029    0.356048    0.356143    0.356160
     0.356177    0.356275    0.356297    0.356368    0.356733    0.356830
     0.356876    0.356905    0.357045    0.357602    0.358014    0.358101
     0.358316    0.358570    0.358986    0.359162    0.359403    0.359489
     0.359863    0.360715    0.361838    0.362262    0.367352    0.373536
     0.375166    0.382356    0.386698    0.390278    0.396649    0.398103
     0.401234    0.404556    0.407379    0.407627    0.407723    0.410476
     0.416985    0.417153    0.417695    0.417816    0.418913    0.419240
     0.421681    0.422421    0.423316    0.423970    0.426918    0.427627
     0.428061    0.431343    0.432157    0.433071    0.433575    0.435316
     0.448792    0.451887    0.452840    0.453696    0.454670    0.455873
     0.456697    0.457095    0.458791    0.461880    0.462812    0.469338
     0.470631    0.471697    0.471853    0.474816    0.475849    0.476743
     0.478347    0.479297    0.479488    0.479816    0.481233    0.481463
     0.482261    0.482770    0.483539    0.484106    0.484119    0.484668
     0.487655    0.490478    0.491346    0.495135    0.495856    0.497127
     0.497362    0.497917    0.498272    0.501139    0.506119    0.862183
   113.244493
**WARNING** Magnitude of eigenvalue 451 too large.  Replaced by    25.000000

 Minimum Search - Taking Simple RFO Step
 Searching for Lamda that Minimizes Along All modes
 Value Taken    Lamda =  -0.00007692
 Step Taken.  Stepsize is  0.003603

                             Maximum     Tolerance    Cnvgd?
         Gradient           0.012423      0.000075      NO
         Displacement       0.001529      0.001200      NO
         Energy change      0.002483      0.000000      NO


 New Cartesian Coordinates Obtained by Inverse Iteration

 Displacement from previous Coordinates is:  0.067249
 Adding empirical dispersion correction 
 ----------------------------------------------------------------
 Doing -D3(BJ) with
 s6 =   1.00000
 s8 =   0.00000
 a1 =   0.48600
 a2 =   4.50000
 -D3 energy including 3body term =     -0.1507083090 hartrees
 ----------------------------------------------------------------
 Adding gCP correction 
 ----------------------------------------------------------------
 gCP energy =      0.2095898762 hartrees
 ----------------------------------------------------------------
             Standard Nuclear Orientation (Angstroms)
    I     Atom           X                Y                Z
 ----------------------------------------------------------------
    1      N       0.1075031696    -1.1402702533     0.7316865129
    2      C      -0.6077810423    -0.3477969710     1.6171923838
    3      C       0.0528643518     0.5228250944     2.4929425723
    4      C       1.5618240700     0.6548399800     2.5277402033
    5      C      -0.7209182222     1.2968864045     3.3527154155
    6      H      -0.2280637168     1.9799159504     4.0336251820
    7      C      -2.1038135694     1.2310776261     3.3710677312
    8      H      -2.6696929993     1.8500332262     4.0543969731
    9      C      -2.7466617516     0.3611087120     2.5012105137
   10      H      -3.8265360684     0.2867541095     2.4938064500
   11      C      -2.0104448634    -0.4195126026     1.6342156763
   12      H      -2.5287633184    -1.0903325766     0.9640755501
   13      C       1.4925303509    -1.1227029651     0.6856793380
   14      C       2.1688531237    -1.9568575909    -0.2174925058
   15      H       1.6126400794    -2.6112073593    -0.8736611984
   16      C       3.5470694347    -1.9559353307    -0.2814937926
   17      H       4.0442322080    -2.6090513511    -0.9868397643
   18      C       4.2833634919    -1.1244193476     0.5513616090
   19      H       5.3641795283    -1.1144082457     0.5095786524
   20      C       3.6118210780    -0.3028855626     1.4407581541
   21      H       4.1915553738     0.3451622437     2.0861775457
   22      C       2.2240840715    -0.2788324964     1.5323692590
   23      C      -0.6130394552    -1.9722013212    -0.1764629984
   24      C      -0.9382572735    -3.2690932866     0.1779549581
   25      H      -0.6243072499    -3.6561329426     1.1416370468
   26      C      -1.6767256276    -4.0695782309    -0.6901815921
   27      C      -1.0079664452    -1.4677334114    -1.4037057612
   28      H      -0.7458990240    -0.4503039497    -1.6735764855
   29      C      -1.7510022596    -2.2522046908    -2.2789452249
   30      C      -2.1075654763    -3.5656018768    -1.9266268843
   31      C      -2.1293765416    -1.6729902067    -3.6184049161
   32      H      -2.1992079109    -0.5851776308    -3.5375938567
   33      H      -3.1214755296    -2.0216798734    -3.9142336341
   34      C      -1.1249220592    -2.0318452259    -4.7116826249
   35      C      -2.0508170454    -5.4601288204    -0.2435823157
   36      H      -1.2509594286    -5.8699563107     0.3788326436
   37      H      -2.1345244300    -6.1211626629    -1.1091113875
   38      C      -3.3608587440    -5.4877016621     0.5406112386
   39      H      -4.1900470125    -5.1300602469    -0.0696871698
   40      H      -3.5991813891    -6.5011310717     0.8662039613
   41      H      -3.3019614323    -4.8557038967     1.4281403759
   42      B      -3.0437336126    -4.4100280141    -2.8923306256
   43      C      -4.5619551599    -4.1530250311    -2.8590103078
   44      C      -5.1238645555    -3.2489166848    -1.9288505376
   45      H      -4.4723204267    -2.7312248465    -1.2322584368
   46      C      -6.4795273560    -3.0218556991    -1.8933802314
   47      C      -7.3333775070    -3.7013813200    -2.8133751295
   48      C      -6.8104683752    -4.5732580666    -3.7332371032
   49      H      -7.4701503462    -5.0774449881    -4.4327471753
   50      C      -5.4253733696    -4.8256143451    -3.7802542984
   51      C      -7.3239063003    -2.1728485035    -1.0500730273
   52      C      -7.1144134628    -1.3008659742    -0.0096863689
   53      H      -6.1226705947    -1.1006295542     0.3773269354
   54      C      -8.6512444454    -2.3730384638    -1.4884763787
   55      C      -9.7705727697    -1.7503396739    -0.9393226334
   56      C      -8.7090301262    -3.2912697315    -2.5562400163
   57      C      -9.9348683252    -3.5999472949    -3.0961500849
   58      H     -10.0387474748    -4.2993295180    -3.9173154760
   59      C      -8.2325127481    -0.6508448939     0.5664917967
   60      H      -8.0614535288     0.0358186290     1.3859124446
   61      C      -9.5226040415    -0.8565692261     0.1308704975
   62      H     -10.3456468913    -0.3361942973     0.6057582563
   63      C     -11.0233744714    -2.0846846318    -1.5129704440
   64      H     -11.9320377275    -1.6358123693    -1.1300232360
   65      C     -11.0863556196    -2.9812821702    -2.5564972715
   66      H     -12.0521420563    -3.2251966380    -2.9815370910
   67      C      -2.4769571334    -5.4405391722    -3.8830446777
   68      C      -1.0970153564    -5.7478035312    -3.9058828190
   69      H      -0.4322352157    -5.2470714107    -3.2086982611
   70      C      -0.5919373989    -6.6708497648    -4.7924759360
   71      C      -1.4711690350    -7.3197001876    -5.7114213417
   72      C      -2.8113815377    -7.0296851347    -5.7158642588
   73      H      -3.4694120286    -7.5280934707    -6.4211088094
   74      C      -3.3506490166    -6.0975313285    -4.8079341784
   75      C       0.7554172499    -7.1954346801    -5.0262920965
   76      C       1.9990336089    -6.9880408559    -4.4820973160
   77      H       2.1602858321    -6.2813085723    -3.6775204160
   78      C       0.6388800608    -8.1392089041    -6.0705417635
   79      C       1.6951976009    -8.8831468906    -6.5908130922
   80      C      -0.6927529485    -8.2485027544    -6.5190844778
   81      C      -0.9820362068    -9.1338934994    -7.5292678717
   82      H      -1.9890216522    -9.2588835847    -7.9093701345
   83      C       3.0931730944    -7.7269982646    -4.9928468991
   84      H       4.0714781328    -7.5601357407    -4.5601450287
   85      C       2.9652024381    -8.6465416272    -6.0101479525
   86      H       3.8338917807    -9.1885561255    -6.3637424478
   87      C       1.3729705986    -9.7896076494    -7.6324012477
   88      H       2.1491846086   -10.3987007160    -8.0797472450
   89      C       0.0734165921    -9.8993042321    -8.0758146555
   90      H      -0.1522207724   -10.5986205563    -8.8713400266
   91      B      -4.8533412294    -5.8003521467    -4.8144679170
   92      C      -5.8105518917    -6.4656271227    -5.8960717775
   93      C      -6.1690128767    -5.7455032616    -7.0491125672
   94      C      -7.0313489249    -6.3003656844    -7.9885267423
   95      H      -7.3194370792    -5.7405689412    -8.8715993953
   96      C      -7.5241990528    -7.5747752036    -7.7894793813
   97      C      -7.1785726477    -8.3132165483    -6.6756259722
   98      H      -7.5822088019    -9.3110583879    -6.5420269067
   99      C      -6.3270785097    -7.7603199483    -5.7239846545
  100      N      -8.4414381904    -8.1309786412    -8.7444767751
  101      C      -9.7916843273    -7.9583391580    -8.5290839301
  102      C     -10.7269825360    -8.4823682179    -9.4397615034
  103      C     -10.3197616857    -9.2425557375   -10.6794725911
  104      C     -12.0748992179    -8.2810792960    -9.1736691738
  105      H     -12.8158454617    -8.6742697492    -9.8573222451
  106      C     -12.5065033683    -7.5876145970    -8.0560789604
  107      H     -13.5651301349    -7.4500459483    -7.8822799199
  108      C     -11.5722477001    -7.0698503123    -7.1630338524
  109      H     -11.8950690686    -6.5244321699    -6.2868862822
  110      C     -10.2289425279    -7.2500072713    -7.3921060797
  111      H      -9.5142965226    -6.8429351252    -6.6926409803
  112      C      -7.9427945241    -8.8077752611    -9.8363589817
  113      C      -8.8179495707    -9.3530774651   -10.7935908074
  114      C      -8.2597222211   -10.0185459309   -11.8767103489
  115      H      -8.9085636629   -10.4474200143   -12.6291808134
  116      C      -6.8900324298   -10.1542028881   -12.0274756839
  117      H      -6.4918801009   -10.6787898826   -12.8854368740
  118      C      -6.0335867851    -9.6146320785   -11.0715001901
  119      H      -4.9621376269    -9.7152040850   -11.1762123740
  120      C      -6.5493709318    -8.9478976905    -9.9856929608
  121      H      -5.8774313844    -8.5315169648    -9.2500194313
  122      C      -6.0388239040    -8.5675714953    -4.4862209976
  123      H      -5.9432541963    -9.6235169471    -4.7524230628
  124      H      -5.0815187832    -8.2690027824    -4.0560504631
  125      C      -7.1408525361    -8.4079800781    -3.4408144503
  126      C      -5.5950141553    -4.3849373299    -7.3404687872
  127      H      -6.3451872873    -3.7703867497    -7.8449538142
  128      H      -5.3504160894    -3.8718951173    -6.4090075805
  129      C      -4.3458536759    -4.4789250836    -8.2138836573
  130      H      -3.5730570947    -5.0727418098    -7.7251299351
  131      H      -4.5698892054    -4.9467238686    -9.1741876466
  132      H      -3.9322709448    -3.4894950966    -8.4116058934
  133      H      -7.2326826809    -7.3679058923    -3.1265452404
  134      H      -6.9289456286    -9.0072864171    -2.5547959149
  135      H      -8.1074868827    -8.7246338436    -3.8364077249
  136      H      -1.4171075422    -1.5934432021    -5.6669519660
  137      H      -1.0627632715    -3.1115283571    -4.8469626147
  138      H      -0.1268728602    -1.6663679761    -4.4656052393
  139      C     -10.8662551212    -8.5060145398   -11.9196894948
  140      C     -10.9210381139   -10.6611135300   -10.6147663312
  141      C       2.0563716966     0.3097317723     3.9433575502
  142      C       1.9386069916     2.1043351473     2.1765985039
  143      H       1.5861473632     2.3644377095     1.1779569235
  144      H       3.0192028175     2.2463500819     2.2020017751
  145      H       1.4981918188     2.8071387232     2.8842487602
  146      H       1.7957168898    -0.7162994830     4.2051022128
  147      H       1.6121481933     0.9708908279     4.6875979817
  148      H       3.1385903597     0.4140162229     4.0214715275
  149      H     -10.4545225614    -7.4997373961   -11.9934969672
  150      H     -11.9523291435    -8.4281510190   -11.8760700669
  151      H     -10.6155814360    -9.0449392209   -12.8329779419
  152      H     -10.5503309701   -11.2058259272    -9.7468622532
  153      H     -10.6691555113   -11.2317262501   -11.5083275661
  154      H     -12.0079709902   -10.6185437576   -10.5513604909
 ----------------------------------------------------------------
 Nuclear Repulsion Energy = 13744.3707130609 hartrees
 There are      293 alpha and      291 beta electrons
 Discretize the solute cavity surface with Lebedev spheres
	Using 302 Lebedev grid points for each H atom
	Using 302 Lebedev grid points for other atoms
	Atomic van der Waals radii will be scaled by 1.20
 Remove points where switching function is < 1.0e-08
 Keep 15713 surface tesserae and discard 30795 interior tesserae
 Molecular Surface Area = 1139.704 Angst**2
 Nucleus-field energy     =     0.0000000183 hartrees
 Requested basis set is def2-mSVP
 There are 738 shells and 1426 basis functions
 A cutoff of  1.0D-11 yielded  70151 shell pairs
 There are    271403 function pairs (    298473 Cartesian)
 Smallest overlap matrix eigenvalue = 1.95E-04
 Guess MOs from SCF MO coefficient file

 -----------------------------------------------------------------------
  General SCF calculation program by
  Eric Jon Sundstrom, Paul Horn, Yuezhi Mao, Dmitri Zuev, Alec White,
  David Stuck, Shaama M.S., Shane Yost, Joonho Lee, David Small,
  Daniel Levine, Susi Lehtola, Hugh Burton, Evgeny Epifanovsky
 -----------------------------------------------------------------------
 Exchange:     0.4200 Hartree-Fock + 0.5800 PBEh-3c
 Correlation:  1.0000 PBEh-3c
 Using SG-1 standard quadrature grid
 Dispersion:   Grimme D3
 using 8 threads for integral computing
 -------------------------------------------------------
 OpenMP Integral computing Module                
 Release: version 2.0, May 2017, Q-Chem Inc. Pleasanton 
 -------------------------------------------------------
 -------------------------------------------------------
 OpenMP BLAS3 based DFT computing Module                
 Release: version 1.0, May 2013, Q-Chem Inc. Pittsburgh 
 -------------------------------------------------------
 A unrestricted SCF calculation will be
 performed using DIIS
 SCF converges when DIIS error is below 1.0e-08
 ---------------------------------------
  Cycle       Energy         DIIS error
 ---------------------------------------
 Using non-symmetric K matrix
    1   -3309.7940678115      6.83e-05  
    2   -3317.6652008440      2.41e-04  
    3   -3317.7086804359      1.61e-04  
    4   -3317.7304515487      1.23e-04  
    5   -3317.7473153021      7.17e-05  
    6   -3317.7568388267      2.32e-05  
    7   -3317.7582640676      8.48e-06  
    8   -3317.7585393716      4.81e-06  
    9   -3317.7586695539      3.41e-06  
   10   -3317.7587495304      1.67e-06  
   11   -3317.7587712631      1.72e-06  
   12   -3317.7587804810      6.93e-07  
   13   -3317.7587820979      3.76e-07  
   14   -3317.7587823759      1.57e-07  
   15   -3317.7587824698      8.26e-08  
