mFile = /cm/shared/apps/q-chem/intel/QCHEM_5.1.0_Trunk/bin/mpi/machines
Process 0 of 1 is on ctcp009 - thread support 0
initial socket setup ...start
initial socket setup ...done 
now start server 0 ... 
Q-Chem Developer Version!
                  Welcome to Q-Chem
     A Quantum Leap Into The Future Of Chemistry


 Q-Chem 5.1, Q-Chem, Inc., Pleasanton, CA (2018)

 Yihan Shao,  Zhengting Gan,  E. Epifanovsky,  A. T. B. Gilbert,  M. Wormit,  
 J. Kussmann,  A. W. Lange,  A. Behn,  Jia Deng,  Xintian Feng,  D. Ghosh,  
 M. Goldey,  P. R. Horn,  L. D. Jacobson,  I. Kaliman,  T. Kus,  A. Landau,  
 Jie Liu,  E. I. Proynov,  R. M. Richard,  R. P. Steele,  E. J. Sundstrom,  
 H. L. Woodcock III,  P. M. Zimmerman,  D. Zuev,  B. Albrecht,  E. Alguire,  
 S. A. Baeppler,  D. Barton,  Z. Benda,  Y. A. Bernard,  E. J. Berquist,  
 K. B. Bravaya,  H. Burton,  D. Casanova,  Chun-Min Chang,  Yunqing Chen,  
 A. Chien,  K. D. Closser,  M. P. Coons,  S. Coriani,  S. Dasgupta,  
 A. L. Dempwolff,  M. Diedenhofen,  Hainam Do,  R. G. Edgar,  Po-Tung Fang,  
 S. Faraji,  S. Fatehi,  Qingguo Feng,  K. D. Fenk,  J. Fosso-Tande,  
 Qinghui Ge,  A. Ghysels,  G. Gidofalvi,  J. Gomes,  J. Gonthier,  A. Gunina,  
 D. Hait,  M. W. D. Hanson-Heine,  P. H. P. Harbach,  A. W. Hauser,  
 J. E. Herr,  E. G. Hohenstein,  Z. C. Holden,  Kerwin Hui,  B. C. Huynh,  
 T.-C. Jagau,  Hyunjun Ji,  B. Kaduk,  K. Khistyaev,  Jaehoon Kim,  
 P. Klunzinger,  K. Koh,  D. Kosenkov,  L. Koulias,  T. Kowalczyk,  
 C. M. Krauter,  A. Kunitsa,  Ka Un Lao,  A. Laurent,  K. V. Lawler,  
 Joonho Lee,  D. Lefrancois,  S. Lehtola,  D. S. Levine,  Yi-Pei Li,  
 You-Sheng Lin,  Fenglai Liu,  E. Livshits,  A. Luenser,  P. Manohar,  
 E. Mansoor,  S. F. Manzer,  Shan-Ping Mao,  Yuezhi Mao,  N. Mardirossian,  
 A. V. Marenich,  T. Markovich,  L. A. Martinez-Martinez,  S. A. Maurer,  
 N. J. Mayhall,  S. C. McKenzie,  J.-M. Mewes,  A. F. Morrison,  
 J. W. Mullinax,  K. Nanda,  T. S. Nguyen-Beck,  R. Olivares-Amaya,  
 J. A. Parkhill,  T. M. Perrine,  F. Plasser,  P. Pokhilko,  S. Prager,  
 A. Prociuk,  E. Ramos,  D. R. Rehn,  F. Rob,  M. Schneider,  N. Sergueev,  
 S. M. Sharada,  S. Sharma,  D. W. Small,  T. Stauch,  T. Stein,  
 Yu-Chuan Su,  A. J. W. Thom,  A. Tkatchenko,  T. Tsuchimochi,  N. M. Tubman,  
 L. Vogt,  M. L. Vidal,  O. Vydrov,  M. A. Watson,  J. Wenzel,  
 M. de Wergifosse,  T. A. Wesolowski,  A. White,  J. Witte,  A. Yamada,  
 Jun Yang,  K. Yao,  S. Yeganeh,  S. R. Yost,  Zhi-Qiang You,  A. Zech,  
 Igor Ying Zhang,  Xing Zhang,  Yan Zhao,  Ying Zhu,  B. R. Brooks,  
 G. K. L. Chan,  C. J. Cramer,  M. S. Gordon,  W. J. Hehre,  A. Klamt,  
 M. W. Schmidt,  C. D. Sherrill,  D. G. Truhlar,  A. Aspuru-Guzik,  R. Baer,  
 A. T. Bell,  N. A. Besley,  Jeng-Da Chai,  A. E. DePrince, III,  
 R. A. DiStasio Jr.,  A. Dreuw,  B. D. Dunietz,  T. R. Furlani,  
 Chao-Ping Hsu,  Yousung Jung,  Jing Kong,  D. S. Lambrecht,  WanZhen Liang,  
 C. Ochsenfeld,  V. A. Rassolov,  L. V. Slipchenko,  J. E. Subotnik,  
 T. Van Voorhis,  J. M. Herbert,  A. I. Krylov,  P. M. W. Gill,  M. Head-Gordon

 Contributors to earlier versions of Q-Chem not listed above: 
 R. D. Adamson,  B. Austin,  J. Baker,  G. J. O. Beran,  K. Brandhorst,  
 S. T. Brown,  E. F. C. Byrd,  A. K. Chakraborty,  C.-L. Cheng,  
 Siu Hung Chien,  D. M. Chipman,  D. L. Crittenden,  H. Dachsel,  
 R. J. Doerksen,  A. D. Dutoi,  L. Fusti-Molnar,  W. A. Goddard III,  
 A. Golubeva-Zadorozhnaya,  S. R. Gwaltney,  G. Hawkins,  A. Heyden,  
 S. Hirata,  G. Kedziora,  F. J. Keil,  C. Kelley,  Jihan Kim,  R. A. King,  
 R. Z. Khaliullin,  P. P. Korambath,  W. Kurlancheek,  A. M. Lee,  M. S. Lee,  
 S. V. Levchenko,  Ching Yeh Lin,  D. Liotard,  R. C. Lochan,  I. Lotan,  
 P. E. Maslen,  N. Nair,  D. P. O'Neill,  D. Neuhauser,  E. Neuscamman,  
 C. M. Oana,  R. Olson,  B. Peters,  R. Peverati,  P. A. Pieniazek,  
 Y. M. Rhee,  J. Ritchie,  M. A. Rohrdanz,  E. Rosta,  N. J. Russ,  
 H. F. Schaefer III,  N. E. Schultz,  N. Shenvi,  A. C. Simmonett,  A. Sodt,  
 D. Stuck,  K. S. Thanthiriwatte,  V. Vanovschi,  Tao Wang,  A. Warshel,  
 C. F. Williams,  Q. Wu,  X. Xu,  W. Zhang

 Please cite Q-Chem as follows:
 Y. Shao et al., Mol. Phys. 113, 184-215 (2015)
 DOI: 10.1080/00268976.2014.952696

 Q-Chem 5.1.1 for Intel X86 EM64T Linux

 Parts of Q-Chem use Armadillo 8.300.2 (Tropical Shenanigans).
 http://arma.sourceforge.net/

 Q-Chem begins on Tue Nov 27 16:27:33 2018  

Host: ctcp009
0

     Scratch files written to /scratch/mewes/140565/qchem94011//
 Parallel job on  1  processors
The previous job contains 0 fragments, simply inherited here
Symmetry turned off for PCM/SM12/SMD calculation
Input Ideriv = 2
Curr. Ideriv = -1
Max.  Ideriv = 2
Input Ideriv = 2
Curr. Ideriv = 2
Max.  Ideriv = 2

Checking the input file for inconsistencies... 	...done.

--------------------------------------------------------------
User input:
--------------------------------------------------------------
$rem
threads 8
jobtype opt
method PBEh-3c
basis def2-mSVP
mem_static      1024
mem_total       8000
sym_ignore      true
unrestricted true
scf_algorithm   diis
scf_max_cycles  250
solvent_method  pcm
geom_opt_tol_energy 25
geom_opt_tol_gradient 75
$end

$pcm
theory  iefpcm
$end

$solvent
dielectric      2.03
$end

$molecule
read uincoords.mol
$end

--------------------------------------------------------------
 Adding empirical dispersion correction 
 ----------------------------------------------------------------
 Doing -D3(BJ) with
 s6 =   1.00000
 s8 =   0.00000
 a1 =   0.48600
 a2 =   4.50000
 -D3 energy including 3body term =     -0.1507731752 hartrees
 ----------------------------------------------------------------
 Adding gCP correction 
 ----------------------------------------------------------------
 gCP energy =      0.2100884175 hartrees
 ----------------------------------------------------------------
             Standard Nuclear Orientation (Angstroms)
    I     Atom           X                Y                Z
 ----------------------------------------------------------------
    1      N       0.1593970000    -1.1728530000     0.7182300000
    2      C      -0.4299490000    -0.5017740000     1.7813450000
    3      C       0.3380760000     0.2718040000     2.6572380000
    4      C       1.8367800000     0.4455620000     2.4910700000
    5      C      -0.3118980000     0.9180430000     3.7043370000
    6      H       0.2709970000     1.5216050000     4.3895860000
    7      C      -1.6770780000     0.8261910000     3.9048890000
    8      H      -2.1453670000     1.3442860000     4.7307470000
    9      C      -2.4274190000     0.0625910000     3.0253390000
   10      H      -3.4987840000    -0.0275680000     3.1509960000
   11      C      -1.8149620000    -0.5921790000     1.9765590000
   12      H      -2.4164470000    -1.1808690000     1.2990380000
   13      C       1.5284100000    -1.1241410000     0.4929560000
   14      C       2.0836300000    -1.8439730000    -0.5730220000
   15      H       1.4459530000    -2.4394910000    -1.2103950000
   16      C       3.4393650000    -1.8020860000    -0.8261660000
   17      H       3.8382750000    -2.3669550000    -1.6588210000
   18      C       4.2763940000    -1.0433340000    -0.0241030000
   19      H       5.3401010000    -0.9992180000    -0.2144870000
   20      C       3.7242330000    -0.3397240000     1.0304380000
   21      H       4.3800930000     0.2533170000     1.6561640000
   22      C       2.3628270000    -0.3617930000     1.3161900000
   23      C      -0.6584000000    -1.9382520000    -0.1607810000
   24      C      -0.9887580000    -3.2441550000     0.1551850000
   25      H      -0.6258690000    -3.6728090000     1.0829420000
   26      C      -1.7864340000    -3.9992120000    -0.6986780000
   27      C      -1.1227260000    -1.3805840000    -1.3392870000
   28      H      -0.8592650000    -0.3567110000    -1.5805480000
   29      C      -1.9099280000    -2.1235110000    -2.2124960000
   30      C      -2.2567720000    -3.4481930000    -1.9003430000
   31      C      -2.3281040000    -1.4941170000    -3.5170700000
   32      H      -2.3842120000    -0.4091570000    -3.3951290000
   33      H      -3.3332340000    -1.8209090000    -3.7913580000
   34      C      -1.3627900000    -1.8258210000    -4.6533070000
   35      C      -2.1774100000    -5.3926810000    -0.2779300000
   36      H      -1.3847610000    -5.8216370000     0.3410050000
   37      H      -2.2658610000    -6.0411080000    -1.1522080000
   38      C      -3.4913020000    -5.4112050000     0.4997160000
   39      H      -4.3145520000    -5.0418740000    -0.1114800000
   40      H      -3.7424600000    -6.4236440000     0.8191110000
   41      H      -3.4290830000    -4.7841590000     1.3901850000
   42      B      -3.1763290000    -4.2853930000    -2.8850710000
   43      C      -4.6984080000    -4.0511420000    -2.8909300000
   44      C      -5.2919760000    -3.1462800000    -1.9892560000
   45      H      -4.6600990000    -2.6139580000    -1.2859780000
   46      C      -6.6519060000    -2.9342620000    -1.9897260000
   47      C      -7.4737830000    -3.6364490000    -2.9191020000
   48      C      -6.9161440000    -4.5160440000    -3.8108200000
   49      H      -7.5545380000    -5.0379240000    -4.5169660000
   50      C      -5.5297870000    -4.7513470000    -3.8215770000
   51      C      -7.5249920000    -2.0853280000    -1.1813960000
   52      C      -7.3523350000    -1.1956420000    -0.1498280000
   53      H      -6.3726130000    -0.9768310000     0.2557730000
   54      C      -8.8386620000    -2.3070950000    -1.6474280000
   55      C      -9.9777620000    -1.6912400000    -1.1342790000
   56      C      -8.8582130000    -3.2397910000    -2.7028450000
   57      C     -10.0672530000    -3.5674510000    -3.2675460000
   58      H     -10.1398860000    -4.2779500000    -4.0823580000
   59      C      -8.4900820000    -0.5534680000     0.3900210000
   60      H      -8.3469640000     0.1468710000     1.2030240000
   61      C      -9.7660800000    -0.7811820000    -0.0718550000
   62      H     -10.6058490000    -0.2647670000     0.3768450000
   63      C     -11.2103180000    -2.0478430000    -1.7337190000
   64      H     -12.1333090000    -1.6050060000    -1.3795090000
   65      C     -11.2372630000    -2.9572880000    -2.7662460000
   66      H     -12.1905570000    -3.2156520000    -3.2108770000
   67      C      -2.5703900000    -5.3181300000    -3.8542950000
   68      C      -1.1892770000    -5.5971600000    -3.8441140000
   69      H      -0.5499530000    -5.0622610000    -3.1493930000
   70      C      -0.6487220000    -6.5397110000    -4.6902010000
   71      C      -1.4960550000    -7.2355050000    -5.6009820000
   72      C      -2.8400810000    -6.9653080000    -5.6428440000
   73      H      -3.4731190000    -7.4986700000    -6.3454020000
   74      C      -3.4126330000    -6.0152920000    -4.7788160000
   75      C       0.7083850000    -7.0506450000    -4.8727440000
   76      C       1.9343840000    -6.8064680000    -4.3058250000
   77      H       2.0643050000    -6.0683460000    -3.5245540000
   78      C       0.6312500000    -8.0363310000    -5.8801300000
   79      C       1.7086140000    -8.7869540000    -6.3418850000
   80      C      -0.6878500000    -8.1833510000    -6.3521260000
   81      C      -0.9399410000    -9.1181950000    -7.3260130000
   82      H      -1.9375260000    -9.2775170000    -7.7174890000
   83      C       3.0486100000    -7.5492500000    -4.7580640000
   84      H       4.0130390000    -7.3533690000    -4.3070440000
   85      C       2.9586780000    -8.5096450000    -5.7395650000
   86      H       3.8430230000    -9.0541010000    -6.0469980000
   87      C       1.4225590000    -9.7411890000    -7.3486960000
   88      H       2.2165010000   -10.3587840000    -7.7505590000
   89      C       0.1359520000    -9.8902120000    -7.8144550000
   90      H      -0.0605770000   -10.6297310000    -8.5809170000
   91      B      -4.9127990000    -5.7338100000    -4.8142130000
   92      C      -5.8391260000    -6.4372380000    -5.9076030000
   93      C      -6.1929170000    -5.7406540000    -7.0755330000
   94      C      -7.0288290000    -6.3272490000    -8.0202250000
   95      H      -7.3156180000    -5.7835030000    -8.9136410000
   96      C      -7.4960720000    -7.6068940000    -7.8046100000
   97      C      -7.1561310000    -8.3242740000    -6.6776710000
   98      H      -7.5416260000    -9.3274470000    -6.5312440000
   99      C      -6.3286480000    -7.7392730000    -5.7233100000
  100      N      -8.4006630000    -8.1927380000    -8.7655840000
  101      C      -9.7453240000    -8.0288710000    -8.5663560000
  102      C     -10.6742820000    -8.5684030000    -9.4810950000
  103      C     -10.2472210000    -9.3391230000   -10.7054070000
  104      C     -12.0211770000    -8.3651130000    -9.2310290000
  105      H     -12.7564600000    -8.7647280000    -9.9160200000
  106      C     -12.4612230000    -7.6590830000    -8.1243060000
  107      H     -13.5205620000    -7.5192590000    -7.9620290000
  108      C     -11.5366690000    -7.1297520000    -7.2262030000
  109      H     -11.8704920000    -6.5772750000    -6.3602510000
  110      C     -10.1944660000    -7.3068870000    -7.4393320000
  111      H      -9.4812200000    -6.8932920000    -6.7441960000
  112      C      -7.8866620000    -8.8818060000    -9.8317020000
  113      C      -8.7460050000    -9.4552960000   -10.7937600000
  114      C      -8.1684600000   -10.1393460000   -11.8500240000
  115      H      -8.8011270000   -10.5872210000   -12.6044630000
  116      C      -6.7952690000   -10.2690620000   -11.9734090000
  117      H      -6.3799510000   -10.8102640000   -12.8117130000
  118      C      -5.9547160000    -9.7024520000   -11.0172040000
  119      H      -4.8827190000    -9.8000280000   -11.1058460000
  120      C      -6.4871000000    -9.0161950000    -9.9569140000
  121      H      -5.8367950000    -8.5769270000    -9.2169510000
  122      C      -6.0413920000    -8.5161380000    -4.4673660000
  123      H      -5.9406350000    -9.5783200000    -4.7072540000
  124      H      -5.0860430000    -8.2030850000    -4.0464460000
  125      C      -7.1450350000    -8.3271950000    -3.4286860000
  126      C      -5.6498280000    -4.3690500000    -7.3704360000
  127      H      -6.3890420000    -3.7958510000    -7.9367710000
  128      H      -5.4857330000    -3.8255720000    -6.4399610000
  129      C      -4.3449210000    -4.4431510000    -8.1597850000
  130      H      -3.5817030000    -4.9812910000    -7.5993600000
  131      H      -4.4849540000    -4.9529980000    -9.1148810000
  132      H      -3.9613960000    -3.4444290000    -8.3675620000
  133      H      -7.2352890000    -7.2797260000    -3.1429130000
  134      H      -6.9301240000    -8.8994760000    -2.5264080000
  135      H      -8.1129760000    -8.6578920000    -3.8104320000
  136      H      -1.6736590000    -1.3457730000    -5.5825350000
  137      H      -1.3215890000    -2.8999620000    -4.8323480000
  138      H      -0.3520690000    -1.4870170000    -4.4222990000
  139      C     -10.7649640000    -8.6074500000   -11.9618680000
  140      C     -10.8573360000   -10.7553070000   -10.6430950000
  141      C       2.5380000000    -0.0235590000     3.7762030000
  142      C       2.1327950000     1.9341400000     2.2429820000
  143      H       1.6408060000     2.2760860000     1.3324880000
  144      H       3.2029650000     2.1143370000     2.1346740000
  145      H       1.7763300000     2.5517550000     3.0682610000
  146      H       2.3231830000    -1.0746480000     3.9683760000
  147      H       2.2074220000     0.5506980000     4.6423120000
  148      H       3.6200820000     0.0901170000     3.7054520000
  149      H     -10.3480410000    -7.6039750000   -12.0365940000
  150      H     -11.8506760000    -8.5214090000   -11.9430850000
  151      H     -10.4985230000    -9.1519040000   -12.8669420000
  152      H     -10.5112140000   -11.2975270000    -9.7643020000
  153      H     -10.5895800000   -11.3356280000   -11.5250220000
  154      H     -11.9447890000   -10.7095090000   -10.6048480000
 ----------------------------------------------------------------
 Nuclear Repulsion Energy = 13748.0058826392 hartrees
 There are      293 alpha and      291 beta electrons
 Requested basis set is def2-mSVP
 There are 738 shells and 1426 basis functions

 Total QAlloc Memory Limit   8000 MB
 Mega-Array Size      1001 MB
 MEM_STATIC part      1024 MB
 Discretize the solute cavity surface with Lebedev spheres
	Using 302 Lebedev grid points for each H atom
	Using 302 Lebedev grid points for other atoms
	Atomic van der Waals radii will be scaled by 1.20
 Remove points where switching function is < 1.0e-08
 Keep 15671 surface tesserae and discard 30837 interior tesserae
 Molecular Surface Area = 1137.235 Angst**2
 A cutoff of  1.0D-11 yielded  70187 shell pairs
 There are    271673 function pairs (    298758 Cartesian)
 
 -------------------------------------------------------
 OpenMP Integral Computing Module                       
 Release: version 1.0, May 2013, Q-Chem Inc. Pittsburgh 
 -------------------------------------------------------
 Integral Job Info:
 Integral job number is                      11
 Integral operator is                         1
 short-range coefficients                     0
 long-range coefficients              100000000
 Omega coefficients                           0
 if combine SR and LR in K                    0
 Integral screening is                        0
 Integral computing path is                   2
 max size of driver memory is            800000
 size of driver memory is                593474
 size of scratch memory is              1809772
 max col of scratch BK array               1296
 max len of scratch array in speh3          155
 max len of scratch index in speh4           18
 max int batch size is                      520
 min int batch size is                       52
 fixed nKL is                                52
 max L of basis functions is                  2
 order of int derivative is                   0
 number of shells is                        738
 number of basis is                        1512
 number of cartesian basis is              1512
 number of contracted shell pairs         70187
 number of primitive shell pairs         144860
 maxK2 (contraction) of shell pair           25
 max number of K2 of shell pair               1
 max number of CS2 of shell pair          17350
 max number of PS2 of shell pair          25530
 mem total for path MDJ                 1196540
 -------------------------------------------------------
 Smallest overlap matrix eigenvalue = 1.94E-04

 Scale SEOQF with 1.000000e-02/1.000000e-02/1.000000e-02

 Standard Electronic Orientation quadrupole field applied
 Nucleus-field energy     =     0.0000000191 hartrees
 Guess from superposition of atomic densities
 Warning:  Energy on first SCF cycle will be non-variational
 SAD guess density has 584.000001 electrons

 -----------------------------------------------------------------------
  General SCF calculation program by
  Eric Jon Sundstrom, Paul Horn, Yuezhi Mao, Dmitri Zuev, Alec White,
  David Stuck, Shaama M.S., Shane Yost, Joonho Lee, David Small,
  Daniel Levine, Susi Lehtola, Hugh Burton, Evgeny Epifanovsky
 -----------------------------------------------------------------------
 Exchange:     0.4200 Hartree-Fock + 0.5800 PBEh-3c
 Correlation:  1.0000 PBEh-3c
 Using SG-1 standard quadrature grid
 Dispersion:   Grimme D3
 using 8 threads for integral computing
 -------------------------------------------------------
 OpenMP Integral computing Module                
 Release: version 2.0, May 2017, Q-Chem Inc. Pleasanton 
 -------------------------------------------------------
 -------------------------------------------------------
 OpenMP BLAS3 based DFT computing Module                
 Release: version 1.0, May 2013, Q-Chem Inc. Pittsburgh 
 -------------------------------------------------------
 A unrestricted SCF calculation will be
 performed using DIIS
 SCF converges when DIIS error is below 1.0e-08
 ---------------------------------------
  Cycle       Energy         DIIS error
 ---------------------------------------
 Using non-symmetric K matrix
    1   -3346.4002724704      1.13e-02  
    2   -3316.9260854328      8.17e-04  
    3   -3316.1981835126      1.07e-03  
    4   -3317.4293912502      4.80e-04  
    5   -3317.7107864599      9.17e-05  
    6   -3317.7178641453      7.05e-05  
    7   -3317.7235416368      2.12e-05  
    8   -3317.7241621576      9.63e-06  
    9   -3317.7244379076      5.14e-06  
   10   -3317.7245543248      3.32e-06  
   11   -3317.7246285578      1.90e-06  
   12   -3317.7246548133      1.33e-06  
   13   -3317.7246672633      8.35e-07  
   14   -3317.7246733259      5.59e-07  
   15   -3317.7246751329      2.78e-07  
   16   -3317.7246757974      1.87e-07  
   17   -3317.7246760711      1.29e-07  
   18   -3317.7246763095      8.80e-08  
   19   -3317.7246763941      5.33e-08  
   20   -3317.7246764246      2.82e-08  
   21   -3317.7246764296      1.46e-08  
   22   -3317.7246764310      8.79e-09  Convergence criterion met
 ---------------------------------------
 SCF time:   CPU 54304.02s  wall 7466.00s 
<S^2> =          2.096447963

************** Final PCM Free Energy Summary **************
 G_electrostatic  =      -0.02875572 hartree =     -18.04448844 kcal/mol
 G_cavitation     =       0.00000000 hartree =       0.00000000 kcal/mol
 G_dispersion     =       0.00000000 hartree =       0.00000000 kcal/mol
 G_repulsion      =       0.00000000 hartree =       0.00000000 kcal/mol
 --------------------------------------------------
 Non-electrostatic Free Energy =       0.00000000 hartree =       0.00000000 kcal/mol
 Total                         =      -0.02875572 hartree =     -18.04448844 kcal/mol
 --------------------------------------------------
 SCF Energy (H0 + V/2)                       =   -3317.72467643 
 Solute Internal Energy (H0)                 =   -3317.69592071 
 Total Free Energy (H0 + V/2 + non-elec)     =   -3317.72467643 hartree
                                             = -2081903.65663084 kcal/mol
***********************************************************

 SCF   energy in the final basis set =    -3317.7246764310
 Total energy in the final basis set =    -3317.7246764310
 
 --------------------------------------------------------------
 
                    Orbital Energies (a.u.)
 --------------------------------------------------------------
 
 Alpha MOs
 -- Occupied --
-14.800 -14.659 -10.559 -10.558 -10.523 -10.523 -10.523 -10.515
-10.504 -10.504 -10.504 -10.503 -10.496 -10.496 -10.494 -10.493
-10.477 -10.477 -10.470 -10.470 -10.466 -10.465 -10.463 -10.463
-10.461 -10.455 -10.445 -10.445 -10.443 -10.443 -10.442 -10.442
-10.441 -10.441 -10.440 -10.439 -10.439 -10.439 -10.439 -10.439
-10.439 -10.438 -10.438 -10.438 -10.437 -10.436 -10.433 -10.433
-10.432 -10.430 -10.430 -10.429 -10.429 -10.429 -10.429 -10.428
-10.428 -10.428 -10.427 -10.426 -10.426 -10.424 -10.424 -10.424
-10.423 -10.423 -10.422 -10.421 -10.421 -10.420 -10.420 -10.419
-10.417 -10.413 -10.413 -10.412 -10.412 -10.403 -10.400 -10.400
-10.396 -10.396 -10.395 -10.395  -6.891  -6.890  -1.185  -1.072
 -1.026  -1.023  -0.991  -0.991  -0.979  -0.967  -0.953  -0.944
 -0.934  -0.931  -0.930  -0.917  -0.913  -0.912  -0.898  -0.897
 -0.897  -0.895  -0.879  -0.874  -0.871  -0.868  -0.851  -0.847
 -0.836  -0.828  -0.827  -0.827  -0.826  -0.822  -0.819  -0.815
 -0.813  -0.803  -0.801  -0.793  -0.789  -0.787  -0.782  -0.779
 -0.775  -0.775  -0.770  -0.757  -0.737  -0.727  -0.725  -0.710
 -0.709  -0.706  -0.705  -0.704  -0.695  -0.694  -0.692  -0.686
 -0.682  -0.679  -0.673  -0.670  -0.666  -0.655  -0.655  -0.651
 -0.644  -0.638  -0.624  -0.621  -0.618  -0.618  -0.611  -0.602
 -0.601  -0.598  -0.593  -0.588  -0.582  -0.581  -0.574  -0.572
 -0.570  -0.568  -0.566  -0.560  -0.552  -0.552  -0.551  -0.549
 -0.545  -0.538  -0.536  -0.535  -0.529  -0.528  -0.522  -0.519
 -0.516  -0.515  -0.510  -0.508  -0.505  -0.504  -0.502  -0.502
 -0.496  -0.493  -0.489  -0.485  -0.483  -0.483  -0.482  -0.481
 -0.479  -0.477  -0.476  -0.474  -0.472  -0.472  -0.470  -0.469
 -0.466  -0.466  -0.465  -0.465  -0.464  -0.462  -0.462  -0.462
 -0.461  -0.458  -0.456  -0.454  -0.452  -0.450  -0.445  -0.442
 -0.440  -0.437  -0.435  -0.434  -0.432  -0.431  -0.431  -0.429
 -0.424  -0.420  -0.419  -0.415  -0.414  -0.414  -0.410  -0.409
 -0.408  -0.405  -0.402  -0.402  -0.402  -0.400  -0.392  -0.392
 -0.388  -0.386  -0.384  -0.383  -0.377  -0.377  -0.376  -0.373
 -0.373  -0.372  -0.371  -0.369  -0.367  -0.364  -0.359  -0.358
 -0.357  -0.352  -0.349  -0.349  -0.345  -0.342  -0.341  -0.335
 -0.323  -0.319  -0.309  -0.303  -0.297  -0.295  -0.291  -0.287
 -0.284  -0.279  -0.277  -0.275  -0.270  -0.260  -0.257  -0.254
 -0.243  -0.233  -0.228  -0.207  -0.138
 -- Virtual --
 -0.051  -0.047  -0.042  -0.030  -0.019  -0.013  -0.005  -0.001
  0.007   0.017   0.024   0.025   0.026   0.034   0.037   0.041
  0.053   0.063   0.074   0.090   0.091   0.106   0.109   0.110
  0.112   0.114   0.124   0.131   0.136   0.139   0.139   0.142
  0.143   0.145   0.156   0.158   0.158   0.160   0.163   0.165
  0.167   0.171   0.172   0.174   0.178   0.180   0.182   0.183
  0.184   0.185   0.186   0.190   0.190   0.191   0.195   0.197
  0.200   0.202   0.204   0.205   0.206   0.207   0.208   0.209
  0.212   0.213   0.214   0.214   0.215   0.219   0.219   0.220
  0.221   0.222   0.224   0.224   0.226   0.228   0.229   0.231
  0.233   0.234   0.235   0.235   0.236   0.237   0.238   0.242
  0.243   0.244   0.246   0.246   0.249   0.250   0.251   0.252
  0.253   0.255   0.257   0.260   0.261   0.261   0.264   0.264
  0.265   0.266   0.269   0.270   0.272   0.273   0.275   0.278
  0.280   0.282   0.284   0.286   0.288   0.289   0.291   0.293
  0.294   0.298   0.298   0.300   0.301   0.302   0.304   0.305
  0.308   0.308   0.312   0.313   0.318   0.320   0.323   0.324
  0.325   0.327   0.330   0.331   0.333   0.336   0.337   0.338
  0.343   0.344   0.347   0.352   0.356   0.358   0.364   0.367
  0.370   0.376   0.377   0.380   0.385   0.386   0.388   0.392
  0.393   0.397   0.402   0.403   0.406   0.410   0.417   0.422
  0.424   0.431   0.435   0.437   0.440   0.446   0.451   0.453
  0.455   0.457   0.458   0.459   0.461   0.463   0.463   0.467
  0.476   0.478   0.479   0.481   0.486   0.489   0.491   0.492
  0.495   0.496   0.499   0.504   0.505   0.508   0.511   0.511
  0.512   0.514   0.516   0.517   0.518   0.519   0.522   0.524
  0.527   0.527   0.528   0.532   0.535   0.536   0.542   0.544
  0.544   0.547   0.547   0.550   0.553   0.555   0.556   0.557
  0.558   0.559   0.561   0.562   0.564   0.564   0.567   0.569
  0.570   0.572   0.572   0.572   0.574   0.577   0.578   0.578
  0.580   0.580   0.580   0.581   0.582   0.584   0.585   0.589
  0.590   0.592   0.593   0.602   0.603   0.604   0.605   0.606
  0.606   0.608   0.609   0.610   0.611   0.611   0.613   0.614
  0.615   0.618   0.620   0.622   0.623   0.624   0.624   0.625
  0.627   0.629   0.632   0.635   0.638   0.638   0.640   0.640
  0.642   0.643   0.645   0.645   0.647   0.648   0.648   0.650
  0.650   0.652   0.656   0.657   0.659   0.661   0.662   0.664
  0.665   0.671   0.672   0.672   0.677   0.677   0.680   0.683
  0.684   0.685   0.688   0.688   0.689   0.691   0.692   0.693
  0.698   0.707   0.708   0.710   0.711   0.713   0.715   0.720
  0.721   0.722   0.725   0.726   0.727   0.728   0.734   0.735
  0.737   0.739   0.746   0.749   0.750   0.753   0.756   0.757
  0.759   0.760   0.762   0.767   0.769   0.769   0.773   0.775
  0.776   0.779   0.781   0.781   0.784   0.788   0.790   0.793
  0.794   0.796   0.798   0.799   0.802   0.805   0.806   0.812
  0.813   0.815   0.815   0.821   0.825   0.826   0.828   0.829
  0.831   0.836   0.838   0.841   0.844   0.845   0.850   0.857
  0.862   0.865   0.867   0.871   0.876   0.878   0.878   0.885
  0.886   0.890   0.900   0.900   0.901   0.909   0.910   0.912
  0.916   0.919   0.921   0.924   0.925   0.928   0.930   0.934
  0.935   0.938   0.939   0.940   0.944   0.951   0.952   0.959
  0.960   0.963   0.965   0.967   0.968   0.970   0.973   0.974
  0.977   0.982   0.983   0.986   0.990   0.992   0.993   0.996
  0.998   1.000   1.000   1.001   1.004   1.006   1.006   1.007
  1.008   1.009   1.012   1.016   1.018   1.018   1.019   1.021
  1.022   1.024   1.026   1.027   1.033   1.034   1.038   1.040
  1.042   1.044   1.047   1.048   1.051   1.051   1.052   1.056
  1.058   1.059   1.060   1.062   1.063   1.064   1.066   1.067
  1.068   1.069   1.070   1.073   1.075   1.078   1.079   1.083
  1.083   1.087   1.089   1.090   1.091   1.094   1.096   1.099
  1.100   1.104   1.105   1.108   1.110   1.112   1.114   1.116
  1.119   1.121   1.124   1.124   1.126   1.127   1.135   1.142
  1.144   1.145   1.147   1.149   1.150   1.153   1.159   1.160
  1.163   1.165   1.166   1.169   1.172   1.176   1.179   1.181
  1.184   1.186   1.192   1.193   1.194   1.195   1.201   1.206
  1.211   1.213   1.216   1.225   1.225   1.235   1.236   1.238
  1.240   1.241   1.247   1.255   1.255   1.259   1.263   1.266
  1.268   1.273   1.276   1.280   1.281   1.286   1.289   1.293
  1.295   1.301   1.302   1.303   1.306   1.307   1.314   1.315
  1.316   1.319   1.321   1.325   1.326   1.328   1.332   1.334
  1.338   1.346   1.348   1.349   1.351   1.352   1.354   1.356
  1.361   1.363   1.368   1.370   1.380   1.385   1.387   1.390
  1.392   1.394   1.399   1.402   1.403   1.406   1.408   1.409
  1.414   1.417   1.419   1.422   1.429   1.431   1.431   1.438
  1.439   1.445   1.446   1.448   1.449   1.460   1.461   1.462
  1.466   1.468   1.470   1.476   1.478   1.480   1.483   1.484
  1.495   1.497   1.504   1.505   1.510   1.512   1.515   1.516
  1.520   1.523   1.526   1.531   1.532   1.534   1.537   1.538
  1.545   1.547   1.550   1.552   1.552   1.554   1.560   1.561
  1.565   1.568   1.568   1.572   1.575   1.576   1.579   1.582
  1.584   1.588   1.589   1.594   1.595   1.598   1.603   1.609
  1.610   1.611   1.615   1.617   1.622   1.630   1.636   1.637
  1.644   1.647   1.651   1.655   1.665   1.666   1.674   1.677
  1.679   1.682   1.689   1.693   1.696   1.707   1.717   1.719
  1.724   1.725   1.742   1.745   1.748   1.754   1.762   1.765
  1.772   1.774   1.775   1.777   1.782   1.784   1.792   1.796
  1.797   1.805   1.813   1.816   1.818   1.823   1.826   1.831
  1.832   1.834   1.835   1.837   1.841   1.844   1.844   1.846
  1.847   1.848   1.853   1.862   1.864   1.870   1.872   1.872
  1.879   1.887   1.890   1.894   1.896   1.902   1.909   1.916
  1.922   1.926   1.928   1.932   1.932   1.935   1.938   1.940
  1.941   1.943   1.944   1.950   1.954   1.955   1.959   1.961
  1.964   1.966   1.968   1.970   1.982   1.991   1.996   1.999
  2.000   2.003   2.004   2.005   2.006   2.012   2.016   2.017
  2.017   2.019   2.026   2.033   2.049   2.051   2.054   2.056
  2.061   2.062   2.065   2.066   2.075   2.080   2.082   2.083
  2.085   2.087   2.087   2.090   2.091   2.095   2.101   2.107
  2.110   2.111   2.115   2.123   2.125   2.130   2.130   2.132
  2.132   2.134   2.145   2.147   2.151   2.152   2.154   2.157
  2.158   2.161   2.163   2.167   2.179   2.181   2.183   2.186
  2.190   2.195   2.196   2.200   2.205   2.208   2.215   2.217
  2.217   2.224   2.225   2.226   2.227   2.230   2.232   2.234
  2.235   2.238   2.252   2.253   2.255   2.260   2.266   2.269
  2.272   2.272   2.277   2.285   2.286   2.287   2.289   2.295
  2.296   2.296   2.298   2.300   2.301   2.302   2.303   2.308
  2.311   2.314   2.318   2.324   2.326   2.328   2.330   2.334
  2.336   2.338   2.341   2.343   2.344   2.352   2.352   2.358
  2.358   2.360   2.362   2.363   2.369   2.370   2.370   2.372
  2.374   2.378   2.380   2.381   2.382   2.384   2.385   2.389
  2.398   2.402   2.404   2.408   2.411   2.412   2.412   2.418
  2.425   2.429   2.430   2.431   2.433   2.434   2.435   2.440
  2.445   2.453   2.454   2.458   2.460   2.462   2.467   2.475
  2.482   2.490   2.493   2.493   2.496   2.502   2.510   2.511
  2.513   2.523   2.525   2.527   2.529   2.537   2.544   2.545
  2.548   2.555   2.557   2.566   2.571   2.578   2.587   2.595
  2.605   2.609   2.622   2.623   2.628   2.637   2.640   2.641
  2.647   2.658   2.664   2.666   2.666   2.667   2.671   2.684
  2.696   2.697   2.703   2.706   2.710   2.712   2.716   2.718
  2.720   2.724   2.733   2.735   2.735   2.740   2.744   2.745
  2.749   2.752   2.753   2.756   2.759   2.765   2.771   2.775
  2.776   2.779   2.785   2.788   2.802   2.805   2.806   2.808
  2.810   2.812   2.812   2.813   2.813   2.818   2.819   2.826
  2.828   2.831   2.832   2.835   2.836   2.836   2.848   2.848
  2.859   2.865   2.869   2.875   2.889   2.892   2.895   2.897
  2.901   2.905   2.910   2.915   2.919   2.932   2.935   2.942
  2.953   2.955   2.967   2.972   2.981   2.984   2.985   2.989
  2.991   3.004   3.020   3.021   3.031   3.032   3.042   3.048
  3.063   3.080   3.094   3.096   3.103   3.107   3.139   3.141
  3.162   3.210   3.217   3.260   3.271   3.282   3.285   3.358
  3.426   3.432   3.461   3.475   3.485   3.505   3.514   3.514
  3.523   3.531   3.546   3.587   3.597   3.691   3.703   9.646
  9.804  13.167  13.190  13.201  13.263  13.282  13.352  13.474
 13.525  13.532  13.546  13.562  13.577  13.593  13.652  13.661
 13.671  13.679  13.701  13.719  13.724  13.754  13.756  13.779
 13.791  13.798  13.815  13.824  13.826  13.828  13.851  13.864
 13.882  13.886  13.896  13.916  13.943  13.951  14.032  14.036
 14.044  14.048  14.059  14.061  14.062  14.070  14.071  14.109
 14.127  14.153  14.179  14.185  14.186  14.187  14.189  14.199
 14.202  14.231  14.238  14.241  14.248  14.258  14.276  14.297
 14.309  14.311  14.327  14.341  14.345  14.371  14.372  14.522
 14.533  14.538  14.538  14.587  14.601  14.602  14.603  14.606
 14.608  14.622  14.643  19.530  19.663
 
 Beta MOs
 -- Occupied --
-14.788 -14.659 -10.560 -10.560 -10.523 -10.520 -10.520 -10.515
-10.501 -10.501 -10.500 -10.500 -10.498 -10.498 -10.495 -10.495
-10.477 -10.477 -10.469 -10.469 -10.466 -10.465 -10.463 -10.463
-10.461 -10.455 -10.446 -10.445 -10.444 -10.443 -10.442 -10.441
-10.441 -10.440 -10.440 -10.440 -10.440 -10.440 -10.440 -10.439
-10.438 -10.438 -10.437 -10.437 -10.437 -10.436 -10.434 -10.433
-10.431 -10.430 -10.430 -10.429 -10.429 -10.429 -10.429 -10.427
-10.427 -10.427 -10.426 -10.426 -10.426 -10.424 -10.424 -10.424
-10.423 -10.423 -10.422 -10.422 -10.422 -10.420 -10.420 -10.419
-10.417 -10.413 -10.413 -10.412 -10.412 -10.403 -10.400 -10.400
-10.396 -10.396 -10.395 -10.394  -6.888  -6.887  -1.166  -1.072
 -1.021  -1.019  -0.991  -0.991  -0.977  -0.964  -0.953  -0.944
 -0.933  -0.930  -0.929  -0.914  -0.912  -0.911  -0.898  -0.895
 -0.895  -0.894  -0.877  -0.871  -0.871  -0.868  -0.847  -0.845
 -0.836  -0.827  -0.826  -0.825  -0.825  -0.822  -0.816  -0.814
 -0.811  -0.802  -0.801  -0.790  -0.788  -0.786  -0.782  -0.774
 -0.773  -0.773  -0.770  -0.757  -0.734  -0.725  -0.723  -0.709
 -0.707  -0.705  -0.704  -0.703  -0.695  -0.694  -0.691  -0.686
 -0.680  -0.677  -0.670  -0.670  -0.665  -0.655  -0.655  -0.647
 -0.640  -0.636  -0.623  -0.619  -0.618  -0.618  -0.611  -0.602
 -0.601  -0.594  -0.586  -0.580  -0.580  -0.575  -0.572  -0.571
 -0.568  -0.567  -0.564  -0.560  -0.552  -0.551  -0.550  -0.544
 -0.540  -0.536  -0.535  -0.534  -0.528  -0.527  -0.522  -0.518
 -0.516  -0.510  -0.507  -0.504  -0.504  -0.501  -0.501  -0.496
 -0.494  -0.492  -0.488  -0.485  -0.483  -0.482  -0.481  -0.481
 -0.477  -0.476  -0.474  -0.473  -0.472  -0.471  -0.469  -0.466
 -0.465  -0.465  -0.464  -0.464  -0.462  -0.462  -0.461  -0.460
 -0.460  -0.458  -0.455  -0.454  -0.452  -0.444  -0.441  -0.441
 -0.440  -0.436  -0.434  -0.432  -0.430  -0.430  -0.429  -0.424
 -0.420  -0.417  -0.417  -0.414  -0.414  -0.413  -0.409  -0.408
 -0.407  -0.405  -0.402  -0.400  -0.399  -0.398  -0.392  -0.391
 -0.387  -0.385  -0.384  -0.382  -0.376  -0.374  -0.374  -0.373
 -0.372  -0.371  -0.370  -0.369  -0.366  -0.363  -0.358  -0.357
 -0.352  -0.346  -0.345  -0.344  -0.337  -0.336  -0.335  -0.333
 -0.322  -0.317  -0.308  -0.294  -0.291  -0.287  -0.286  -0.284
 -0.275  -0.275  -0.275  -0.270  -0.256  -0.255  -0.248  -0.236
 -0.230  -0.221  -0.207
 -- Virtual --
 -0.176  -0.056  -0.040  -0.034  -0.033  -0.023  -0.006  -0.003
  0.001   0.010   0.018   0.019   0.024   0.026   0.027   0.034
  0.037   0.042   0.053   0.074   0.075   0.092   0.097   0.107
  0.110   0.114   0.117   0.122   0.127   0.132   0.141   0.143
  0.143   0.146   0.147   0.148   0.157   0.158   0.159   0.161
  0.164   0.165   0.168   0.172   0.173   0.175   0.179   0.181
  0.183   0.184   0.186   0.186   0.188   0.191   0.191   0.196
  0.196   0.200   0.202   0.203   0.205   0.205   0.207   0.207
  0.208   0.210   0.213   0.213   0.215   0.215   0.215   0.219
  0.220   0.220   0.221   0.224   0.225   0.227   0.227   0.229
  0.230   0.232   0.234   0.235   0.235   0.236   0.236   0.237
  0.238   0.243   0.244   0.245   0.247   0.247   0.250   0.250
  0.251   0.253   0.254   0.256   0.258   0.261   0.262   0.264
  0.264   0.266   0.267   0.268   0.270   0.273   0.273   0.274
  0.276   0.278   0.282   0.283   0.285   0.287   0.289   0.291
  0.292   0.294   0.294   0.299   0.299   0.301   0.302   0.304
  0.305   0.305   0.308   0.309   0.314   0.316   0.319   0.321
  0.323   0.325   0.325   0.328   0.330   0.332   0.335   0.338
  0.340   0.341   0.344   0.346   0.349   0.353   0.356   0.361
  0.366   0.368   0.371   0.377   0.378   0.384   0.387   0.388
  0.389   0.394   0.394   0.399   0.404   0.406   0.409   0.411
  0.420   0.424   0.426   0.432   0.437   0.438   0.441   0.447
  0.453   0.455   0.457   0.458   0.459   0.460   0.462   0.464
  0.465   0.468   0.478   0.480   0.480   0.482   0.488   0.490
  0.493   0.493   0.496   0.497   0.501   0.505   0.508   0.509
  0.512   0.513   0.515   0.516   0.518   0.518   0.519   0.521
  0.524   0.526   0.528   0.529   0.531   0.533   0.536   0.537
  0.544   0.546   0.546   0.548   0.548   0.551   0.556   0.556
  0.558   0.559   0.560   0.561   0.562   0.563   0.565   0.567
  0.568   0.568   0.569   0.573   0.574   0.574   0.577   0.578
  0.578   0.580   0.581   0.581   0.581   0.583   0.584   0.585
  0.586   0.590   0.593   0.594   0.596   0.604   0.605   0.606
  0.607   0.607   0.608   0.610   0.611   0.611   0.612   0.613
  0.614   0.615   0.616   0.620   0.622   0.623   0.624   0.624
  0.625   0.626   0.628   0.630   0.633   0.637   0.638   0.638
  0.641   0.641   0.643   0.644   0.646   0.646   0.647   0.648
  0.649   0.651   0.651   0.653   0.657   0.659   0.660   0.662
  0.664   0.665   0.666   0.672   0.673   0.674   0.677   0.679
  0.681   0.683   0.684   0.686   0.689   0.690   0.691   0.693
  0.694   0.694   0.699   0.708   0.709   0.710   0.713   0.714
  0.719   0.720   0.721   0.723   0.726   0.727   0.727   0.729
  0.735   0.736   0.738   0.739   0.747   0.750   0.752   0.754
  0.756   0.758   0.760   0.762   0.763   0.768   0.770   0.770
  0.774   0.775   0.777   0.780   0.782   0.783   0.786   0.789
  0.791   0.794   0.794   0.797   0.799   0.799   0.803   0.806
  0.808   0.813   0.814   0.816   0.817   0.822   0.825   0.827
  0.829   0.830   0.835   0.837   0.839   0.842   0.845   0.846
  0.852   0.858   0.863   0.866   0.868   0.872   0.877   0.879
  0.879   0.886   0.887   0.890   0.901   0.901   0.902   0.908
  0.911   0.913   0.916   0.920   0.922   0.925   0.926   0.930
  0.931   0.935   0.936   0.939   0.940   0.941   0.944   0.951
  0.953   0.960   0.961   0.964   0.966   0.967   0.969   0.971
  0.974   0.974   0.977   0.982   0.983   0.987   0.991   0.992
  0.993   0.997   1.000   1.001   1.002   1.004   1.006   1.006
  1.007   1.008   1.009   1.010   1.012   1.016   1.018   1.018
  1.020   1.022   1.023   1.024   1.027   1.028   1.034   1.037
  1.039   1.041   1.043   1.045   1.048   1.049   1.051   1.052
  1.054   1.056   1.059   1.060   1.060   1.062   1.063   1.064
  1.066   1.067   1.069   1.070   1.070   1.073   1.075   1.079
  1.079   1.083   1.084   1.088   1.089   1.090   1.091   1.094
  1.096   1.099   1.100   1.104   1.106   1.108   1.111   1.113
  1.115   1.119   1.122   1.123   1.125   1.127   1.127   1.130
  1.136   1.142   1.144   1.145   1.148   1.150   1.150   1.154
  1.160   1.161   1.164   1.166   1.167   1.169   1.174   1.177
  1.179   1.181   1.185   1.187   1.192   1.193   1.195   1.196
  1.202   1.208   1.212   1.214   1.218   1.226   1.226   1.236
  1.238   1.240   1.242   1.245   1.248   1.256   1.259   1.260
  1.264   1.267   1.270   1.273   1.277   1.281   1.282   1.287
  1.290   1.294   1.297   1.301   1.303   1.304   1.307   1.308
  1.315   1.316   1.317   1.320   1.322   1.325   1.326   1.330
  1.332   1.335   1.339   1.347   1.348   1.351   1.353   1.355
  1.355   1.357   1.362   1.364   1.369   1.371   1.381   1.385
  1.389   1.390   1.393   1.395   1.401   1.404   1.405   1.409
  1.411   1.411   1.417   1.418   1.420   1.424   1.430   1.431
  1.432   1.438   1.443   1.447   1.448   1.450   1.452   1.461
  1.462   1.463   1.467   1.469   1.470   1.476   1.479   1.481
  1.485   1.489   1.496   1.501   1.506   1.507   1.512   1.513
  1.516   1.519   1.520   1.526   1.527   1.532   1.532   1.535
  1.538   1.539   1.546   1.548   1.551   1.553   1.553   1.555
  1.560   1.563   1.565   1.569   1.569   1.572   1.576   1.579
  1.579   1.583   1.585   1.588   1.590   1.595   1.595   1.598
  1.604   1.610   1.611   1.612   1.616   1.617   1.623   1.631
  1.637   1.638   1.646   1.648   1.652   1.658   1.667   1.668
  1.676   1.678   1.681   1.684   1.692   1.697   1.698   1.713
  1.719   1.723   1.725   1.729   1.743   1.746   1.750   1.754
  1.763   1.767   1.773   1.775   1.776   1.778   1.783   1.784
  1.793   1.797   1.797   1.805   1.815   1.816   1.820   1.824
  1.827   1.832   1.834   1.835   1.835   1.838   1.843   1.845
  1.846   1.847   1.848   1.850   1.857   1.863   1.866   1.872
  1.872   1.873   1.888   1.889   1.892   1.895   1.897   1.904
  1.912   1.916   1.924   1.926   1.930   1.932   1.933   1.936
  1.940   1.942   1.943   1.944   1.945   1.954   1.956   1.958
  1.960   1.965   1.965   1.966   1.971   1.975   1.983   1.992
  1.997   2.000   2.001   2.003   2.004   2.005   2.008   2.012
  2.017   2.017   2.019   2.021   2.026   2.034   2.049   2.052
  2.054   2.057   2.063   2.065   2.065   2.070   2.076   2.080
  2.083   2.086   2.087   2.087   2.088   2.091   2.092   2.096
  2.101   2.108   2.111   2.111   2.116   2.123   2.126   2.131
  2.132   2.133   2.134   2.135   2.146   2.148   2.152   2.154
  2.158   2.159   2.161   2.161   2.164   2.170   2.180   2.182
  2.184   2.187   2.192   2.196   2.198   2.200   2.209   2.210
  2.215   2.219   2.220   2.224   2.225   2.228   2.229   2.230
  2.234   2.234   2.237   2.242   2.252   2.254   2.257   2.262
  2.268   2.269   2.272   2.273   2.278   2.286   2.287   2.288
  2.293   2.296   2.297   2.297   2.300   2.301   2.303   2.304
  2.306   2.310   2.313   2.315   2.319   2.324   2.328   2.330
  2.331   2.335   2.337   2.339   2.342   2.344   2.345   2.352
  2.353   2.359   2.360   2.361   2.363   2.366   2.370   2.370
  2.372   2.373   2.376   2.379   2.381   2.381   2.383   2.385
  2.387   2.392   2.399   2.402   2.408   2.410   2.412   2.412
  2.413   2.418   2.425   2.430   2.431   2.432   2.433   2.434
  2.437   2.442   2.446   2.454   2.455   2.461   2.461   2.465
  2.469   2.476   2.484   2.494   2.494   2.497   2.499   2.503
  2.511   2.512   2.515   2.525   2.526   2.527   2.530   2.537
  2.544   2.547   2.549   2.557   2.558   2.569   2.574   2.579
  2.589   2.596   2.609   2.611   2.623   2.625   2.628   2.639
  2.641   2.645   2.649   2.660   2.665   2.666   2.667   2.670
  2.673   2.684   2.697   2.697   2.704   2.707   2.711   2.712
  2.716   2.720   2.720   2.726   2.733   2.736   2.736   2.740
  2.745   2.747   2.750   2.753   2.754   2.757   2.760   2.767
  2.773   2.775   2.776   2.780   2.785   2.789   2.802   2.806
  2.807   2.808   2.811   2.812   2.813   2.813   2.815   2.819
  2.820   2.826   2.829   2.831   2.832   2.836   2.837   2.838
  2.848   2.848   2.859   2.867   2.870   2.876   2.890   2.893
  2.895   2.897   2.902   2.907   2.913   2.916   2.920   2.933
  2.936   2.944   2.954   2.956   2.967   2.973   2.981   2.984
  2.985   2.992   2.994   3.005   3.021   3.022   3.031   3.032
  3.045   3.049   3.064   3.081   3.096   3.099   3.103   3.107
  3.140   3.143   3.164   3.212   3.217   3.261   3.272   3.282
  3.285   3.359   3.426   3.432   3.462   3.475   3.486   3.506
  3.514   3.515   3.524   3.532   3.547   3.587   3.597   3.691
  3.703   9.650   9.808  13.167  13.192  13.201  13.263  13.283
 13.352  13.474  13.525  13.532  13.546  13.562  13.577  13.594
 13.654  13.661  13.671  13.679  13.701  13.721  13.724  13.754
 13.756  13.779  13.791  13.798  13.815  13.824  13.826  13.829
 13.851  13.865  13.882  13.886  13.896  13.916  13.943  13.951
 14.033  14.036  14.044  14.049  14.060  14.062  14.062  14.070
 14.072  14.110  14.128  14.153  14.179  14.185  14.186  14.187
 14.189  14.199  14.203  14.230  14.238  14.241  14.248  14.258
 14.276  14.297  14.309  14.311  14.327  14.341  14.345  14.372
 14.373  14.523  14.533  14.538  14.539  14.588  14.601  14.602
 14.604  14.606  14.608  14.622  14.643  19.546  19.663
 --------------------------------------------------------------
 
          Ground-State Mulliken Net Atomic Charges

     Atom                 Charge (a.u.)    Spin (a.u.)
  --------------------------------------------------------
      1 N                    -0.719536      -0.000152
      2 C                     0.311655       0.000048
      3 C                     0.135628      -0.000002
      4 C                    -0.202057       0.000000
      5 C                    -0.302317      -0.000001
      6 H                     0.214905       0.000001
      7 C                    -0.243835      -0.000001
      8 H                     0.217988       0.000000
      9 C                    -0.243977      -0.000004
     10 H                     0.223799       0.000001
     11 C                    -0.316592       0.000017
     12 H                     0.263362      -0.000012
     13 C                     0.311755       0.000047
     14 C                    -0.315871       0.000020
     15 H                     0.264454      -0.000013
     16 C                    -0.244704      -0.000006
     17 H                     0.224691       0.000001
     18 C                    -0.243758       0.000002
     19 H                     0.217970       0.000000
     20 C                    -0.302602      -0.000004
     21 H                     0.214739       0.000001
     22 C                     0.135157       0.000001
     23 C                     0.185305       0.002778
     24 C                    -0.303834      -0.002237
     25 H                     0.224627       0.000438
     26 C                     0.047232       0.005217
     27 C                    -0.306218      -0.002239
     28 H                     0.223682       0.000416
     29 C                     0.044794       0.005365
     30 C                    -0.182099      -0.027722
     31 C                    -0.542690       0.002586
     32 H                     0.224682       0.000382
     33 H                     0.260544      -0.001910
     34 C                    -0.654626       0.000298
     35 C                    -0.541880       0.002516
     36 H                     0.224329       0.000380
     37 H                     0.260138      -0.001739
     38 C                    -0.654313       0.000113
     39 H                     0.250825      -0.000418
     40 H                     0.214568      -0.000016
     41 H                     0.211837      -0.000084
     42 B                     0.543581       0.285722
     43 C                    -0.141409       0.057324
     44 C                    -0.405600      -0.055175
     45 H                     0.221792       0.002075
     46 C                     0.088904       0.087563
     47 C                     0.070694       0.047120
     48 C                    -0.401028      -0.024541
     49 H                     0.192152       0.000347
     50 C                    -0.128276       0.016597
     51 C                     0.189429      -0.056156
     52 C                    -0.403693       0.086210
     53 H                     0.224209      -0.005088
     54 C                    -0.082393       0.024183
     55 C                     0.242317      -0.039681
     56 C                     0.191029      -0.046445
     57 C                    -0.397032       0.074677
     58 H                     0.199324      -0.004505
     59 C                    -0.212033      -0.053809
     60 H                     0.228607       0.002625
     61 C                    -0.357829       0.079476
     62 H                     0.221793      -0.004740
     63 C                    -0.353924       0.070737
     64 H                     0.221508      -0.004190
     65 C                    -0.213595      -0.048769
     66 H                     0.218764       0.002428
     67 C                    -0.139981       0.055950
     68 C                    -0.408102      -0.053818
     69 H                     0.219431       0.002016
     70 C                     0.090831       0.085970
     71 C                     0.069290       0.046655
     72 C                    -0.401674      -0.023554
     73 H                     0.193820       0.000302
     74 C                    -0.127208       0.015476
     75 C                     0.188324      -0.055474
     76 C                    -0.403782       0.084880
     77 H                     0.224818      -0.005004
     78 C                    -0.081175       0.023806
     79 C                     0.243202      -0.039070
     80 C                     0.190112      -0.046160
     81 C                    -0.397090       0.073746
     82 H                     0.204499      -0.004425
     83 C                    -0.212386      -0.053096
     84 H                     0.228669       0.002591
     85 C                    -0.358377       0.078287
     86 H                     0.221715      -0.004667
     87 C                    -0.353902       0.069838
     88 H                     0.221316      -0.004138
     89 C                    -0.214863      -0.048175
     90 H                     0.220534       0.002395
     91 B                     0.507904       0.334098
     92 C                    -0.161205      -0.023074
     93 C                     0.034926       0.002345
     94 C                    -0.289810       0.014460
     95 H                     0.237171      -0.000339
     96 C                     0.121275      -0.029064
     97 C                    -0.287632       0.014431
     98 H                     0.237548      -0.000310
     99 C                     0.038044       0.002078
    100 N                    -0.601580       0.441584
    101 C                     0.292591      -0.103137
    102 C                     0.191856       0.234175
    103 C                    -0.240370      -0.039199
    104 C                    -0.300784      -0.152273
    105 H                     0.252484       0.007220
    106 C                    -0.199208       0.255800
    107 H                     0.267775      -0.013737
    108 C                    -0.238986      -0.134072
    109 H                     0.270128       0.006102
    110 C                    -0.260233       0.186260
    111 H                     0.315194      -0.010046
    112 C                     0.297041      -0.103669
    113 C                     0.191074       0.234093
    114 C                    -0.300570      -0.152271
    115 H                     0.252894       0.007222
    116 C                    -0.199716       0.255844
    117 H                     0.267798      -0.013750
    118 C                    -0.238975      -0.134398
    119 H                     0.271109       0.006113
    120 C                    -0.264934       0.186572
    121 H                     0.313510      -0.010048
    122 C                    -0.543057       0.004610
    123 H                     0.224898       0.000488
    124 H                     0.282593      -0.001976
    125 C                    -0.654369      -0.000346
    126 C                    -0.545992       0.004951
    127 H                     0.224815       0.000511
    128 H                     0.285414      -0.002416
    129 C                    -0.653905      -0.000299
    130 H                     0.261142      -0.000361
    131 H                     0.199731      -0.000095
    132 H                     0.228886       0.000040
    133 H                     0.258350      -0.000294
    134 H                     0.230551       0.000045
    135 H                     0.198859      -0.000088
    136 H                     0.212100      -0.000015
    137 H                     0.252743      -0.000553
    138 H                     0.212732      -0.000095
    139 C                    -0.605220       0.022809
    140 C                    -0.606443       0.022339
    141 C                    -0.609800      -0.000000
    142 C                    -0.605624      -0.000000
    143 H                     0.235028       0.000000
    144 H                     0.218032       0.000000
    145 H                     0.218338       0.000000
    146 H                     0.235913       0.000000
    147 H                     0.218212       0.000000
    148 H                     0.218863       0.000000
    149 H                     0.249446      -0.000848
    150 H                     0.242312       0.000276
    151 H                     0.242078       0.000276
    152 H                     0.249403      -0.000805
    153 H                     0.242205       0.000229
    154 H                     0.242380       0.000222
  --------------------------------------------------------
  Sum of atomic charges =    -0.000000
  Sum of spin   charges =     2.000000

 -----------------------------------------------------------------
                    Cartesian Multipole Moments
 -----------------------------------------------------------------
    Charge (ESU x 10^10)
                -0.0000
    Dipole Moment (Debye)
         X     -20.8842      Y     -15.3554      Z     -23.4493
       Tot      34.9544
    Quadrupole Moments (Debye-Ang)
        XX    -219.2035     XY     236.5161     YY    -302.4546
        XZ     283.2060     YZ     266.8781     ZZ    -189.3666
    Octopole Moments (Debye-Ang^2)
       XXX    2822.4387    XXY    -244.1606    XYY    -260.8725
       YYY    5151.9847    XXZ   -1096.1749    XYZ   -2742.2575
       YYZ    -727.3294    XZZ   -1089.3453    YZZ    -705.9242
       ZZZ    2233.5215
    Hexadecapole Moments (Debye-Ang^3)
      XXXX  -70859.4104   XXXY   -8555.9367   XXYY  -11961.7077
      XYYY  -16051.1862   YYYY  -84826.9441   XXXZ   -4528.9787
      XXYZ   12853.3669   XYYZ   12912.0362   YYYZ  -20549.8387
      XXZZ   -3637.9895   XYZZ   16993.2918   YYZZ   -2346.5160
      XZZZ   -4065.0725   YZZZ  -10729.5720   ZZZZ  -57062.2860
 -----------------------------------------------------------------
 Calculating analytic gradient of the SCF energy
 -1.468246343569332E-003 -1.468246760285221E-003
 -1.468246461237867E-003 -1.468246714273598E-003
 -1.468247380947049E-003 -1.468245756441352E-003
 -1.468211392292615E-003 -1.468281721975390E-003
 -1.468225826841458E-003 -1.468267349306912E-003
 -1.468224085993109E-003 -1.468269059207504E-003
 -1.468262650089281E-003 -1.468230454365639E-003
 -1.468266423826694E-003 -1.468226749513490E-003
 -1.468268665163080E-003 -1.468224485189717E-003
 -1.468254853612038E-003 -1.468238252559863E-003
 -1.468256631637592E-003 -1.468236493477299E-003
 -1.468252948106366E-003 -1.468240167197310E-003
 -1.468229600483576E-003 -1.468263498234564E-003
 -1.468235514597669E-003 -1.468257641869417E-003
 -1.468234920768713E-003 -1.468258213219049E-003
 -1.468265453376690E-003 -1.468227658292238E-003
 -1.468255735506180E-003 -1.468237392771438E-003
 -1.468253748692446E-003 -1.468239372557719E-003
 -1.468277664776244E-003 -1.468215435892037E-003
 -1.468253832832499E-003 -1.468239343756213E-003
 -1.468248898413314E-003 -1.468244252858242E-003
 -1.468244178590419E-003 -1.468248917027175E-003
 -1.468244707445042E-003 -1.468248439924160E-003
 -1.468244495342804E-003 -1.468248645005950E-003
 -1.468219353535752E-003 -1.468273751010458E-003
 -1.468228176244620E-003 -1.468264993268268E-003
 -1.468229507881870E-003 -1.468263633457116E-003
 -1.468254751890197E-003 -1.468238374240102E-003
 -1.468237092891837E-003 -1.468256031830543E-003
 -1.468241412537212E-003 -1.468251689908684E-003
 -1.468255875348997E-003 -1.468237216859881E-003
 -1.468242596087471E-003 -1.468250579210930E-003
 -1.468236070774326E-003 -1.468257077934770E-003
 -1.468235922370476E-003 -1.468257185293274E-003
 -1.468231154707832E-003 -1.468261994989671E-003
 -1.468232401806795E-003 -1.468260744918283E-003
 -1.468230369230870E-003 -1.468262742593870E-003
 -1.468216455069410E-003 -1.468276725470473E-003
 -1.468214737192688E-003 -1.468278407140174E-003
 -1.468234429912456E-003 -1.468258671392484E-003
 -1.468247124090550E-003 -1.468246052099498E-003
 -1.468253244971055E-003 -1.468239895467908E-003
 -1.468230557661171E-003 -1.468262563739130E-003
 -1.468234584518703E-003 -1.468258563972415E-003
 -1.468233064659969E-003 -1.468260071201977E-003
 -1.468232288221193E-003 -1.468260819646766E-003
 -1.468224858429417E-003 -1.468268308928802E-003
 -1.468218828580008E-003 -1.468274311106981E-003
 -1.468234226087324E-003 -1.468258866565458E-003
 -1.468252207703071E-003 -1.468240923086637E-003
 -1.468246721301884E-003 -1.468246406134443E-003
 -1.468241676600914E-003 -1.468251430597637E-003
 -1.468266133983534E-003 -1.468227043908989E-003
 -1.468272508358208E-003 -1.468220635721364E-003
 -1.468244316929843E-003 -1.468248811584261E-003
 -1.468245494506936E-003 -1.468247642248455E-003
 -1.468243455453647E-003 -1.468249666011421E-003
 -1.468238706073535E-003 -1.468254400753269E-003
 -1.468232350781385E-003 -1.468260804078818E-003
 -1.468229537635596E-003 -1.468263587056772E-003
 -1.468250026918469E-003 -1.468243091278767E-003
 -1.468260711295045E-003 -1.468232414044373E-003
 -1.468262743806086E-003 -1.468230372298315E-003
 -1.468268526475035E-003 -1.468224589231630E-003
 -1.468264320539772E-003 -1.468228851355911E-003
 -1.468266011015069E-003 -1.468227129334010E-003
 -1.468222307341398E-003 -1.468270800758140E-003
 -1.468222104114393E-003 -1.468271022829428E-003
 -1.468221312435209E-003 -1.468271795864604E-003
 -1.468277109427846E-003 -1.468216025810712E-003
 -1.468260491395350E-003 -1.468232593475845E-003
 -1.468274000989990E-003 -1.468219111508545E-003
 -1.468246624123956E-003 -1.468246494410112E-003
 -1.468232800615383E-003 -1.468260263776637E-003
 -1.468247209337785E-003 -1.468245900243186E-003
 -1.468219303067927E-003 -1.468273828121327E-003
 -1.468199106307119E-003 -1.468294000371841E-003
 -1.468232444661581E-003 -1.468260661360218E-003
 -1.468263164318675E-003 -1.468229965849259E-003
 -1.468282107718468E-003 -1.468211007375912E-003
 -1.468267857017145E-003 -1.468225232513187E-003
 -1.468236423324979E-003 -1.468256686909434E-003
 -1.468251613264442E-003 -1.468241491920725E-003
 -1.468238105936569E-003 -1.468254969470067E-003
 -1.468214925374193E-003 -1.468278194088559E-003
 -1.468237464178793E-003 -1.468255648674104E-003
 -1.468198176714908E-003 -1.468294938748378E-003
 -1.468262233520724E-003 -1.468230882211401E-003
 -1.468263354257875E-003 -1.468229754886277E-003
 -1.468259651514703E-003 -1.468233464317653E-003
 -1.468256909206249E-003 -1.468236170824514E-003
 -1.468236456217263E-003 -1.468256636436717E-003
 -1.468251374474913E-003 -1.468241760581600E-003
 -1.468234113883595E-003 -1.468258991024224E-003
 -1.468234310881446E-003 -1.468258777782118E-003
 -1.468246244999092E-003 -1.468246874308961E-003
 -1.468224205163413E-003 -1.468268893667185E-003
 -1.468242000551098E-003 -1.468251125227111E-003
 -1.468248694331766E-003 -1.468244442426960E-003
 -1.468221848888384E-003 -1.468271220472578E-003
 -1.468233343719089E-003 -1.468259766051783E-003
 -1.468240026790978E-003 -1.468253112391013E-003
 -1.468238589391217E-003 -1.468254535442819E-003
 -1.468263869558263E-003 -1.468229225219559E-003
 -1.468245548395496E-003 -1.468247548419731E-003
 -1.468245680989346E-003 -1.468247441956986E-003
 -1.468246615697867E-003 -1.468246471108946E-003
 -1.468232880241189E-003 -1.468260227249987E-003
 -1.468249938524119E-003 -1.468243190348754E-003
 -1.468236780197361E-003 -1.468256338641469E-003
 -1.468228824537787E-003 -1.468264293005690E-003
 -1.468243755275546E-003 -1.468249387148370E-003
 -1.468230846763378E-003 -1.468262232210021E-003
 -1.468222688911085E-003 -1.468270414160251E-003
 -1.468235901499099E-003 -1.468257204419145E-003
 -1.468261617448349E-003 -1.468231473914007E-003
 -1.468237437765707E-003 -1.468255673525052E-003
 -1.468248792331032E-003 -1.468244316363742E-003
 -1.468265077492039E-003 -1.468228038780890E-003
 -1.468218518709509E-003 -1.468274572632456E-003
 -1.468235304851215E-003 -1.468257818809620E-003
 -1.468263572757964E-003 -1.468229532199419E-003
 -1.468240715871068E-003 -1.468252400652738E-003
 -1.468240707052651E-003 -1.468252405358907E-003
 -1.468239801056306E-003 -1.468253352708485E-003
 -1.468239513640036E-003 -1.468253636034204E-003
 -1.468262890279260E-003 -1.468230216806636E-003
 -1.468258503267550E-003 -1.468234671317337E-003
 -1.468263396983416E-003 -1.468229769476651E-003
 -1.468255324487110E-003 -1.468237764878775E-003
 -1.468234155465409E-003 -1.468259031221816E-003
 -1.468233713487166E-003 -1.468259460842153E-003
 -1.468268206943823E-003 -1.468224900124548E-003
 -1.468251677427562E-003 -1.468241483413395E-003
 -1.468258067631461E-003 -1.468235077708983E-003
 -1.468282375132014E-003 -1.468210743430450E-003
 -1.468245688651893E-003 -1.468247486927226E-003
 -1.468249543280155E-003 -1.468243623118081E-003
 -1.468257166656272E-003 -1.468235934946082E-003
 -1.468222795804124E-003 -1.468270386408926E-003
 -1.468219123335205E-003 -1.468274053068086E-003
 -1.468264704116081E-003 -1.468228405054084E-003
 -1.468243483913953E-003 -1.468249691293476E-003
 -1.468244317153459E-003 -1.468248845848881E-003
 -1.468242925767684E-003 -1.468250191807027E-003
 -1.468230609269415E-003 -1.468262541365785E-003
 -1.468230121961371E-003 -1.468263019380963E-003
 -1.468232374881052E-003 -1.468260730715128E-003
 -1.468231279573030E-003 -1.468261896542814E-003
 -1.468226852011811E-003 -1.468266315874583E-003
 -1.468267533968693E-003 -1.468225572081283E-003
 -1.468241582945404E-003 -1.468251596324481E-003
 -1.468241977512283E-003 -1.468251184817210E-003
 -1.468286005396627E-003 -1.468207105440228E-003
 -1.468245994956334E-003 -1.468247182649669E-003
 -1.468249433922130E-003 -1.468243727617587E-003
 -1.468261288044599E-003 -1.468231822954813E-003
 -1.468243840703223E-003 -1.468249295865945E-003
 -1.468243719297928E-003 -1.468249405925547E-003
 -1.468263996630583E-003 -1.468229124331905E-003
 -1.468237170522044E-003 -1.468256018565489E-003
 -1.468237868711990E-003 -1.468255313250513E-003
 -1.468221084272124E-003 -1.468272024821088E-003
 -1.468258209959383E-003 -1.468234950853068E-003
 -1.468257585667307E-003 -1.468235555452707E-003
 -1.468258917238766E-003 -1.468234197112919E-003
 -1.468235486331298E-003 -1.468257689211491E-003
 -1.468232849787487E-003 -1.468260309713832E-003
 -1.468260275303379E-003 -1.468232820082889E-003
 -1.468221503356389E-003 -1.468271676520684E-003
 -1.468217310671434E-003 -1.468275863537862E-003
 -1.468256981258955E-003 -1.468236117173412E-003
 -1.468237734019335E-003 -1.468255405800989E-003
 -1.468238183452818E-003 -1.468254955206737E-003
 -1.468233619107796E-003 -1.468259485680002E-003
 -1.468260742806831E-003 -1.468232424219406E-003
 -1.468260257813540E-003 -1.468232884530569E-003
 -1.468257687181309E-003 -1.468235405670426E-003
 -1.468244359844940E-003 -1.468248759472071E-003
 -1.468245925859140E-003 -1.468247180307177E-003
 -1.468263382800849E-003 -1.468229733983610E-003
 -1.468234963816305E-003 -1.468258195268430E-003
 -1.468237818769273E-003 -1.468255323029617E-003
 -1.468229123542729E-003 -1.468263975515254E-003
 -1.468254926824703E-003 -1.468238209537548E-003
 -1.468254872296919E-003 -1.468238260795033E-003
 -1.468267905138067E-003 -1.468225161319763E-003
 -1.468238365782281E-003 -1.468254816084344E-003
 -1.468242146376447E-003 -1.468251024129659E-003
 -1.468228620635894E-003 -1.468264453664766E-003
 -1.468254635031616E-003 -1.468238513300262E-003
 -1.468254529930670E-003 -1.468238617034245E-003
 -1.468223390109637E-003 -1.468269731270751E-003
 -1.468251437554638E-003 -1.468241718412610E-003
 -1.468248295771157E-003 -1.468244841463865E-003
 -1.468251782827475E-003 -1.468241314433951E-003
 -1.468239302613546E-003 -1.468253811515311E-003
 -1.468240143304158E-003 -1.468252960966488E-003
 -1.468259314115028E-003 -1.468233792759768E-003
 -1.468260966469851E-003 -1.468232202899752E-003
 -1.468264924512470E-003 -1.468228243215564E-003
 -1.468228442075116E-003 -1.468264669207869E-003
 -1.468254442335294E-003 -1.468238726699262E-003
 -1.468246376537706E-003 -1.468246789864034E-003
 -1.468250662961038E-003 -1.468242457549666E-003
 -1.468265282986038E-003 -1.468227863915163E-003
 -1.468262865790770E-003 -1.468230276612223E-003
 -1.468236327257871E-003 -1.468256778363861E-003
 -1.468273846756758E-003 -1.468219327356623E-003
 -1.468267839837022E-003 -1.468225336282863E-003
 -1.468212869938540E-003 -1.468280252906392E-003
 -1.468252498562100E-003 -1.468240667303291E-003
 -1.468241653897385E-003 -1.468251515056975E-003
 -1.468234795388749E-003 -1.468258298767222E-003
 -1.468261225250349E-003 -1.468231948782097E-003
 -1.468256704879077E-003 -1.468236475824485E-003
 -1.468225125244583E-003 -1.468267983918766E-003
 -1.468242437830747E-003 -1.468250712984869E-003
 -1.468235632750024E-003 -1.468257516538225E-003
 -1.468228267911328E-003 -1.468264844931222E-003
 -1.468234559292165E-003 -1.468258605336870E-003
 -1.468231133713999E-003 -1.468262034725023E-003
 -1.468238194773186E-003 -1.468254921944333E-003
 -1.468261207418521E-003 -1.468231957633884E-003
 -1.468255396881545E-003 -1.468237760889288E-003
 -1.468233315894181E-003 -1.468259784772404E-003
 -1.468275519009787E-003 -1.468217651529881E-003
 -1.468271745009547E-003 -1.468221429092658E-003
 -1.468240296544914E-003 -1.468252803186261E-003
 -1.468253511445913E-003 -1.468239623238032E-003
 -1.468256602522636E-003 -1.468236531332292E-003
 -1.468229541292142E-003 -1.468263584959295E-003
 -1.468260942411103E-003 -1.468232235996814E-003
 -1.468251938273360E-003 -1.468241242335404E-003
 -1.468272421806999E-003 -1.468220688460311E-003
 -1.468229445944106E-003 -1.468263707377028E-003
 -1.468233147906299E-003 -1.468259997069391E-003
 -1.468228576783386E-003 -1.468264528602723E-003
 -1.468252660253153E-003 -1.468240506923325E-003
 -1.468245772873104E-003 -1.468247393771786E-003
 -1.468206208343507E-003 -1.468286905609012E-003
 -1.468254096494624E-003 -1.468239065328111E-003
 -1.468244306027829E-003 -1.468248861402886E-003
 -1.468231577247111E-003 -1.468261536313099E-003
 -1.468247406646159E-003 -1.468245720885456E-003
 -1.468249598181829E-003 -1.468243528165189E-003
 -1.468271616715400E-003 -1.468221506460718E-003
 -1.468237945211608E-003 -1.468255205698342E-003
 -1.468243973151647E-003 -1.468249163555559E-003
 -1.468239766735529E-003 -1.468253336943176E-003
 -1.468253696122194E-003 -1.468239413471761E-003
 -1.468253463271185E-003 -1.468239642470167E-003
 -1.468225582919572E-003 -1.468267495639138E-003
 -1.468258433064045E-003 -1.468234733868048E-003
 -1.468250959280279E-003 -1.468242205144574E-003
 -1.468262567166129E-003 -1.468230513996191E-003
 -1.468235405965373E-003 -1.468257731340457E-003
 -1.468238998815347E-003 -1.468254149454486E-003
 -1.468231984943007E-003 -1.468261135421375E-003
 -1.468263635236252E-003 -1.468229507889965E-003
 -1.468257353778788E-003 -1.468235795668993E-003
 -1.468262767943107E-003 -1.468230339063144E-003
 -1.468235779622556E-003 -1.468257345191999E-003
 -1.468239128977810E-003 -1.468254007784222E-003
 -1.468259057589964E-003 -1.468234042877580E-003
 -1.468228524005343E-003 -1.468264635745675E-003
 -1.468231412284313E-003 -1.468261735375828E-003
 -1.468235176953899E-003 -1.468257912950070E-003
 -1.468250298015109E-003 -1.468242816673494E-003
 -1.468248901618472E-003 -1.468244208913692E-003
 -1.468250218577807E-003 -1.468242889882458E-003
 -1.468250083500262E-003 -1.468243072607333E-003
 -1.468253450430160E-003 -1.468239694016845E-003
 -1.468233195648126E-003 -1.468259916868519E-003
 -1.468239468005266E-003 -1.468253639250020E-003
 -1.468226633296734E-003 -1.468266482606852E-003
 -1.468278572760657E-003 -1.468214556504930E-003
 -1.468288611687380E-003 -1.468204501713720E-003
 -1.468268887301911E-003 -1.468224215608662E-003
 -1.468217163222495E-003 -1.468275968950952E-003
 -1.468242404304606E-003 -1.468250676461567E-003
 -1.468214300225989E-003 -1.468278817155300E-003
 -1.468247044767612E-003 -1.468246068118262E-003
 -1.468260056473133E-003 -1.468233001598876E-003
 -1.468250481877936E-003 -1.468242636741855E-003
 -1.468273876149544E-003 -1.468219225563625E-003
 -1.468261822005131E-003 -1.468231305456855E-003
 -1.468276260089558E-003 -1.468216847357126E-003
 -1.468226866306080E-003 -1.468266260822163E-003
 -1.468220828408130E-003 -1.468272273807333E-003
 -1.468219314294227E-003 -1.468273782992064E-003
 -1.468252456858098E-003 -1.468240659050347E-003
 -1.468239834936395E-003 -1.468253255253393E-003
 -1.468255951695639E-003 -1.468237133763763E-003
 -1.468273750124123E-003 -1.468219363583481E-003
 -1.468244701696941E-003 -1.468248411970540E-003
 -1.468294599522038E-003 -1.468198511872018E-003
 -1.468245963828518E-003 -1.468247135671169E-003
 -1.468248567848793E-003 -1.468244613288383E-003
 -1.468250254759024E-003 -1.468242879240067E-003
 -1.468267851014460E-003 -1.468225254173404E-003
 -1.468268983515410E-003 -1.468224209387562E-003
 -1.468280932558408E-003 -1.468212205467985E-003
 -1.468220643556879E-003 -1.468272471167343E-003
 -1.468236833048477E-003 -1.468256341542921E-003
 -1.468228562531344E-003 -1.468264573675059E-003
 -1.468240034149005E-003 -1.468253078467501E-003
 -1.468240917808997E-003 -1.468252195478925E-003
 -1.468234713903476E-003 -1.468258406739755E-003
 -1.468262009361925E-003 -1.468231088936409E-003
 -1.468256751423922E-003 -1.468236424192236E-003
 -1.468262900751480E-003 -1.468230224572872E-003
 -1.468239015899894E-003 -1.468254093479644E-003
 -1.468235870524649E-003 -1.468257275392787E-003
 -1.468228050606413E-003 -1.468265064224183E-003
 -1.468247181049111E-003 -1.468245929146114E-003
 -1.468230890729236E-003 -1.468262290016751E-003
 -1.468221339363153E-003 -1.468271798968356E-003
 -1.468249428105267E-003 -1.468243699299791E-003
 -1.468248312016693E-003 -1.468244821833771E-003
 -1.468249597612898E-003 -1.468243519787690E-003
 -1.468265677881906E-003 -1.468227428824305E-003
 -1.468261912034763E-003 -1.468231269708645E-003
 -1.468274827333845E-003 -1.468218305112581E-003
 -1.468257849273113E-003 -1.468235244121425E-003
 -1.468239144113386E-003 -1.468253995183196E-003
 -1.468245761541229E-003 -1.468247368148872E-003
 -1.468257968534135E-003 -1.468235127237364E-003
 -1.468245559127694E-003 -1.468247633012952E-003
 -1.468242166768695E-003 -1.468250963015241E-003
 -1.468263454616332E-003 -1.468229660162553E-003
 -1.468252061692081E-003 -1.468241102832734E-003
 -1.468260893852056E-003 -1.468232231035165E-003
 -1.468284640420693E-003 -1.468208465876151E-003
 -1.468258779563165E-003 -1.468234409488470E-003
 -1.468270599973311E-003 -1.468222543296708E-003
 -1.468225145818755E-003 -1.468267957372757E-003
 -1.468232612231982E-003 -1.468260563545664E-003
 -1.468223234398751E-003 -1.468269913111195E-003
 -1.468266628354118E-003 -1.468226463226264E-003
 -1.468252892466968E-003 -1.468240276067232E-003
 -1.468257555989555E-003 -1.468235570812083E-003
 -1.468227004269543E-003 -1.468266100232788E-003
 -1.468242590543944E-003 -1.468250551127851E-003
 -1.468238082615583E-003 -1.468255031188038E-003
 -1.468213188031775E-003 -1.468279914534961E-003
 -1.468246170802481E-003 -1.468247007954669E-003
 -1.468242878636797E-003 -1.468250270037721E-003
 -1.468248895444754E-003 -1.468244203072212E-003
 -1.468248480587464E-003 -1.468244666267733E-003
 -1.468248228702075E-003 -1.468244913117888E-003
 -1.468276701735951E-003 -1.468216400031973E-003
 -1.468257958521107E-003 -1.468235220941239E-003
 -1.468263373234404E-003 -1.468229761350949E-003
 -1.468239606693485E-003 -1.468253518199060E-003
 -1.468256508933051E-003 -1.468236616402996E-003
 -1.468252934760379E-003 -1.468240165612236E-003
 -1.468236515702524E-003 -1.468256575176479E-003
 -1.468253332836943E-003 -1.468239854876287E-003
 -1.468258521475059E-003 -1.468234620455563E-003
 -1.468259312556578E-003 -1.468233792224502E-003
 -1.468258615863077E-003 -1.468234545440201E-003
 -1.468263859740646E-003 -1.468229279462822E-003
 -1.468233991450162E-003 -1.468259092502296E-003
 -1.468258294840028E-003 -1.468234798800173E-003
 -1.468238547685022E-003 -1.468254591342877E-003
 -1.468255703540526E-003 -1.468237401200993E-003
 -1.468257520896873E-003 -1.468235565952684E-003
 -1.468244291446592E-003 -1.468248830611931E-003
 -1.468267390618805E-003 -1.468225714787026E-003
 -1.468253258804597E-003 -1.468239868851587E-003
 -1.468250163424951E-003 -1.468242972900785E-003
 -1.468272865719495E-003 -1.468220212704544E-003
 -1.468259736116742E-003 -1.468233372292445E-003
 -1.468256871908221E-003 -1.468236263770349E-003
 -1.468247360815731E-003 -1.468245768415142E-003
 -1.468233534780502E-003 -1.468259552601392E-003
 -1.468244914384543E-003 -1.468248174243925E-003
 -1.468249162254034E-003 -1.468243963792628E-003
 -1.468246837850829E-003 -1.468246238122638E-003
 -1.468264729801182E-003 -1.468228376591818E-003
 -1.468240210023058E-003 -1.468252921268196E-003
 -1.468255897457892E-003 -1.468237222313001E-003
 -1.468268549896857E-003 -1.468224558561196E-003
 -1.468253751812837E-003 -1.468239404763238E-003
 -1.468255789293651E-003 -1.468237287388264E-003
 -1.468275236256291E-003 -1.468217850534485E-003
 -1.468252074687609E-003 -1.468241037212853E-003
 -1.468230099398779E-003 -1.468262975579037E-003
 -1.468254650485210E-003 -1.468238453790969E-003
 -1.468255241515981E-003 -1.468237885501108E-003
 -1.468229636064126E-003 -1.468263472835758E-003
 -1.468253388467544E-003 -1.468239723419133E-003
 -1.468239797008065E-003 -1.468253321200110E-003
 -1.468228614372625E-003 -1.468264497687404E-003
 -1.468271516003065E-003 -1.468221570961442E-003
 -1.468242097606401E-003 -1.468250998934952E-003
 -1.468264271569388E-003 -1.468228818166455E-003
 -1.468242696380446E-003 -1.468250415272653E-003
 -1.468258048581793E-003 -1.468235047274922E-003
 -1.468273080270733E-003 -1.468220013186619E-003
 -1.468229014407784E-003 -1.468264116645071E-003
 -1.468236193503835E-003 -1.468256912109852E-003
 -1.468263155304012E-003 -1.468229971746417E-003
 -1.468240186883932E-003 -1.468252931044177E-003
 -1.468236597769527E-003 -1.468256498276202E-003
 -1.468224456362118E-003 -1.468268628665618E-003
 -1.468267391390934E-003 -1.468225742020677E-003
 -1.468252666455838E-003 -1.468240430532483E-003
 -1.468226831169667E-003 -1.468266257389960E-003
 -1.468253343379579E-003 -1.468239766458322E-003
 -1.468253270116748E-003 -1.468239829353051E-003
 -1.468226332896290E-003 -1.468266794341327E-003
 -1.468249064848684E-003 -1.468244050117659E-003
 -1.468249827150705E-003 -1.468243275032188E-003
 -1.468265703632618E-003 -1.468227418554344E-003
 -1.468242127280506E-003 -1.468250967021613E-003
 -1.468248213986273E-003 -1.468244884120325E-003
 -1.468232623136446E-003 -1.468260464329239E-003
 -1.468262261247332E-003 -1.468230871516612E-003
 -1.468246427717168E-003 -1.468246658515628E-003
 -1.468227700463124E-003 -1.468265442005090E-003
 -1.468255173477650E-003 -1.468237917005206E-003
 -1.468239971250251E-003 -1.468253122703133E-003
 -1.468256082385539E-003 -1.468237016273007E-003
 -1.468233178061129E-003 -1.468259948802755E-003
 -1.468240450039878E-003 -1.468252658460415E-003
 -1.468252794919695E-003 -1.468240265824175E-003
 -1.468233946231806E-003 -1.468259152697600E-003
 -1.468239280894037E-003 -1.468253827602637E-003
 -1.468236115135765E-003 -1.468256987575701E-003
 -1.468231845044989E-003 -1.468261264292032E-003
 -1.468232385045145E-003 -1.468260705652854E-003
 -1.468238205325627E-003 -1.468254906291231E-003
 -1.468236278754837E-003 -1.468256840156305E-003
 -1.468243460831227E-003 -1.468249638704760E-003
 -1.468233448159443E-003 -1.468259643731072E-003
 -1.468248208565138E-003 -1.468244865934430E-003
 -1.468233253999935E-003 -1.468259833016775E-003
 -1.468236811320807E-003 -1.468256309002627E-003
 -1.468238673150757E-003 -1.468254440439468E-003
 -1.468239688304244E-003 -1.468253421843285E-003
 -1.468234671624491E-003 -1.468258446324095E-003
 -1.468234466215525E-003 -1.468258626746688E-003
 -1.468251946864819E-003 -1.468241159886949E-003
 -1.468259356017154E-003 -1.468233724027749E-003
 -1.468245452247133E-003 -1.468247627043730E-003
 -1.468256173505946E-003 -1.468236942537959E-003
 -1.468256671260941E-003 -1.468236439954555E-003
 -1.468260393010688E-003 -1.468232700317584E-003
 -1.468262172406065E-003 -1.468230920975119E-003
 -1.468253040572774E-003 -1.468240072499967E-003
 -1.468255312945418E-003 -1.468237801703986E-003
 -1.468251349614653E-003 -1.468241754568753E-003
 -1.468240551407850E-003 -1.468252503348533E-003
 -1.468257333705116E-003 -1.468235772980111E-003
 -1.468261600444401E-003 -1.468231491474716E-003
 -1.468250831120466E-003 -1.468242279240360E-003
 -1.468256469198609E-003 -1.468236650304435E-003
 -1.468255783920651E-003 -1.468237330810974E-003
 -1.468254044392010E-003 -1.468239051163613E-003
 -1.468261684686751E-003 -1.468231424942832E-003
 Gradient of SCF Energy
            1           2           3           4           5           6
    1   0.0015712  -0.0004450  -0.0052979   0.0005534  -0.0018066  -0.0005934
    2   0.0014707  -0.0003500  -0.0010138   0.0006943  -0.0010958  -0.0007989
    3   0.0015280  -0.0000753   0.0000467   0.0007381  -0.0011315  -0.0008950
            7           8           9          10          11          12
    1   0.0006809   0.0008018   0.0028267   0.0019753  -0.0011425   0.0018272
    2  -0.0009946  -0.0008081  -0.0000672   0.0002756   0.0006897   0.0021595
    3  -0.0015166  -0.0013003  -0.0006993  -0.0001004   0.0009092   0.0025337
           13          14          15          16          17          18
    1  -0.0001998   0.0012195   0.0024789  -0.0015787  -0.0006298  -0.0018908
    2  -0.0003914  -0.0002314   0.0019168   0.0013671   0.0011420  -0.0002029
    3  -0.0006616  -0.0004568   0.0020812   0.0020950   0.0016011   0.0002671
           19          20          21          22          23          24
    1  -0.0017138  -0.0008215  -0.0009583   0.0011529  -0.0023010   0.0005424
    2  -0.0000389  -0.0013756  -0.0007506  -0.0033028  -0.0022353   0.0001960
    3   0.0003842  -0.0018499  -0.0007827  -0.0044520  -0.0027824   0.0001545
           25          26          27          28          29          30
    1  -0.0011621   0.0017867   0.0002969  -0.0007253   0.0017489   0.0009398
    2   0.0012374   0.0047364   0.0002889  -0.0029318  -0.0018642   0.0012068
    3  -0.0026245  -0.0012186   0.0005155   0.0006341   0.0049164   0.0012105
           31          32          33          34          35          36
    1  -0.0049451   0.0000854   0.0030037   0.0032387   0.0025924  -0.0015532
    2   0.0017487  -0.0020320   0.0011719  -0.0024948  -0.0038066   0.0008543
[...]
    148  H         3.2885188775    0.3701493444    3.8797653893
    149  H       -10.3172312931   -7.4690254123  -12.0512902459
    150  H       -11.8315562479   -8.3687610384  -11.9990871322
    151  H       -10.4715249521   -8.9960910900  -12.9163970753
    152  H       -10.5526109707  -11.1807967014   -9.8360477417
    153  H       -10.6100674731  -11.2079374797  -11.5968549124
    154  H       -11.9706478897  -10.5730595647  -10.6866280863
   Point Group: c1    Number of degrees of freedom:   456


   Energy is  -3317.724717906

 Hessian Updated using BFGS Update

443 Hessian modes will be used to form the next step
  Hessian Eigenvalues:
     0.003234    0.003456    0.003516    0.004078    0.004157    0.004856
     0.005548    0.005565    0.005617    0.005655    0.007433    0.008083
     0.008482    0.008898    0.009426    0.009889    0.012018    0.012620
     0.013951    0.014253    0.014955    0.015546    0.015988    0.016155
     0.016457    0.016498    0.016655    0.016712    0.016853    0.017082
     0.017281    0.017525    0.017762    0.017908    0.018119    0.018170
     0.018404    0.018481    0.018610    0.018751    0.018998    0.019329
     0.019414    0.019831    0.020242    0.020402    0.020472    0.020485
     0.020662    0.020703    0.020834    0.020995    0.021028    0.021210
     0.021234    0.021297    0.021423    0.021430    0.021476    0.021495
     0.021687    0.021701    0.021902    0.022275    0.022280    0.022375
     0.022529    0.022538    0.022654    0.022667    0.023103    0.023131
     0.023143    0.023159    0.023171    0.023197    0.023212    0.023244
     0.023352    0.023367    0.023467    0.023487    0.023501    0.023556
     0.023639    0.023650    0.023743    0.023747    0.023760    0.023776
     0.023788    0.023825    0.023924    0.023941    0.023958    0.023971
     0.024013    0.024097    0.024160    0.024199    0.024245    0.024272
     0.024324    0.024365    0.024375    0.024390    0.024431    0.024465
     0.024493    0.024507    0.024525    0.024574    0.024589    0.024624
     0.024696    0.024752    0.024887    0.025043    0.025061    0.026476
     0.035802    0.038568    0.040888    0.043621    0.045425    0.048134
     0.049639    0.053966    0.054282    0.054456    0.054496    0.054927
     0.055014    0.055174    0.055308    0.055425    0.055680    0.055772
     0.055798    0.055832    0.055936    0.056036    0.056104    0.056387
     0.056456    0.056531    0.056781    0.056881    0.057205    0.058186
     0.059614    0.078962    0.079124    0.092994    0.093519    0.093807
     0.094038    0.127772    0.128438    0.128888    0.129130    0.133531
     0.134788    0.153299    0.155335    0.156514    0.159288    0.159428
     0.159791    0.159882    0.159956    0.159984    0.159993    0.159995
     0.159996    0.159996    0.159997    0.159998    0.159998    0.159998
     0.159999    0.159999    0.159999    0.159999    0.160000    0.160000
     0.160000    0.160000    0.160000    0.160000    0.160000    0.160000
     0.160000    0.160000    0.160000    0.160000    0.160000    0.160000
     0.160000    0.160071    0.160298    0.160330    0.160396    0.160585
     0.160847    0.160980    0.161220    0.161564    0.161688    0.163142
     0.177639    0.179008    0.210711    0.215772    0.219110    0.219854
     0.220006    0.220066    0.220452    0.220609    0.220627    0.221651
     0.222126    0.222242    0.223755    0.226088    0.227204    0.228580
     0.229678    0.230885    0.231878    0.232541    0.233672    0.233924
     0.234564    0.234965    0.235218    0.235777    0.237453    0.237656
     0.239839    0.240064    0.241884    0.243526    0.244312    0.245125
     0.246101    0.248048    0.248145    0.248901    0.249016    0.249414
     0.249550    0.249626    0.249700    0.249753    0.249834    0.249839
     0.249858    0.249887    0.249929    0.249957    0.249971    0.249984
     0.250182    0.250456    0.251479    0.253755    0.255245    0.258855
     0.261488    0.268467    0.280350    0.281253    0.282397    0.283450
     0.286343    0.287167    0.291752    0.294296    0.294977    0.296497
     0.296874    0.297165    0.297339    0.297445    0.305244    0.307150
     0.312799    0.317017    0.318747    0.320204    0.323467    0.333833
     0.334715    0.335150    0.341936    0.343997    0.344121    0.344267
     0.344430    0.344946    0.345801    0.346006    0.346072    0.346170
     0.346721    0.346834    0.347057    0.347141    0.347282    0.347351
     0.347417    0.347639    0.347989    0.348182    0.348214    0.348280
     0.348319    0.348438    0.348618    0.348798    0.348954    0.349091
     0.349148    0.349284    0.349410    0.349978    0.350112    0.350924
     0.352822    0.353208    0.353355    0.353857    0.354109    0.354436
     0.354519    0.354645    0.354729    0.355720    0.355775    0.355884
     0.356029    0.356142    0.356157    0.356165    0.356188    0.356285
     0.356306    0.356724    0.356775    0.356832    0.356874    0.356891
     0.357074    0.358032    0.358085    0.358113    0.358186    0.358769
     0.358987    0.359188    0.359857    0.360260    0.360624    0.360838
     0.363083    0.365050    0.370413    0.373647    0.375100    0.382594
     0.392405    0.396068    0.397431    0.399496    0.405016    0.407260
     0.407630    0.407769    0.410347    0.411943    0.415659    0.417124
     0.417186    0.417843    0.419050    0.421603    0.422996    0.425305
     0.426272    0.428854    0.430721    0.431357    0.432722    0.432971
     0.433568    0.435890    0.437122    0.441318    0.442259    0.449277
     0.451852    0.452969    0.454260    0.455818    0.457488    0.459879
     0.460062    0.462415    0.463617    0.468452    0.470193    0.471117
     0.472268    0.472556    0.473605    0.479096    0.479539    0.480644
     0.481180    0.481415    0.481801    0.482040    0.482619    0.483702
     0.484115    0.484121    0.484761    0.487429    0.490241    0.491000
     0.495064    0.495761    0.495882    0.497290    0.498131    0.499604
     0.501143    0.512923    0.527413    0.531045    0.536360

 Minimum Search - Taking Simple RFO Step
 Searching for Lamda that Minimizes Along All modes
 Value Taken    Lamda =  -0.00082683
 Step Taken.  Stepsize is  0.121514

                             Maximum     Tolerance    Cnvgd?
         Gradient           0.005524      0.000075      NO
         Displacement       0.030133      0.001200      NO
         Energy change      0.000366      0.000000      NO


 New Cartesian Coordinates Obtained by Inverse Iteration

 Displacement from previous Coordinates is:  1.884789
 Adding empirical dispersion correction 
 ----------------------------------------------------------------
 Doing -D3(BJ) with
 s6 =   1.00000
 s8 =   0.00000
 a1 =   0.48600
 a2 =   4.50000
 -D3 energy including 3body term =     -0.1508291727 hartrees
 ----------------------------------------------------------------
 Adding gCP correction 
 ----------------------------------------------------------------
 gCP energy =      0.2098584557 hartrees
 ----------------------------------------------------------------
             Standard Nuclear Orientation (Angstroms)
    I     Atom           X                Y                Z
 ----------------------------------------------------------------
    1      N       0.1262037044    -1.1263127464     0.7140977214
    2      C      -0.5686997782    -0.3275842742     1.5933752299
    3      C       0.1223157545     0.5248975186     2.4742017275
    4      C       1.6263968098     0.6011274274     2.5093394814
    5      C      -0.6347465813     1.3128074307     3.3293244859
    6      H      -0.1380666010     1.9833666760     4.0175867368
    7      C      -2.0191974112     1.2687480790     3.3304317349
    8      H      -2.5751052009     1.8982071318     4.0118337592
    9      C      -2.6920412637     0.4150552765     2.4590977681
   10      H      -3.7722190853     0.3723025418     2.4569837127
   11      C      -1.9792257264    -0.3786108050     1.5963826199
   12      H      -2.5023891057    -1.0401645055     0.9222507568
   13      C       1.5001707763    -1.1533453164     0.6541597371
   14      C       2.1294593039    -2.0041599173    -0.2778546819
   15      H       1.5375906257    -2.6221555509    -0.9365842017
   16      C       3.4991209009    -2.0461685951    -0.3492566275
   17      H       3.9773043047    -2.6998820064    -1.0650043299
   18      C       4.2628747931    -1.2458811638     0.4979518023
   19      H       5.3425764610    -1.2746464956     0.4453091142
   20      C       3.6415708958    -0.4074809735     1.4087472807
   21      H       4.2566352053     0.2069104498     2.0521762081
   22      C       2.2605049606    -0.3358943397     1.5119582842
   23      C      -0.6238861760    -1.9584764635    -0.1909329355
   24      C      -0.9363030962    -3.2512566096     0.1801538998
   25      H      -0.6077666199    -3.6409857844     1.1374656279
   26      C      -1.6883342421    -4.0436125850    -0.6831185181
   27      C      -1.0306569947    -1.4321031983    -1.4022739404
   28      H      -0.7708636876    -0.4141586202    -1.6708275688
   29      C      -1.7875068992    -2.2162746935    -2.2659004800
   30      C      -2.1355690534    -3.5317145151    -1.9113187527
   31      C      -2.1922063690    -1.6338389042    -3.5948736274
   32      H      -2.2472107662    -0.5449609857    -3.5138105522
   33      H      -3.1953737744    -1.9730546839    -3.8590152753
   34      C      -1.2224894793    -2.0125850561    -4.7123271281
   35      C      -2.0572776341    -5.4361147244    -0.2425797074
   36      H      -1.2609776259    -5.8431675397     0.3865449685
   37      H      -2.1282520573    -6.0915262123    -1.1124046191
   38      C      -3.3780660608    -5.4696959098     0.5230231382
   39      H      -4.2008675249    -5.1236516092    -0.1014408011
   40      H      -3.6113644643    -6.4847318894     0.8451371834
   41      H      -3.3385952495    -4.8368482850     1.4113704572
   42      B      -3.0723002917    -4.3823278084    -2.8755060394
   43      C      -4.5846355719    -4.1230022628    -2.8406817532
   44      C      -5.1563292032    -3.2216141688    -1.9127490277
   45      H      -4.5115685016    -2.7007032672    -1.2114255443
   46      C      -6.5119121811    -3.0024162794    -1.8824692639
   47      C      -7.3574247237    -3.6854287407    -2.8059727785
   48      C      -6.8254829775    -4.5543728809    -3.7235547059
   49      H      -7.4757010353    -5.0622835042    -4.4287410458
   50      C      -5.4411322213    -4.7994101438    -3.7641820064
   51      C      -7.3657353260    -2.1597042849    -1.0416791668
   52      C      -7.1690163002    -1.2885524857     0.0010063583
   53      H      -6.1799973928    -1.0838592835     0.3929483991
   54      C      -8.6894243532    -2.3667065054    -1.4863256176
   55      C      -9.8150218780    -1.7523805757    -0.9422438606
   56      C      -8.7349826768    -3.2834129643    -2.5555656359
   57      C      -9.9555446117    -3.5974611866    -3.1025739876
   58      H     -10.0497317719    -4.2951971507    -3.9259062901
   59      C      -8.2926033770    -0.6468322790     0.5732357771
   60      H      -8.1319387661     0.0393278846     1.3954562569
   61      C      -9.5782051538    -0.8599991378     0.1303990230
   62      H     -10.4069444057    -0.3459662600     0.6022934216
   63      C     -11.0621285483    -2.0930080142    -1.5233567843
   64      H     -11.9759364097    -1.6508401333    -1.1450631230
   65      C     -11.1130049891    -2.9870386204    -2.5685095543
   66      H     -12.0745403655    -3.2358629514    -3.0001828797
   67      C      -2.4907379304    -5.4073092985    -3.8562097001
   68      C      -1.1089574092    -5.7099186314    -3.8763792922
   69      H      -0.4456807469    -5.2069642285    -3.1787281222
   70      C      -0.5994073435    -6.6316128115    -4.7594427473
   71      C      -1.4733849217    -7.2837103808    -5.6787204107
   72      C      -2.8146641320    -6.9978475255    -5.6864997098
   73      H      -3.4718714350    -7.4961519850    -6.3920750668
   74      C      -3.3581845111    -6.0681502469    -4.7820293247
   75      C       0.7504575353    -7.1530156790    -4.9895304393
   76      C       1.9916860466    -6.9440261143    -4.4428031269
   77      H       2.1481277320    -6.2378317951    -3.6366952514
   78      C       0.6394915098    -8.0973490414    -6.0330290832
   79      C       1.6980819533    -8.8388520559    -6.5501253004
   80      C      -0.6909518373    -8.2099261546    -6.4832404709
   81      C      -0.9756149186    -9.0968082126    -7.4922454035
   82      H      -1.9817371646    -9.2246076923    -7.8729557800
   83      C       3.0887885268    -7.6797280555    -4.9494920213
   84      H       4.0660844168    -7.5120711861    -4.5144211611
   85      C       2.9650952693    -8.5989886726    -5.9664442189
   86      H       3.8360091231    -9.1392673808    -6.3172756380
   87      C       1.3800379499    -9.7466319748    -7.5912084435
   88      H       2.1580227543   -10.3545803075    -8.0369103818
   89      C       0.0822853650    -9.8595796553    -8.0360014328
   90      H      -0.1407778937   -10.5602117956    -8.8310218643
   91      B      -4.8643776609    -5.7754428213    -4.7974220627
   92      C      -5.8129087420    -6.4478002114    -5.8787414461
   93      C      -6.1819620274    -5.7319732290    -7.0302571074
   94      C      -7.0353472577    -6.3013867467    -7.9688237096
   95      H      -7.3311177320    -5.7418297054    -8.8499611602
   96      C      -7.5201535331    -7.5848441080    -7.7901638601
   97      C      -7.1529766599    -8.3078981286    -6.6700473325
   98      H      -7.5415754809    -9.3123696940    -6.5384477750
   99      C      -6.3124320810    -7.7491039969    -5.7124187685
  100      N      -8.4206492246    -8.1476813103    -8.7390638889
  101      C      -9.7849092786    -7.9857068100    -8.5407616534
  102      C     -10.7097752326    -8.5104796041    -9.4508447510
  103      C     -10.2947725637    -9.2744657038   -10.6970084946
  104      C     -12.0650319355    -8.3189102536    -9.1998546821
  105      H     -12.7881026391    -8.7227506569    -9.8982997928
  106      C     -12.5299864110    -7.6315446855    -8.0938116826
  107      H     -13.5922175156    -7.5037690846    -7.9343176598
  108      C     -11.6051828080    -7.1137916816    -7.2009099407
  109      H     -11.9324428397    -6.5695816894    -6.3242460250
  110      C     -10.2525079029    -7.2870034798    -7.4190362813
  111      H      -9.5507548872    -6.8745169035    -6.7085699136
  112      C      -7.9207463897    -8.8319620472    -9.8385183531
  113      C      -8.7821057305    -9.3818618430   -10.7955143113
  114      C      -8.2218479823   -10.0530541976   -11.8781177443
  115      H      -8.8787826804   -10.4821775162   -12.6253294383
  116      C      -6.8560649740   -10.1970309732   -12.0415524086
  117      H      -6.4598259848   -10.7251978466   -12.8983958170
  118      C      -6.0135823265    -9.6508810304   -11.0862491421
  119      H      -4.9395295673    -9.7447434779   -11.1820344088
  120      C      -6.5366077708    -8.9778148944    -9.9996235270
  121      H      -5.8624164724    -8.5575919632    -9.2671991842
  122      C      -6.0175991287    -8.5522704891    -4.4728138054
  123      H      -5.9238910415    -9.6094442704    -4.7363182169
  124      H      -5.0570424577    -8.2559860096    -4.0473036319
  125      C      -7.1132601354    -8.3894451001    -3.4213185215
  126      C      -5.6280909666    -4.3608705747    -7.3151305741
  127      H      -6.3790565803    -3.7655286748    -7.8416705080
  128      H      -5.4198359278    -3.8350450511    -6.3813583354
  129      C      -4.3556585154    -4.4297725216    -8.1564438809
  130      H      -3.5775897552    -4.9920708968    -7.6401729423
  131      H      -4.5424658286    -4.9210114883    -9.1128890808
  132      H      -3.9655651687    -3.4319731312    -8.3623000367
  133      H      -7.1973883828    -7.3498228288    -3.1038804155
  134      H      -6.9029259184    -8.9920002471    -2.5366430242
  135      H      -8.0835182056    -8.6976776732    -3.8145138702
  136      H      -1.5350363595    -1.5691776584    -5.6580714748
  137      H      -1.1868791519    -3.0924806060    -4.8509930543
  138      H      -0.2109950241    -1.6648461303    -4.4962109190
  139      C     -10.8311929312    -8.5396744408   -11.9385427628
  140      C     -10.8979583322   -10.6890217030   -10.6427570034
  141      C       2.1029606896     0.2187951693     3.9245020496
  142      C       2.0524008173     2.0432345311     2.1701364808
  143      H       1.7135848597     2.3271849323     1.1740620027
  144      H       3.1362157258     2.1462530512     2.2026082954
  145      H       1.6336519701     2.7503737391     2.8849466162
  146      H       1.8052098140    -0.7987599421     4.1765373725
  147      H       1.6805682770     0.8897760832     4.6712348837
  148      H       3.1871412750     0.2850650150     4.0036877888
  149      H     -10.4176369538    -7.5334040848   -12.0046077477
  150      H     -11.9183614559    -8.4547779346   -11.9093717812
  151      H     -10.5728768269    -9.0700174786   -12.8560278187
  152      H     -10.5341313520   -11.2334789677    -9.7715536433
  153      H     -10.6392511516   -11.2662719855   -11.5313851923
  154      H     -11.9867354571   -10.6539270245   -10.5858383945
 ----------------------------------------------------------------
 Nuclear Repulsion Energy = 13750.4891915630 hartrees
 There are      293 alpha and      291 beta electrons
 Discretize the solute cavity surface with Lebedev spheres
	Using 302 Lebedev grid points for each H atom
	Using 302 Lebedev grid points for other atoms
	Atomic van der Waals radii will be scaled by 1.20
 Remove points where switching function is < 1.0e-08
 Keep 15671 surface tesserae and discard 30837 interior tesserae
 Molecular Surface Area = 1138.325 Angst**2
 Nucleus-field energy     =     0.0000000187 hartrees
 Requested basis set is def2-mSVP
 There are 738 shells and 1426 basis functions
 A cutoff of  1.0D-11 yielded  70189 shell pairs
 There are    271515 function pairs (    298596 Cartesian)
 Smallest overlap matrix eigenvalue = 1.95E-04
 Guess MOs from SCF MO coefficient file

 -----------------------------------------------------------------------
  General SCF calculation program by
  Eric Jon Sundstrom, Paul Horn, Yuezhi Mao, Dmitri Zuev, Alec White,
  David Stuck, Shaama M.S., Shane Yost, Joonho Lee, David Small,
  Daniel Levine, Susi Lehtola, Hugh Burton, Evgeny Epifanovsky
 -----------------------------------------------------------------------
 Exchange:     0.4200 Hartree-Fock + 0.5800 PBEh-3c
 Correlation:  1.0000 PBEh-3c
 Using SG-1 standard quadrature grid
 Dispersion:   Grimme D3
 using 8 threads for integral computing
 -------------------------------------------------------
 OpenMP Integral computing Module                
 Release: version 2.0, May 2017, Q-Chem Inc. Pleasanton 
 -------------------------------------------------------
 -------------------------------------------------------
 OpenMP BLAS3 based DFT computing Module                
 Release: version 1.0, May 2013, Q-Chem Inc. Pittsburgh 
 -------------------------------------------------------
 A unrestricted SCF calculation will be
 performed using DIIS
 SCF converges when DIIS error is below 1.0e-08
 ---------------------------------------
  Cycle       Energy         DIIS error
 ---------------------------------------
 Using non-symmetric K matrix
    1   -3315.0600422856      9.10e-05  
    2   -3317.6329687093      2.35e-04  
    3   -3317.7184781531      7.30e-05  
    4   -3317.7228714919      4.08e-05  
    5   -3317.7237223761      3.26e-05  
    6   -3317.7243497799      2.40e-05  
    7   -3317.7246315898      1.90e-05  
    8   -3317.7248520391      1.45e-05  
