mFile = /cm/shared/apps/q-chem/intel/QCHEM_5.1.0_Trunk/bin/mpi/machines
Process 0 of 1 is on ctcp010 - thread support 0
initial socket setup ...start
initial socket setup ...done 
now start server 0 ... 
Q-Chem Developer Version!
                  Welcome to Q-Chem
     A Quantum Leap Into The Future Of Chemistry


 Q-Chem 5.1, Q-Chem, Inc., Pleasanton, CA (2018)

 Yihan Shao,  Zhengting Gan,  E. Epifanovsky,  A. T. B. Gilbert,  M. Wormit,  
 J. Kussmann,  A. W. Lange,  A. Behn,  Jia Deng,  Xintian Feng,  D. Ghosh,  
 M. Goldey,  P. R. Horn,  L. D. Jacobson,  I. Kaliman,  T. Kus,  A. Landau,  
 Jie Liu,  E. I. Proynov,  R. M. Richard,  R. P. Steele,  E. J. Sundstrom,  
 H. L. Woodcock III,  P. M. Zimmerman,  D. Zuev,  B. Albrecht,  E. Alguire,  
 S. A. Baeppler,  D. Barton,  Z. Benda,  Y. A. Bernard,  E. J. Berquist,  
 K. B. Bravaya,  H. Burton,  D. Casanova,  Chun-Min Chang,  Yunqing Chen,  
 A. Chien,  K. D. Closser,  M. P. Coons,  S. Coriani,  S. Dasgupta,  
 A. L. Dempwolff,  M. Diedenhofen,  Hainam Do,  R. G. Edgar,  Po-Tung Fang,  
 S. Faraji,  S. Fatehi,  Qingguo Feng,  K. D. Fenk,  J. Fosso-Tande,  
 Qinghui Ge,  A. Ghysels,  G. Gidofalvi,  J. Gomes,  J. Gonthier,  A. Gunina,  
 D. Hait,  M. W. D. Hanson-Heine,  P. H. P. Harbach,  A. W. Hauser,  
 J. E. Herr,  E. G. Hohenstein,  Z. C. Holden,  Kerwin Hui,  B. C. Huynh,  
 T.-C. Jagau,  Hyunjun Ji,  B. Kaduk,  K. Khistyaev,  Jaehoon Kim,  
 P. Klunzinger,  K. Koh,  D. Kosenkov,  L. Koulias,  T. Kowalczyk,  
 C. M. Krauter,  A. Kunitsa,  Ka Un Lao,  A. Laurent,  K. V. Lawler,  
 Joonho Lee,  D. Lefrancois,  S. Lehtola,  D. S. Levine,  Yi-Pei Li,  
 You-Sheng Lin,  Fenglai Liu,  E. Livshits,  A. Luenser,  P. Manohar,  
 E. Mansoor,  S. F. Manzer,  Shan-Ping Mao,  Yuezhi Mao,  N. Mardirossian,  
 A. V. Marenich,  T. Markovich,  L. A. Martinez-Martinez,  S. A. Maurer,  
 N. J. Mayhall,  S. C. McKenzie,  J.-M. Mewes,  A. F. Morrison,  
 J. W. Mullinax,  K. Nanda,  T. S. Nguyen-Beck,  R. Olivares-Amaya,  
 J. A. Parkhill,  T. M. Perrine,  F. Plasser,  P. Pokhilko,  S. Prager,  
 A. Prociuk,  E. Ramos,  D. R. Rehn,  F. Rob,  M. Schneider,  N. Sergueev,  
 S. M. Sharada,  S. Sharma,  D. W. Small,  T. Stauch,  T. Stein,  
 Yu-Chuan Su,  A. J. W. Thom,  A. Tkatchenko,  T. Tsuchimochi,  N. M. Tubman,  
 L. Vogt,  M. L. Vidal,  O. Vydrov,  M. A. Watson,  J. Wenzel,  
 M. de Wergifosse,  T. A. Wesolowski,  A. White,  J. Witte,  A. Yamada,  
 Jun Yang,  K. Yao,  S. Yeganeh,  S. R. Yost,  Zhi-Qiang You,  A. Zech,  
 Igor Ying Zhang,  Xing Zhang,  Yan Zhao,  Ying Zhu,  B. R. Brooks,  
 G. K. L. Chan,  C. J. Cramer,  M. S. Gordon,  W. J. Hehre,  A. Klamt,  
 M. W. Schmidt,  C. D. Sherrill,  D. G. Truhlar,  A. Aspuru-Guzik,  R. Baer,  
 A. T. Bell,  N. A. Besley,  Jeng-Da Chai,  A. E. DePrince, III,  
 R. A. DiStasio Jr.,  A. Dreuw,  B. D. Dunietz,  T. R. Furlani,  
 Chao-Ping Hsu,  Yousung Jung,  Jing Kong,  D. S. Lambrecht,  WanZhen Liang,  
 C. Ochsenfeld,  V. A. Rassolov,  L. V. Slipchenko,  J. E. Subotnik,  
 T. Van Voorhis,  J. M. Herbert,  A. I. Krylov,  P. M. W. Gill,  M. Head-Gordon

 Contributors to earlier versions of Q-Chem not listed above: 
 R. D. Adamson,  B. Austin,  J. Baker,  G. J. O. Beran,  K. Brandhorst,  
 S. T. Brown,  E. F. C. Byrd,  A. K. Chakraborty,  C.-L. Cheng,  
 Siu Hung Chien,  D. M. Chipman,  D. L. Crittenden,  H. Dachsel,  
 R. J. Doerksen,  A. D. Dutoi,  L. Fusti-Molnar,  W. A. Goddard III,  
 A. Golubeva-Zadorozhnaya,  S. R. Gwaltney,  G. Hawkins,  A. Heyden,  
 S. Hirata,  G. Kedziora,  F. J. Keil,  C. Kelley,  Jihan Kim,  R. A. King,  
 R. Z. Khaliullin,  P. P. Korambath,  W. Kurlancheek,  A. M. Lee,  M. S. Lee,  
 S. V. Levchenko,  Ching Yeh Lin,  D. Liotard,  R. C. Lochan,  I. Lotan,  
 P. E. Maslen,  N. Nair,  D. P. O'Neill,  D. Neuhauser,  E. Neuscamman,  
 C. M. Oana,  R. Olson,  B. Peters,  R. Peverati,  P. A. Pieniazek,  
 Y. M. Rhee,  J. Ritchie,  M. A. Rohrdanz,  E. Rosta,  N. J. Russ,  
 H. F. Schaefer III,  N. E. Schultz,  N. Shenvi,  A. C. Simmonett,  A. Sodt,  
 D. Stuck,  K. S. Thanthiriwatte,  V. Vanovschi,  Tao Wang,  A. Warshel,  
 C. F. Williams,  Q. Wu,  X. Xu,  W. Zhang

 Please cite Q-Chem as follows:
 Y. Shao et al., Mol. Phys. 113, 184-215 (2015)
 DOI: 10.1080/00268976.2014.952696

 Q-Chem 5.1.1 for Intel X86 EM64T Linux

 Parts of Q-Chem use Armadillo 8.300.2 (Tropical Shenanigans).
 http://arma.sourceforge.net/

 Q-Chem begins on Wed Nov 14 23:00:04 2018  

Host: ctcp010
0

     Scratch files written to /scratch/mewes/140308/qchem131004//
 Parallel job on  1  processors
The previous job contains 0 fragments, simply inherited here
Symmetry turned off for PCM/SM12/SMD calculation
Input Ideriv = 2
Curr. Ideriv = -1
Max.  Ideriv = 2
Input Ideriv = 2
Curr. Ideriv = 2
Max.  Ideriv = 2

Checking the input file for inconsistencies... 	...done.

--------------------------------------------------------------
User input:
--------------------------------------------------------------
$rem
threads 8
jobtype opt
method PBEh-3c
basis def2-mSVP
mem_static      1024
mem_total       8000
sym_ignore      true
unrestricted true
scf_algorithm	diis
scf_max_cycles	250
solvent_method  pcm
geom_opt_tol_energy 25
geom_opt_tol_gradient 75
$end

$pcm
theory  iefpcm
$end
$solvent
dielectric      4.33
$end

$molecule
read uincoords.mol
$end
--------------------------------------------------------------
 Adding empirical dispersion correction 
 ----------------------------------------------------------------
 Doing -D3(BJ) with
 s6 =   1.00000
 s8 =   0.00000
 a1 =   0.48600
 a2 =   4.50000
 -D3 energy including 3body term =     -0.1507731752 hartrees
 ----------------------------------------------------------------
 Adding gCP correction 
 ----------------------------------------------------------------
 gCP energy =      0.2100884175 hartrees
 ----------------------------------------------------------------
             Standard Nuclear Orientation (Angstroms)
    I     Atom           X                Y                Z
 ----------------------------------------------------------------
    1      N       0.1593970000    -1.1728530000     0.7182300000
    2      C      -0.4299490000    -0.5017740000     1.7813450000
    3      C       0.3380760000     0.2718040000     2.6572380000
    4      C       1.8367800000     0.4455620000     2.4910700000
    5      C      -0.3118980000     0.9180430000     3.7043370000
    6      H       0.2709970000     1.5216050000     4.3895860000
    7      C      -1.6770780000     0.8261910000     3.9048890000
    8      H      -2.1453670000     1.3442860000     4.7307470000
    9      C      -2.4274190000     0.0625910000     3.0253390000
   10      H      -3.4987840000    -0.0275680000     3.1509960000
   11      C      -1.8149620000    -0.5921790000     1.9765590000
   12      H      -2.4164470000    -1.1808690000     1.2990380000
   13      C       1.5284100000    -1.1241410000     0.4929560000
   14      C       2.0836300000    -1.8439730000    -0.5730220000
   15      H       1.4459530000    -2.4394910000    -1.2103950000
   16      C       3.4393650000    -1.8020860000    -0.8261660000
   17      H       3.8382750000    -2.3669550000    -1.6588210000
   18      C       4.2763940000    -1.0433340000    -0.0241030000
   19      H       5.3401010000    -0.9992180000    -0.2144870000
   20      C       3.7242330000    -0.3397240000     1.0304380000
   21      H       4.3800930000     0.2533170000     1.6561640000
   22      C       2.3628270000    -0.3617930000     1.3161900000
   23      C      -0.6584000000    -1.9382520000    -0.1607810000
   24      C      -0.9887580000    -3.2441550000     0.1551850000
   25      H      -0.6258690000    -3.6728090000     1.0829420000
   26      C      -1.7864340000    -3.9992120000    -0.6986780000
   27      C      -1.1227260000    -1.3805840000    -1.3392870000
   28      H      -0.8592650000    -0.3567110000    -1.5805480000
   29      C      -1.9099280000    -2.1235110000    -2.2124960000
   30      C      -2.2567720000    -3.4481930000    -1.9003430000
   31      C      -2.3281040000    -1.4941170000    -3.5170700000
   32      H      -2.3842120000    -0.4091570000    -3.3951290000
   33      H      -3.3332340000    -1.8209090000    -3.7913580000
   34      C      -1.3627900000    -1.8258210000    -4.6533070000
   35      C      -2.1774100000    -5.3926810000    -0.2779300000
   36      H      -1.3847610000    -5.8216370000     0.3410050000
   37      H      -2.2658610000    -6.0411080000    -1.1522080000
   38      C      -3.4913020000    -5.4112050000     0.4997160000
   39      H      -4.3145520000    -5.0418740000    -0.1114800000
   40      H      -3.7424600000    -6.4236440000     0.8191110000
   41      H      -3.4290830000    -4.7841590000     1.3901850000
   42      B      -3.1763290000    -4.2853930000    -2.8850710000
   43      C      -4.6984080000    -4.0511420000    -2.8909300000
   44      C      -5.2919760000    -3.1462800000    -1.9892560000
   45      H      -4.6600990000    -2.6139580000    -1.2859780000
   46      C      -6.6519060000    -2.9342620000    -1.9897260000
   47      C      -7.4737830000    -3.6364490000    -2.9191020000
   48      C      -6.9161440000    -4.5160440000    -3.8108200000
   49      H      -7.5545380000    -5.0379240000    -4.5169660000
   50      C      -5.5297870000    -4.7513470000    -3.8215770000
   51      C      -7.5249920000    -2.0853280000    -1.1813960000
   52      C      -7.3523350000    -1.1956420000    -0.1498280000
   53      H      -6.3726130000    -0.9768310000     0.2557730000
   54      C      -8.8386620000    -2.3070950000    -1.6474280000
   55      C      -9.9777620000    -1.6912400000    -1.1342790000
   56      C      -8.8582130000    -3.2397910000    -2.7028450000
   57      C     -10.0672530000    -3.5674510000    -3.2675460000
   58      H     -10.1398860000    -4.2779500000    -4.0823580000
   59      C      -8.4900820000    -0.5534680000     0.3900210000
   60      H      -8.3469640000     0.1468710000     1.2030240000
   61      C      -9.7660800000    -0.7811820000    -0.0718550000
   62      H     -10.6058490000    -0.2647670000     0.3768450000
   63      C     -11.2103180000    -2.0478430000    -1.7337190000
   64      H     -12.1333090000    -1.6050060000    -1.3795090000
   65      C     -11.2372630000    -2.9572880000    -2.7662460000
   66      H     -12.1905570000    -3.2156520000    -3.2108770000
   67      C      -2.5703900000    -5.3181300000    -3.8542950000
   68      C      -1.1892770000    -5.5971600000    -3.8441140000
   69      H      -0.5499530000    -5.0622610000    -3.1493930000
   70      C      -0.6487220000    -6.5397110000    -4.6902010000
   71      C      -1.4960550000    -7.2355050000    -5.6009820000
   72      C      -2.8400810000    -6.9653080000    -5.6428440000
   73      H      -3.4731190000    -7.4986700000    -6.3454020000
   74      C      -3.4126330000    -6.0152920000    -4.7788160000
   75      C       0.7083850000    -7.0506450000    -4.8727440000
   76      C       1.9343840000    -6.8064680000    -4.3058250000
   77      H       2.0643050000    -6.0683460000    -3.5245540000
   78      C       0.6312500000    -8.0363310000    -5.8801300000
   79      C       1.7086140000    -8.7869540000    -6.3418850000
   80      C      -0.6878500000    -8.1833510000    -6.3521260000
   81      C      -0.9399410000    -9.1181950000    -7.3260130000
   82      H      -1.9375260000    -9.2775170000    -7.7174890000
   83      C       3.0486100000    -7.5492500000    -4.7580640000
   84      H       4.0130390000    -7.3533690000    -4.3070440000
   85      C       2.9586780000    -8.5096450000    -5.7395650000
   86      H       3.8430230000    -9.0541010000    -6.0469980000
   87      C       1.4225590000    -9.7411890000    -7.3486960000
   88      H       2.2165010000   -10.3587840000    -7.7505590000
   89      C       0.1359520000    -9.8902120000    -7.8144550000
   90      H      -0.0605770000   -10.6297310000    -8.5809170000
   91      B      -4.9127990000    -5.7338100000    -4.8142130000
   92      C      -5.8391260000    -6.4372380000    -5.9076030000
   93      C      -6.1929170000    -5.7406540000    -7.0755330000
   94      C      -7.0288290000    -6.3272490000    -8.0202250000
   95      H      -7.3156180000    -5.7835030000    -8.9136410000
   96      C      -7.4960720000    -7.6068940000    -7.8046100000
   97      C      -7.1561310000    -8.3242740000    -6.6776710000
   98      H      -7.5416260000    -9.3274470000    -6.5312440000
   99      C      -6.3286480000    -7.7392730000    -5.7233100000
  100      N      -8.4006630000    -8.1927380000    -8.7655840000
  101      C      -9.7453240000    -8.0288710000    -8.5663560000
  102      C     -10.6742820000    -8.5684030000    -9.4810950000
  103      C     -10.2472210000    -9.3391230000   -10.7054070000
  104      C     -12.0211770000    -8.3651130000    -9.2310290000
  105      H     -12.7564600000    -8.7647280000    -9.9160200000
  106      C     -12.4612230000    -7.6590830000    -8.1243060000
  107      H     -13.5205620000    -7.5192590000    -7.9620290000
  108      C     -11.5366690000    -7.1297520000    -7.2262030000
  109      H     -11.8704920000    -6.5772750000    -6.3602510000
  110      C     -10.1944660000    -7.3068870000    -7.4393320000
  111      H      -9.4812200000    -6.8932920000    -6.7441960000
  112      C      -7.8866620000    -8.8818060000    -9.8317020000
  113      C      -8.7460050000    -9.4552960000   -10.7937600000
  114      C      -8.1684600000   -10.1393460000   -11.8500240000
  115      H      -8.8011270000   -10.5872210000   -12.6044630000
  116      C      -6.7952690000   -10.2690620000   -11.9734090000
  117      H      -6.3799510000   -10.8102640000   -12.8117130000
  118      C      -5.9547160000    -9.7024520000   -11.0172040000
  119      H      -4.8827190000    -9.8000280000   -11.1058460000
  120      C      -6.4871000000    -9.0161950000    -9.9569140000
  121      H      -5.8367950000    -8.5769270000    -9.2169510000
  122      C      -6.0413920000    -8.5161380000    -4.4673660000
  123      H      -5.9406350000    -9.5783200000    -4.7072540000
  124      H      -5.0860430000    -8.2030850000    -4.0464460000
  125      C      -7.1450350000    -8.3271950000    -3.4286860000
  126      C      -5.6498280000    -4.3690500000    -7.3704360000
  127      H      -6.3890420000    -3.7958510000    -7.9367710000
  128      H      -5.4857330000    -3.8255720000    -6.4399610000
  129      C      -4.3449210000    -4.4431510000    -8.1597850000
  130      H      -3.5817030000    -4.9812910000    -7.5993600000
  131      H      -4.4849540000    -4.9529980000    -9.1148810000
  132      H      -3.9613960000    -3.4444290000    -8.3675620000
  133      H      -7.2352890000    -7.2797260000    -3.1429130000
  134      H      -6.9301240000    -8.8994760000    -2.5264080000
  135      H      -8.1129760000    -8.6578920000    -3.8104320000
  136      H      -1.6736590000    -1.3457730000    -5.5825350000
  137      H      -1.3215890000    -2.8999620000    -4.8323480000
  138      H      -0.3520690000    -1.4870170000    -4.4222990000
  139      C     -10.7649640000    -8.6074500000   -11.9618680000
  140      C     -10.8573360000   -10.7553070000   -10.6430950000
  141      C       2.5380000000    -0.0235590000     3.7762030000
  142      C       2.1327950000     1.9341400000     2.2429820000
  143      H       1.6408060000     2.2760860000     1.3324880000
  144      H       3.2029650000     2.1143370000     2.1346740000
  145      H       1.7763300000     2.5517550000     3.0682610000
  146      H       2.3231830000    -1.0746480000     3.9683760000
  147      H       2.2074220000     0.5506980000     4.6423120000
  148      H       3.6200820000     0.0901170000     3.7054520000
  149      H     -10.3480410000    -7.6039750000   -12.0365940000
  150      H     -11.8506760000    -8.5214090000   -11.9430850000
  151      H     -10.4985230000    -9.1519040000   -12.8669420000
  152      H     -10.5112140000   -11.2975270000    -9.7643020000
  153      H     -10.5895800000   -11.3356280000   -11.5250220000
  154      H     -11.9447890000   -10.7095090000   -10.6048480000
 ----------------------------------------------------------------
 Nuclear Repulsion Energy = 13748.0058826392 hartrees
 There are      293 alpha and      291 beta electrons
 Requested basis set is def2-mSVP
 There are 738 shells and 1426 basis functions

 Total QAlloc Memory Limit   8000 MB
 Mega-Array Size      1001 MB
 MEM_STATIC part      1024 MB
 Discretize the solute cavity surface with Lebedev spheres
	Using 302 Lebedev grid points for each H atom
	Using 302 Lebedev grid points for other atoms
	Atomic van der Waals radii will be scaled by 1.20
 Remove points where switching function is < 1.0e-08
 Keep 15671 surface tesserae and discard 30837 interior tesserae
 Molecular Surface Area = 1137.235 Angst**2
 A cutoff of  1.0D-11 yielded  70187 shell pairs
 There are    271673 function pairs (    298758 Cartesian)
 
 -------------------------------------------------------
 OpenMP Integral Computing Module                       
 Release: version 1.0, May 2013, Q-Chem Inc. Pittsburgh 
 -------------------------------------------------------
 Integral Job Info:
 Integral job number is                      11
 Integral operator is                         1
 short-range coefficients                     0
 long-range coefficients              100000000
 Omega coefficients                           0
 if combine SR and LR in K                    0
 Integral screening is                        0
 Integral computing path is                   2
 max size of driver memory is            800000
 size of driver memory is                593474
 size of scratch memory is              1809772
 max col of scratch BK array               1296
 max len of scratch array in speh3          155
 max len of scratch index in speh4           18
 max int batch size is                      520
 min int batch size is                       52
 fixed nKL is                                52
 max L of basis functions is                  2
 order of int derivative is                   0
 number of shells is                        738
 number of basis is                        1512
 number of cartesian basis is              1512
 number of contracted shell pairs         70187
 number of primitive shell pairs         144860
 maxK2 (contraction) of shell pair           25
 max number of K2 of shell pair               1
 max number of CS2 of shell pair          17350
 max number of PS2 of shell pair          25530
 mem total for path MDJ                 1196540
 -------------------------------------------------------
 Smallest overlap matrix eigenvalue = 1.94E-04

 Scale SEOQF with 1.000000e-02/1.000000e-02/1.000000e-02

 Standard Electronic Orientation quadrupole field applied
 Nucleus-field energy     =     0.0000000191 hartrees
 Guess from superposition of atomic densities
 Warning:  Energy on first SCF cycle will be non-variational
 SAD guess density has 584.000001 electrons

 -----------------------------------------------------------------------
  General SCF calculation program by
  Eric Jon Sundstrom, Paul Horn, Yuezhi Mao, Dmitri Zuev, Alec White,
  David Stuck, Shaama M.S., Shane Yost, Joonho Lee, David Small,
  Daniel Levine, Susi Lehtola, Hugh Burton, Evgeny Epifanovsky
 -----------------------------------------------------------------------
 Exchange:     0.4200 Hartree-Fock + 0.5800 PBEh-3c
 Correlation:  1.0000 PBEh-3c
 Using SG-1 standard quadrature grid
 Dispersion:   Grimme D3
 using 8 threads for integral computing
 -------------------------------------------------------
 OpenMP Integral computing Module                
 Release: version 2.0, May 2017, Q-Chem Inc. Pleasanton 
 -------------------------------------------------------
 -------------------------------------------------------
 OpenMP BLAS3 based DFT computing Module                
 Release: version 1.0, May 2013, Q-Chem Inc. Pittsburgh 
 -------------------------------------------------------
 A unrestricted SCF calculation will be
 performed using DIIS
 SCF converges when DIIS error is below 1.0e-08
 ---------------------------------------
  Cycle       Energy         DIIS error
 ---------------------------------------
 Using non-symmetric K matrix
    1   -3346.4002724704      1.13e-02  
    2   -3316.9729603280      8.05e-04  
    3   -3316.8054960732      9.07e-04  
    4   -3317.5831776176      3.67e-04  
    5   -3317.7391553952      6.16e-05  
    6   -3317.7425631443      4.47e-05  
    7   -3317.7448593941      1.30e-05  
    8   -3317.7452020374      7.40e-06  
    9   -3317.7454366918      4.36e-06  
   10   -3317.7455428233      2.85e-06  
   11   -3317.7456039398      1.51e-06  
   12   -3317.7456252957      9.21e-07  
   13   -3317.7456320500      5.27e-07  
   14   -3317.7456340059      3.37e-07  
   15   -3317.7456344898      1.94e-07  
   16   -3317.7456348103      1.30e-07  
   17   -3317.7456349800      9.75e-08  
   18   -3317.7456351252      5.97e-08  
   19   -3317.7456351669      3.38e-08  
   20   -3317.7456351783      1.60e-08  
   21   -3317.7456351798      8.56e-09  Convergence criterion met
 ---------------------------------------
 SCF time:   CPU 52625.70s  wall 7230.00s 
<S^2> =          2.094793850

************** Final PCM Free Energy Summary **************
 G_electrostatic  =      -0.05417181 hartree =     -33.99332507 kcal/mol
 G_cavitation     =       0.00000000 hartree =       0.00000000 kcal/mol
 G_dispersion     =       0.00000000 hartree =       0.00000000 kcal/mol
 G_repulsion      =       0.00000000 hartree =       0.00000000 kcal/mol
 --------------------------------------------------
 Non-electrostatic Free Energy =       0.00000000 hartree =       0.00000000 kcal/mol
 Total                         =      -0.05417181 hartree =     -33.99332507 kcal/mol
 --------------------------------------------------
 SCF Energy (H0 + V/2)                       =   -3317.74563518 
 Solute Internal Energy (H0)                 =   -3317.69146337 
 Total Free Energy (H0 + V/2 + non-elec)     =   -3317.74563518 hartree
                                             = -2081916.80844423 kcal/mol
***********************************************************

 SCF   energy in the final basis set =    -3317.7456351798
 Total energy in the final basis set =    -3317.7456351798
 
 --------------------------------------------------------------
 
                    Orbital Energies (a.u.)
 --------------------------------------------------------------
 
 Alpha MOs
 -- Occupied --
-14.788 -14.668 -10.547 -10.546 -10.510 -10.510 -10.510 -10.509
-10.492 -10.491 -10.491 -10.490 -10.486 -10.486 -10.483 -10.482
-10.481 -10.481 -10.470 -10.462 -10.461 -10.461 -10.461 -10.460
-10.455 -10.454 -10.452 -10.451 -10.449 -10.448 -10.447 -10.447
-10.447 -10.447 -10.447 -10.446 -10.446 -10.446 -10.446 -10.446
-10.445 -10.445 -10.445 -10.444 -10.444 -10.444 -10.438 -10.438
-10.438 -10.437 -10.437 -10.437 -10.436 -10.436 -10.435 -10.435
-10.434 -10.433 -10.433 -10.432 -10.432 -10.432 -10.432 -10.430
-10.430 -10.430 -10.430 -10.430 -10.429 -10.428 -10.428 -10.420
-10.420 -10.419 -10.418 -10.418 -10.418 -10.411 -10.408 -10.408
-10.404 -10.404 -10.403 -10.403  -6.897  -6.897  -1.174  -1.080
 -1.014  -1.010  -0.999  -0.999  -0.974  -0.961  -0.954  -0.953
 -0.941  -0.939  -0.938  -0.919  -0.919  -0.904  -0.903  -0.897
 -0.892  -0.885  -0.884  -0.878  -0.876  -0.861  -0.855  -0.844
 -0.843  -0.835  -0.835  -0.833  -0.832  -0.829  -0.816  -0.813
 -0.810  -0.809  -0.800  -0.798  -0.796  -0.794  -0.791  -0.782
 -0.778  -0.766  -0.764  -0.763  -0.728  -0.724  -0.717  -0.715
 -0.715  -0.711  -0.711  -0.704  -0.702  -0.702  -0.700  -0.694
 -0.678  -0.674  -0.672  -0.666  -0.663  -0.662  -0.660  -0.656
 -0.646  -0.642  -0.630  -0.625  -0.625  -0.619  -0.615  -0.609
 -0.608  -0.586  -0.585  -0.583  -0.578  -0.577  -0.575  -0.574
 -0.572  -0.568  -0.566  -0.565  -0.558  -0.557  -0.544  -0.541
 -0.540  -0.539  -0.536  -0.529  -0.528  -0.525  -0.523  -0.522
 -0.517  -0.515  -0.514  -0.510  -0.509  -0.504  -0.504  -0.499
 -0.494  -0.492  -0.490  -0.489  -0.488  -0.488  -0.484  -0.483
 -0.479  -0.479  -0.475  -0.475  -0.473  -0.472  -0.472  -0.472
 -0.471  -0.471  -0.470  -0.468  -0.467  -0.465  -0.463  -0.462
 -0.461  -0.461  -0.459  -0.456  -0.449  -0.448  -0.447  -0.446
 -0.440  -0.439  -0.439  -0.437  -0.433  -0.432  -0.431  -0.425
 -0.422  -0.421  -0.421  -0.420  -0.418  -0.416  -0.416  -0.412
 -0.412  -0.410  -0.409  -0.407  -0.405  -0.401  -0.399  -0.398
 -0.390  -0.390  -0.389  -0.387  -0.384  -0.384  -0.382  -0.380
 -0.379  -0.378  -0.377  -0.373  -0.373  -0.370  -0.365  -0.365
 -0.359  -0.357  -0.353  -0.349  -0.347  -0.340  -0.337  -0.331
 -0.329  -0.325  -0.316  -0.305  -0.299  -0.292  -0.291  -0.291
 -0.287  -0.286  -0.284  -0.283  -0.278  -0.269  -0.265  -0.263
 -0.251  -0.241  -0.237  -0.215  -0.145
 -- Virtual --
 -0.054  -0.039  -0.030  -0.025  -0.021  -0.019   0.002   0.008
  0.008   0.013   0.016   0.017   0.018   0.026   0.028   0.034
  0.045   0.055   0.066   0.083   0.098   0.103   0.105   0.105
  0.122   0.127   0.128   0.135   0.138   0.139   0.144   0.149
  0.151   0.152   0.154   0.158   0.159   0.161   0.163   0.166
  0.172   0.173   0.174   0.175   0.178   0.178   0.179   0.179
  0.184   0.186   0.187   0.192   0.195   0.196   0.197   0.198
  0.200   0.202   0.202   0.203   0.204   0.207   0.208   0.209
  0.210   0.211   0.213   0.214   0.215   0.215   0.216   0.219
  0.220   0.223   0.225   0.226   0.227   0.229   0.229   0.230
  0.230   0.231   0.233   0.233   0.235   0.238   0.239   0.239
  0.241   0.242   0.243   0.244   0.246   0.247   0.248   0.250
  0.251   0.254   0.255   0.258   0.259   0.259   0.262   0.265
  0.265   0.266   0.268   0.272   0.273   0.273   0.276   0.277
  0.278   0.278   0.282   0.283   0.283   0.285   0.288   0.289
  0.292   0.294   0.295   0.297   0.300   0.300   0.302   0.303
  0.307   0.308   0.309   0.311   0.315   0.317   0.318   0.320
  0.323   0.323   0.325   0.327   0.330   0.337   0.340   0.342
  0.345   0.347   0.349   0.350   0.355   0.356   0.361   0.363
  0.365   0.371   0.372   0.379   0.382   0.383   0.384   0.387
  0.395   0.397   0.399   0.403   0.405   0.409   0.411   0.416
  0.425   0.429   0.430   0.431   0.440   0.446   0.447   0.450
  0.451   0.453   0.455   0.458   0.461   0.462   0.468   0.472
  0.474   0.475   0.480   0.483   0.485   0.487   0.487   0.489
  0.495   0.497   0.498   0.504   0.506   0.506   0.507   0.508
  0.509   0.510   0.511   0.516   0.516   0.518   0.521   0.522
  0.524   0.526   0.528   0.532   0.533   0.537   0.537   0.539
  0.540   0.542   0.546   0.547   0.548   0.551   0.553   0.554
  0.554   0.555   0.555   0.560   0.560   0.561   0.564   0.565
  0.566   0.567   0.570   0.573   0.573   0.573   0.575   0.578
  0.578   0.581   0.582   0.584   0.585   0.587   0.590   0.591
  0.592   0.593   0.595   0.597   0.598   0.599   0.599   0.602
  0.602   0.604   0.604   0.605   0.608   0.608   0.610   0.614
  0.614   0.616   0.616   0.617   0.618   0.620   0.621   0.622
  0.624   0.627   0.628   0.631   0.631   0.633   0.633   0.634
  0.636   0.638   0.639   0.640   0.641   0.641   0.641   0.644
  0.646   0.652   0.653   0.654   0.655   0.656   0.658   0.660
  0.663   0.665   0.666   0.669   0.670   0.672   0.673   0.677
  0.678   0.681   0.682   0.683   0.684   0.688   0.691   0.695
  0.698   0.702   0.703   0.704   0.710   0.713   0.714   0.718
  0.720   0.720   0.721   0.722   0.725   0.727   0.730   0.734
  0.737   0.743   0.744   0.745   0.747   0.750   0.752   0.754
  0.757   0.760   0.763   0.763   0.768   0.769   0.771   0.772
  0.773   0.775   0.777   0.779   0.783   0.786   0.786   0.789
  0.792   0.792   0.794   0.795   0.800   0.802   0.807   0.808
  0.810   0.811   0.814   0.817   0.819   0.821   0.825   0.828
  0.831   0.833   0.835   0.838   0.841   0.845   0.849   0.852
  0.859   0.860   0.867   0.869   0.872   0.872   0.876   0.881
  0.882   0.891   0.893   0.894   0.897   0.904   0.908   0.912
  0.913   0.915   0.920   0.921   0.926   0.928   0.931   0.932
  0.932   0.934   0.935   0.946   0.947   0.951   0.957   0.959
  0.960   0.962   0.965   0.966   0.968   0.970   0.972   0.973
  0.977   0.979   0.980   0.982   0.985   0.989   0.993   0.994
  0.996   0.998   1.000   1.001   1.002   1.003   1.005   1.006
  1.008   1.010   1.012   1.014   1.016   1.018   1.019   1.021
  1.022   1.025   1.028   1.031   1.033   1.034   1.039   1.039
  1.040   1.043   1.045   1.045   1.048   1.050   1.052   1.054
  1.056   1.057   1.057   1.058   1.060   1.061   1.061   1.063
  1.065   1.067   1.069   1.074   1.076   1.079   1.082   1.083
  1.083   1.084   1.086   1.088   1.091   1.093   1.093   1.097
  1.100   1.102   1.104   1.104   1.106   1.107   1.112   1.115
  1.119   1.121   1.121   1.122   1.133   1.134   1.137   1.139
  1.140   1.142   1.144   1.145   1.147   1.152   1.153   1.154
  1.158   1.161   1.162   1.165   1.169   1.173   1.175   1.177
  1.180   1.183   1.185   1.187   1.190   1.191   1.193   1.205
  1.207   1.216   1.218   1.223   1.227   1.229   1.232   1.234
  1.235   1.241   1.249   1.249   1.255   1.259   1.265   1.266
  1.268   1.269   1.272   1.277   1.282   1.286   1.289   1.293
  1.295   1.296   1.299   1.300   1.303   1.304   1.308   1.312
  1.313   1.314   1.317   1.319   1.324   1.326   1.328   1.331
  1.334   1.340   1.343   1.344   1.347   1.351   1.354   1.355
  1.361   1.362   1.365   1.368   1.374   1.377   1.381   1.382
  1.385   1.387   1.392   1.394   1.396   1.399   1.401   1.408
  1.410   1.412   1.420   1.422   1.424   1.426   1.429   1.432
  1.441   1.446   1.451   1.452   1.454   1.455   1.456   1.460
  1.460   1.461   1.467   1.469   1.473   1.483   1.485   1.494
  1.496   1.498   1.503   1.505   1.506   1.508   1.512   1.517
  1.525   1.525   1.526   1.528   1.531   1.531   1.532   1.537
  1.538   1.542   1.544   1.546   1.546   1.548   1.552   1.555
  1.558   1.560   1.562   1.564   1.568   1.571   1.574   1.575
  1.580   1.581   1.587   1.587   1.590   1.591   1.597   1.603
  1.605   1.608   1.612   1.618   1.624   1.628   1.630   1.630
  1.638   1.640   1.647   1.658   1.659   1.669   1.670   1.672
  1.674   1.681   1.687   1.691   1.697   1.710   1.715   1.716
  1.718   1.723   1.735   1.744   1.747   1.756   1.759   1.763
  1.766   1.769   1.771   1.776   1.781   1.789   1.791   1.794
  1.797   1.804   1.808   1.809   1.812   1.817   1.824   1.825
  1.826   1.828   1.830   1.835   1.835   1.837   1.839   1.840
  1.840   1.852   1.856   1.864   1.865   1.867   1.877   1.883
  1.885   1.887   1.890   1.892   1.893   1.901   1.906   1.908
  1.919   1.921   1.925   1.925   1.929   1.933   1.935   1.936
  1.937   1.941   1.946   1.949   1.950   1.957   1.957   1.958
  1.961   1.966   1.972   1.975   1.978   1.988   1.992   1.995
  1.997   1.998   1.998   2.004   2.005   2.008   2.009   2.011
  2.011   2.018   2.028   2.029   2.045   2.048   2.050   2.054
  2.057   2.060   2.062   2.064   2.069   2.073   2.077   2.079
  2.082   2.085   2.089   2.095   2.095   2.098   2.099   2.104
  2.104   2.108   2.110   2.118   2.124   2.125   2.126   2.130
  2.138   2.140   2.144   2.145   2.146   2.150   2.154   2.156
  2.159   2.160   2.164   2.168   2.173   2.175   2.177   2.179
  2.184   2.188   2.193   2.196   2.201   2.208   2.216   2.218
  2.218   2.219   2.220   2.224   2.226   2.227   2.230   2.233
  2.238   2.245   2.247   2.249   2.255   2.260   2.261   2.265
  2.266   2.272   2.279   2.281   2.282   2.283   2.288   2.289
  2.291   2.294   2.295   2.301   2.302   2.303   2.306   2.307
  2.311   2.314   2.315   2.322   2.327   2.328   2.332   2.332
  2.336   2.336   2.337   2.340   2.341   2.346   2.351   2.353
  2.353   2.355   2.362   2.364   2.364   2.365   2.368   2.371
  2.373   2.373   2.374   2.376   2.378   2.380   2.382   2.392
  2.394   2.396   2.398   2.404   2.404   2.406   2.411   2.411
  2.422   2.423   2.424   2.425   2.427   2.431   2.434   2.438
  2.439   2.446   2.449   2.453   2.454   2.462   2.465   2.471
  2.480   2.486   2.489   2.493   2.498   2.502   2.504   2.506
  2.511   2.517   2.518   2.520   2.524   2.531   2.538   2.541
  2.548   2.557   2.561   2.563   2.576   2.577   2.589   2.589
  2.599   2.602   2.617   2.621   2.630   2.634   2.635   2.650
  2.653   2.658   2.659   2.660   2.661   2.678   2.681   2.683
  2.690   2.692   2.699   2.703   2.703   2.705   2.709   2.713
  2.725   2.726   2.728   2.733   2.733   2.737   2.743   2.747
  2.748   2.752   2.757   2.759   2.765   2.767   2.768   2.769
  2.776   2.777   2.781   2.794   2.795   2.798   2.800   2.802
  2.804   2.805   2.805   2.806   2.811   2.815   2.818   2.821
  2.825   2.825   2.828   2.829   2.831   2.839   2.841   2.846
  2.852   2.865   2.867   2.872   2.882   2.886   2.887   2.890
  2.896   2.897   2.910   2.915   2.923   2.926   2.936   2.941
  2.949   2.960   2.965   2.966   2.974   2.977   2.978   2.992
  2.997   3.005   3.013   3.016   3.024   3.025   3.041   3.042
  3.058   3.077   3.088   3.091   3.096   3.101   3.131   3.152
  3.156   3.209   3.213   3.252   3.264   3.275   3.278   3.370
  3.419   3.425   3.463   3.467   3.486   3.507   3.508   3.516
  3.518   3.526   3.549   3.579   3.589   3.684   3.696   9.639
  9.797  13.160  13.194  13.203  13.255  13.294  13.344  13.474
 13.518  13.526  13.540  13.558  13.570  13.606  13.655  13.665
 13.672  13.691  13.694  13.716  13.731  13.746  13.749  13.777
 13.783  13.791  13.809  13.818  13.820  13.841  13.864  13.865
 13.877  13.879  13.889  13.909  13.942  13.944  14.026  14.031
 14.042  14.046  14.053  14.055  14.056  14.063  14.064  14.122
 14.140  14.165  14.171  14.178  14.179  14.181  14.191  14.201
 14.204  14.224  14.230  14.233  14.247  14.267  14.268  14.296
 14.302  14.304  14.319  14.334  14.338  14.364  14.365  14.527
 14.531  14.535  14.551  14.583  14.594  14.595  14.596  14.600
 14.605  14.614  14.634  19.542  19.655
 
 Beta MOs
 -- Occupied --
-14.777 -14.668 -10.548 -10.548 -10.510 -10.509 -10.507 -10.507
-10.489 -10.489 -10.487 -10.487 -10.486 -10.486 -10.485 -10.484
-10.483 -10.483 -10.470 -10.462 -10.461 -10.461 -10.460 -10.460
-10.454 -10.454 -10.452 -10.452 -10.448 -10.448 -10.448 -10.447
-10.447 -10.447 -10.447 -10.446 -10.446 -10.446 -10.445 -10.445
-10.445 -10.444 -10.444 -10.444 -10.444 -10.444 -10.438 -10.438
-10.438 -10.437 -10.437 -10.437 -10.435 -10.435 -10.435 -10.434
-10.433 -10.433 -10.433 -10.433 -10.432 -10.432 -10.432 -10.431
-10.430 -10.430 -10.430 -10.430 -10.430 -10.428 -10.428 -10.420
-10.419 -10.419 -10.418 -10.418 -10.418 -10.411 -10.408 -10.408
-10.403 -10.403 -10.403 -10.402  -6.895  -6.894  -1.155  -1.080
 -1.008  -1.006  -0.998  -0.998  -0.973  -0.961  -0.953  -0.950
 -0.940  -0.938  -0.937  -0.918  -0.918  -0.903  -0.901  -0.896
 -0.890  -0.883  -0.882  -0.878  -0.876  -0.858  -0.855  -0.844
 -0.838  -0.834  -0.834  -0.832  -0.831  -0.829  -0.813  -0.812
 -0.810  -0.809  -0.797  -0.796  -0.794  -0.793  -0.791  -0.780
 -0.778  -0.763  -0.763  -0.761  -0.726  -0.721  -0.716  -0.714
 -0.712  -0.710  -0.710  -0.703  -0.702  -0.701  -0.699  -0.693
 -0.677  -0.672  -0.670  -0.664  -0.663  -0.661  -0.657  -0.653
 -0.644  -0.638  -0.630  -0.625  -0.625  -0.619  -0.613  -0.609
 -0.608  -0.581  -0.581  -0.577  -0.576  -0.575  -0.571  -0.571
 -0.570  -0.567  -0.566  -0.564  -0.557  -0.556  -0.543  -0.539
 -0.539  -0.535  -0.529  -0.529  -0.527  -0.524  -0.523  -0.521
 -0.517  -0.514  -0.513  -0.510  -0.508  -0.503  -0.497  -0.496
 -0.492  -0.490  -0.489  -0.488  -0.487  -0.483  -0.482  -0.481
 -0.479  -0.479  -0.475  -0.474  -0.473  -0.472  -0.472  -0.471
 -0.470  -0.469  -0.468  -0.467  -0.467  -0.464  -0.463  -0.461
 -0.460  -0.460  -0.459  -0.449  -0.448  -0.447  -0.446  -0.446
 -0.440  -0.438  -0.437  -0.434  -0.432  -0.431  -0.426  -0.425
 -0.421  -0.421  -0.420  -0.417  -0.416  -0.414  -0.411  -0.410
 -0.410  -0.407  -0.406  -0.405  -0.403  -0.400  -0.398  -0.397
 -0.390  -0.390  -0.388  -0.385  -0.382  -0.381  -0.381  -0.379
 -0.379  -0.377  -0.377  -0.372  -0.372  -0.370  -0.365  -0.365
 -0.358  -0.354  -0.351  -0.344  -0.338  -0.333  -0.330  -0.323
 -0.323  -0.322  -0.315  -0.299  -0.295  -0.292  -0.290  -0.287
 -0.283  -0.282  -0.282  -0.278  -0.265  -0.263  -0.256  -0.243
 -0.238  -0.229  -0.215
 -- Virtual --
 -0.164  -0.063  -0.041  -0.027  -0.020  -0.013  -0.012  -0.008
  0.002   0.010   0.015   0.016   0.018   0.020   0.026   0.029
  0.031   0.034   0.045   0.066   0.067   0.090   0.099   0.106
  0.110   0.116   0.122   0.129   0.130   0.139   0.140   0.141
  0.145   0.153   0.154   0.155   0.159   0.159   0.161   0.162
  0.163   0.168   0.172   0.173   0.174   0.175   0.178   0.179
  0.180   0.182   0.186   0.188   0.190   0.193   0.195   0.197
  0.198   0.200   0.200   0.202   0.203   0.203   0.205   0.208
  0.209   0.210   0.211   0.212   0.213   0.214   0.215   0.216
  0.217   0.220   0.220   0.224   0.226   0.227   0.228   0.230
  0.230   0.230   0.231   0.232   0.233   0.233   0.236   0.239
  0.240   0.242   0.243   0.243   0.244   0.245   0.246   0.248
  0.249   0.251   0.252   0.256   0.256   0.259   0.260   0.263
  0.264   0.266   0.266   0.267   0.269   0.273   0.273   0.276
  0.277   0.278   0.279   0.280   0.283   0.284   0.285   0.286
  0.289   0.290   0.293   0.295   0.297   0.297   0.300   0.301
  0.303   0.303   0.308   0.309   0.312   0.313   0.316   0.317
  0.318   0.321   0.323   0.323   0.325   0.329   0.333   0.337
  0.341   0.345   0.347   0.348   0.350   0.351   0.357   0.357
  0.363   0.364   0.366   0.371   0.373   0.381   0.383   0.385
  0.388   0.388   0.396   0.401   0.402   0.404   0.407   0.411
  0.413   0.418   0.426   0.430   0.432   0.434   0.441   0.448
  0.449   0.450   0.451   0.454   0.457   0.460   0.464   0.464
  0.470   0.473   0.475   0.477   0.481   0.485   0.486   0.488
  0.488   0.491   0.496   0.498   0.500   0.505   0.507   0.508
  0.509   0.509   0.511   0.511   0.513   0.517   0.519   0.520
  0.523   0.525   0.527   0.528   0.529   0.534   0.535   0.538
  0.539   0.540   0.541   0.543   0.548   0.548   0.550   0.552
  0.554   0.555   0.555   0.556   0.558   0.560   0.562   0.564
  0.566   0.566   0.568   0.570   0.573   0.573   0.574   0.575
  0.576   0.578   0.579   0.579   0.583   0.585   0.588   0.590
  0.591   0.592   0.593   0.596   0.596   0.599   0.599   0.600
  0.601   0.602   0.604   0.605   0.606   0.607   0.609   0.611
  0.612   0.615   0.615   0.617   0.617   0.618   0.618   0.620
  0.623   0.624   0.626   0.629   0.630   0.631   0.632   0.634
  0.634   0.635   0.637   0.638   0.639   0.641   0.641   0.641
  0.643   0.646   0.647   0.653   0.654   0.655   0.657   0.657
  0.660   0.662   0.664   0.666   0.667   0.671   0.671   0.673
  0.674   0.677   0.678   0.682   0.683   0.684   0.686   0.690
  0.691   0.696   0.700   0.702   0.704   0.705   0.711   0.714
  0.714   0.718   0.720   0.721   0.722   0.725   0.729   0.729
  0.731   0.735   0.738   0.744   0.746   0.746   0.748   0.752
  0.753   0.755   0.758   0.761   0.764   0.764   0.768   0.769
  0.772   0.773   0.774   0.777   0.778   0.780   0.783   0.786
  0.787   0.789   0.792   0.793   0.795   0.797   0.801   0.802
  0.807   0.809   0.812   0.813   0.816   0.817   0.819   0.823
  0.826   0.829   0.832   0.834   0.836   0.838   0.844   0.848
  0.850   0.852   0.860   0.861   0.868   0.870   0.873   0.873
  0.876   0.881   0.883   0.892   0.894   0.895   0.898   0.905
  0.909   0.912   0.913   0.916   0.922   0.922   0.926   0.929
  0.932   0.933   0.933   0.936   0.936   0.948   0.948   0.952
  0.958   0.960   0.961   0.962   0.966   0.967   0.968   0.971
  0.973   0.974   0.977   0.980   0.981   0.983   0.985   0.990
  0.994   0.995   0.997   0.999   1.001   1.001   1.003   1.003
  1.007   1.007   1.009   1.012   1.013   1.015   1.016   1.019
  1.020   1.021   1.023   1.026   1.029   1.031   1.034   1.035
  1.039   1.040   1.041   1.045   1.045   1.046   1.051   1.052
  1.053   1.054   1.056   1.057   1.057   1.058   1.060   1.061
  1.062   1.063   1.065   1.068   1.070   1.075   1.076   1.080
  1.082   1.083   1.083   1.085   1.086   1.088   1.092   1.093
  1.093   1.097   1.100   1.102   1.104   1.105   1.106   1.108
  1.113   1.117   1.119   1.121   1.123   1.134   1.134   1.136
  1.137   1.139   1.140   1.143   1.145   1.145   1.147   1.153
  1.154   1.156   1.158   1.162   1.163   1.166   1.170   1.173
  1.176   1.177   1.181   1.184   1.185   1.188   1.190   1.192
  1.194   1.207   1.207   1.217   1.219   1.225   1.228   1.229
  1.233   1.234   1.236   1.242   1.249   1.256   1.256   1.260
  1.267   1.268   1.270   1.272   1.274   1.278   1.283   1.287
  1.290   1.294   1.296   1.297   1.300   1.300   1.304   1.305
  1.309   1.313   1.314   1.315   1.317   1.320   1.324   1.328
  1.329   1.333   1.335   1.340   1.343   1.345   1.348   1.353
  1.355   1.356   1.362   1.366   1.367   1.369   1.374   1.378
  1.382   1.383   1.386   1.388   1.394   1.396   1.398   1.401
  1.404   1.410   1.410   1.413   1.421   1.423   1.424   1.428
  1.432   1.433   1.441   1.446   1.453   1.455   1.455   1.456
  1.457   1.461   1.462   1.464   1.468   1.470   1.473   1.485
  1.487   1.497   1.499   1.502   1.504   1.506   1.508   1.509
  1.512   1.519   1.526   1.526   1.526   1.532   1.532   1.532
  1.533   1.539   1.540   1.542   1.545   1.547   1.547   1.549
  1.552   1.556   1.559   1.561   1.563   1.565   1.568   1.571
  1.574   1.576   1.580   1.582   1.588   1.590   1.592   1.592
  1.598   1.604   1.606   1.608   1.613   1.619   1.626   1.629
  1.631   1.631   1.640   1.641   1.648   1.660   1.661   1.670
  1.672   1.674   1.675   1.685   1.691   1.693   1.701   1.711
  1.716   1.718   1.722   1.730   1.736   1.747   1.750   1.757
  1.759   1.765   1.766   1.770   1.771   1.776   1.782   1.790
  1.791   1.795   1.797   1.805   1.808   1.810   1.813   1.818
  1.825   1.827   1.827   1.828   1.832   1.836   1.837   1.838
  1.840   1.840   1.841   1.855   1.859   1.864   1.868   1.869
  1.879   1.885   1.886   1.887   1.891   1.895   1.902   1.905
  1.908   1.909   1.920   1.922   1.925   1.925   1.929   1.935
  1.937   1.937   1.937   1.941   1.947   1.951   1.952   1.957
  1.958   1.962   1.967   1.970   1.973   1.975   1.981   1.990
  1.993   1.995   1.997   1.998   1.999   2.005   2.006   2.009
  2.010   2.012   2.013   2.018   2.029   2.031   2.046   2.048
  2.050   2.057   2.059   2.061   2.063   2.067   2.070   2.073
  2.078   2.080   2.084   2.085   2.090   2.095   2.098   2.099
  2.100   2.104   2.106   2.108   2.110   2.118   2.125   2.126
  2.127   2.132   2.138   2.140   2.145   2.145   2.147   2.151
  2.154   2.156   2.162   2.163   2.169   2.173   2.174   2.177
  2.179   2.180   2.185   2.188   2.193   2.198   2.202   2.208
  2.217   2.218   2.219   2.220   2.222   2.224   2.227   2.228
  2.233   2.235   2.242   2.246   2.248   2.253   2.257   2.261
  2.262   2.266   2.266   2.274   2.280   2.281   2.283   2.285
  2.289   2.290   2.293   2.295   2.299   2.303   2.305   2.306
  2.307   2.308   2.312   2.316   2.318   2.323   2.328   2.329
  2.332   2.332   2.337   2.337   2.338   2.342   2.343   2.346
  2.351   2.353   2.355   2.357   2.362   2.365   2.366   2.366
  2.369   2.372   2.374   2.375   2.376   2.377   2.378   2.381
  2.385   2.392   2.394   2.400   2.402   2.404   2.405   2.406
  2.411   2.413   2.423   2.424   2.425   2.426   2.428   2.432
  2.435   2.439   2.441   2.447   2.450   2.455   2.457   2.464
  2.466   2.474   2.482   2.486   2.492   2.493   2.503   2.504
  2.507   2.509   2.512   2.518   2.519   2.521   2.525   2.531
  2.539   2.541   2.549   2.559   2.563   2.565   2.577   2.579
  2.590   2.591   2.602   2.604   2.618   2.621   2.632   2.635
  2.637   2.652   2.657   2.659   2.660   2.660   2.664   2.681
  2.682   2.685   2.690   2.693   2.699   2.703   2.704   2.706
  2.709   2.713   2.726   2.728   2.729   2.733   2.735   2.737
  2.744   2.748   2.748   2.752   2.759   2.760   2.766   2.768
  2.768   2.769   2.777   2.779   2.782   2.794   2.797   2.800
  2.801   2.803   2.805   2.805   2.806   2.807   2.811   2.816
  2.819   2.821   2.825   2.826   2.828   2.830   2.832   2.840
  2.841   2.849   2.853   2.866   2.869   2.873   2.882   2.886
  2.887   2.891   2.897   2.899   2.912   2.917   2.924   2.927
  2.938   2.942   2.950   2.960   2.966   2.968   2.974   2.977
  2.978   2.995   2.998   3.008   3.013   3.017   3.024   3.025
  3.042   3.043   3.059   3.078   3.091   3.092   3.096   3.102
  3.132   3.153   3.158   3.209   3.215   3.252   3.265   3.275
  3.278   3.372   3.419   3.425   3.463   3.467   3.487   3.507
  3.508   3.516   3.519   3.526   3.550   3.579   3.589   3.684
  3.696   9.643   9.801  13.160  13.194  13.204  13.255  13.296
 13.344  13.474  13.518  13.526  13.540  13.558  13.570  13.607
 13.655  13.666  13.672  13.691  13.694  13.716  13.734  13.746
 13.749  13.777  13.783  13.791  13.809  13.818  13.820  13.842
 13.865  13.865  13.877  13.879  13.889  13.909  13.942  13.945
 14.027  14.031  14.042  14.046  14.054  14.055  14.056  14.063
 14.065  14.122  14.141  14.166  14.171  14.178  14.179  14.181
 14.191  14.201  14.204  14.223  14.230  14.233  14.247  14.267
 14.268  14.296  14.302  14.304  14.319  14.334  14.338  14.364
 14.365  14.527  14.531  14.536  14.552  14.584  14.594  14.595
 14.597  14.600  14.606  14.614  14.634  19.557  19.655
 --------------------------------------------------------------
 
          Ground-State Mulliken Net Atomic Charges

     Atom                 Charge (a.u.)    Spin (a.u.)
  --------------------------------------------------------
      1 N                    -0.717473      -0.000157
      2 C                     0.308764       0.000049
      3 C                     0.130098      -0.000002
      4 C                    -0.197747       0.000000
      5 C                    -0.311190      -0.000001
      6 H                     0.228291       0.000001
      7 C                    -0.254820      -0.000001
      8 H                     0.229722       0.000000
      9 C                    -0.253922      -0.000004
     10 H                     0.235348       0.000001
     11 C                    -0.324883       0.000018
     12 H                     0.267037      -0.000012
     13 C                     0.308898       0.000049
     14 C                    -0.324053       0.000020
     15 H                     0.267853      -0.000013
     16 C                    -0.254477      -0.000007
     17 H                     0.235973       0.000001
     18 C                    -0.254739       0.000002
     19 H                     0.229698       0.000000
     20 C                    -0.311437      -0.000004
     21 H                     0.228093       0.000001
     22 C                     0.129580       0.000001
     23 C                     0.187213       0.002862
     24 C                    -0.310176      -0.002293
     25 H                     0.232292       0.000446
     26 C                     0.042663       0.005338
     27 C                    -0.313103      -0.002295
     28 H                     0.231579       0.000425
     29 C                     0.039658       0.005467
     30 C                    -0.180066      -0.028373
     31 C                    -0.542850       0.002611
     32 H                     0.229832       0.000397
     33 H                     0.258469      -0.001955
     34 C                    -0.659361       0.000297
     35 C                    -0.541883       0.002555
     36 H                     0.229389       0.000396
     37 H                     0.257757      -0.001785
     38 C                    -0.658951       0.000117
     39 H                     0.247010      -0.000435
     40 H                     0.219783      -0.000017
     41 H                     0.214498      -0.000086
     42 B                     0.529406       0.293064
     43 C                    -0.141234       0.051460
     44 C                    -0.410086      -0.050443
     45 H                     0.225255       0.001802
     46 C                     0.081043       0.081019
     47 C                     0.062830       0.053927
     48 C                    -0.405771      -0.029510
     49 H                     0.207134       0.000627
     50 C                    -0.131297       0.024218
     51 C                     0.181046      -0.054679
     52 C                    -0.410062       0.084215
     53 H                     0.234577      -0.004941
     54 C                    -0.084517       0.024163
     55 C                     0.231165      -0.039593
     56 C                     0.182923      -0.048498
     57 C                    -0.404724       0.076835
     58 H                     0.219950      -0.004566
     59 C                    -0.222957      -0.052901
     60 H                     0.240253       0.002563
     61 C                    -0.363539       0.077588
     62 H                     0.235229      -0.004575
     63 C                    -0.360187       0.072153
     64 H                     0.235042      -0.004238
     65 C                    -0.224865      -0.049594
     66 H                     0.235037       0.002432
     67 C                    -0.139723       0.050661
     68 C                    -0.412652      -0.049583
     69 H                     0.223197       0.001767
     70 C                     0.082840       0.079990
     71 C                     0.061459       0.053726
     72 C                    -0.405596      -0.029007
     73 H                     0.207467       0.000605
     74 C                    -0.130145       0.023544
     75 C                     0.179968      -0.054255
     76 C                    -0.409978       0.083426
     77 H                     0.235142      -0.004890
     78 C                    -0.083373       0.023928
     79 C                     0.232166      -0.039239
     80 C                     0.182141      -0.048362
     81 C                    -0.403913       0.076354
     82 H                     0.222954      -0.004522
     83 C                    -0.223203      -0.052491
     84 H                     0.240319       0.002544
     85 C                    -0.364194       0.076931
     86 H                     0.235090      -0.004536
     87 C                    -0.360239       0.071753
     88 H                     0.234781      -0.004217
     89 C                    -0.225745      -0.049304
     90 H                     0.236004       0.002416
     91 B                     0.504643       0.324103
     92 C                    -0.165940      -0.023746
     93 C                     0.030730       0.002195
     94 C                    -0.288580       0.014207
     95 H                     0.249302      -0.000362
     96 C                     0.121648      -0.029256
     97 C                    -0.286173       0.014173
     98 H                     0.249640      -0.000333
     99 C                     0.034621       0.002002
    100 N                    -0.603549       0.437450
    101 C                     0.298762      -0.100004
    102 C                     0.190003       0.233431
    103 C                    -0.234744      -0.039025
    104 C                    -0.306457      -0.151931
    105 H                     0.264561       0.007128
    106 C                    -0.205390       0.254832
    107 H                     0.275382      -0.013605
    108 C                    -0.245816      -0.131262
    109 H                     0.275228       0.005939
    110 C                    -0.265641       0.183476
    111 H                     0.313191      -0.009943
    112 C                     0.303274      -0.099975
    113 C                     0.189217       0.233506
    114 C                    -0.306222      -0.152045
    115 H                     0.264915       0.007135
    116 C                    -0.205736       0.255408
    117 H                     0.275538      -0.013645
    118 C                    -0.245632      -0.131740
    119 H                     0.276369       0.005953
    120 C                    -0.269946       0.183885
    121 H                     0.311868      -0.009949
    122 C                    -0.542632       0.004437
    123 H                     0.232165       0.000436
    124 H                     0.273626      -0.002001
    125 C                    -0.658672      -0.000336
    126 C                    -0.545679       0.004758
    127 H                     0.232408       0.000457
    128 H                     0.276494      -0.002423
    129 C                    -0.658485      -0.000288
    130 H                     0.252829      -0.000352
    131 H                     0.208439      -0.000094
    132 H                     0.229662       0.000030
    133 H                     0.250373      -0.000283
    134 H                     0.231165       0.000034
    135 H                     0.207926      -0.000087
    136 H                     0.218055      -0.000016
    137 H                     0.248773      -0.000571
    138 H                     0.214995      -0.000097
    139 C                    -0.613147       0.023091
    140 C                    -0.614323       0.022614
    141 C                    -0.618061      -0.000000
    142 C                    -0.613882      -0.000000
    143 H                     0.234264       0.000000
    144 H                     0.224018       0.000000
    145 H                     0.224285       0.000000
    146 H                     0.234981       0.000000
    147 H                     0.224465       0.000000
    148 H                     0.224958       0.000000
    149 H                     0.249597      -0.000863
    150 H                     0.246986       0.000273
    151 H                     0.246905       0.000272
    152 H                     0.249507      -0.000818
    153 H                     0.247041       0.000226
    154 H                     0.247113       0.000218
  --------------------------------------------------------
  Sum of atomic charges =    -0.000000
  Sum of spin   charges =     2.000000

 -----------------------------------------------------------------
                    Cartesian Multipole Moments
 -----------------------------------------------------------------
    Charge (ESU x 10^10)
                -0.0000
    Dipole Moment (Debye)
         X     -21.9603      Y     -16.0704      Z     -24.5932
       Tot      36.6789
    Quadrupole Moments (Debye-Ang)
        XX    -196.3510     XY     248.4982     YY    -287.7100
        XZ     298.7523     YZ     283.8237     ZZ    -168.5810
    Octopole Moments (Debye-Ang^2)
       XXX    2561.5171    XXY    -406.8069    XYY    -384.4880
       YYY    4976.4808    XXZ   -1278.7975    XYZ   -2887.3355
       YYZ    -907.1213    XZZ   -1264.3326    YZZ    -900.8746
       ZZZ    2012.1340
    Hexadecapole Moments (Debye-Ang^3)
      XXXX  -67416.8866   XXXY   -6758.1168   XXYY  -10451.5625
      XYYY  -14805.7827   YYYY  -82851.6070   XXXZ   -2488.1675
      XXYZ   14510.7881   XYYZ   14302.1320   YYYZ  -18608.3222
      XXZZ   -1731.8917   XYZZ   18607.7187   YYZZ    -310.1217
      XZZZ   -2125.3289   YZZZ   -8487.8797   ZZZZ  -54439.2332
 -----------------------------------------------------------------
 Calculating analytic gradient of the SCF energy
 -1.468246343569332E-003 -1.468246760285221E-003
 -1.468246461237867E-003 -1.468246714273598E-003
 -1.468247380947049E-003 -1.468245756441352E-003
 -1.468211392292615E-003 -1.468281721975390E-003
 -1.468225826841458E-003 -1.468267349306912E-003
 -1.468224085993109E-003 -1.468269059207504E-003
 -1.468262650089281E-003 -1.468230454365639E-003
 -1.468266423826694E-003 -1.468226749513490E-003
 -1.468268665163080E-003 -1.468224485189717E-003
 -1.468254853612038E-003 -1.468238252559863E-003
 -1.468256631637592E-003 -1.468236493477299E-003
 -1.468252948106366E-003 -1.468240167197310E-003
 -1.468229600483576E-003 -1.468263498234564E-003
 -1.468235514597669E-003 -1.468257641869417E-003
 -1.468234920768713E-003 -1.468258213219049E-003
 -1.468265453376690E-003 -1.468227658292238E-003
 -1.468255735506180E-003 -1.468237392771438E-003
 -1.468253748692446E-003 -1.468239372557719E-003
 -1.468277664776244E-003 -1.468215435892037E-003
 -1.468253832832499E-003 -1.468239343756213E-003
 -1.468248898413314E-003 -1.468244252858242E-003
 -1.468244178590419E-003 -1.468248917027175E-003
 -1.468244707445042E-003 -1.468248439924160E-003
 -1.468244495342804E-003 -1.468248645005950E-003
 -1.468219353535752E-003 -1.468273751010458E-003
 -1.468228176244620E-003 -1.468264993268268E-003
 -1.468229507881870E-003 -1.468263633457116E-003
 -1.468254751890197E-003 -1.468238374240102E-003
 -1.468237092891837E-003 -1.468256031830543E-003
 -1.468241412537212E-003 -1.468251689908684E-003
 -1.468255875348997E-003 -1.468237216859881E-003
 -1.468242596087471E-003 -1.468250579210930E-003
 -1.468236070774326E-003 -1.468257077934770E-003
 -1.468235922370476E-003 -1.468257185293274E-003
 -1.468231154707832E-003 -1.468261994989671E-003
 -1.468232401806795E-003 -1.468260744918283E-003
 -1.468230369230870E-003 -1.468262742593870E-003
 -1.468216455069410E-003 -1.468276725470473E-003
 -1.468214737192688E-003 -1.468278407140174E-003
 -1.468234429912456E-003 -1.468258671392484E-003
 -1.468247124090550E-003 -1.468246052099498E-003
 -1.468253244971055E-003 -1.468239895467908E-003
 -1.468230557661171E-003 -1.468262563739130E-003
 -1.468234584518703E-003 -1.468258563972415E-003
 -1.468233064659969E-003 -1.468260071201977E-003
 -1.468232288221193E-003 -1.468260819646766E-003
 -1.468224858429417E-003 -1.468268308928802E-003
 -1.468218828580008E-003 -1.468274311106981E-003
 -1.468234226087324E-003 -1.468258866565458E-003
 -1.468252207703071E-003 -1.468240923086637E-003
 -1.468246721301884E-003 -1.468246406134443E-003
 -1.468241676600914E-003 -1.468251430597637E-003
 -1.468266133983534E-003 -1.468227043908989E-003
 -1.468272508358208E-003 -1.468220635721364E-003
 -1.468244316929843E-003 -1.468248811584261E-003
 -1.468245494506936E-003 -1.468247642248455E-003
 -1.468243455453647E-003 -1.468249666011421E-003
 -1.468238706073535E-003 -1.468254400753269E-003
 -1.468232350781385E-003 -1.468260804078818E-003
 -1.468229537635596E-003 -1.468263587056772E-003
 -1.468250026918469E-003 -1.468243091278767E-003
 -1.468260711295045E-003 -1.468232414044373E-003
 -1.468262743806086E-003 -1.468230372298315E-003
 -1.468268526475035E-003 -1.468224589231630E-003
 -1.468264320539772E-003 -1.468228851355911E-003
 -1.468266011015069E-003 -1.468227129334010E-003
 -1.468222307341398E-003 -1.468270800758140E-003
 -1.468222104114393E-003 -1.468271022829428E-003
 -1.468221312435209E-003 -1.468271795864604E-003
 -1.468277109427846E-003 -1.468216025810712E-003
 -1.468260491395350E-003 -1.468232593475845E-003
 -1.468274000989990E-003 -1.468219111508545E-003
 -1.468246624123956E-003 -1.468246494410112E-003
 -1.468232800615383E-003 -1.468260263776637E-003
 -1.468247209337785E-003 -1.468245900243186E-003
 -1.468219303067927E-003 -1.468273828121327E-003
 -1.468199106307119E-003 -1.468294000371841E-003
 -1.468232444661581E-003 -1.468260661360218E-003
 -1.468263164318675E-003 -1.468229965849259E-003
 -1.468282107718468E-003 -1.468211007375912E-003
 -1.468267857017145E-003 -1.468225232513187E-003
 -1.468236423324979E-003 -1.468256686909434E-003
 -1.468251613264442E-003 -1.468241491920725E-003
 -1.468238105936569E-003 -1.468254969470067E-003
 -1.468214925374193E-003 -1.468278194088559E-003
 -1.468237464178793E-003 -1.468255648674104E-003
 -1.468198176714908E-003 -1.468294938748378E-003
 -1.468262233520724E-003 -1.468230882211401E-003
 -1.468263354257875E-003 -1.468229754886277E-003
 -1.468259651514703E-003 -1.468233464317653E-003
 -1.468256909206249E-003 -1.468236170824514E-003
 -1.468236456217263E-003 -1.468256636436717E-003
 -1.468251374474913E-003 -1.468241760581600E-003
 -1.468234113883595E-003 -1.468258991024224E-003
 -1.468234310881446E-003 -1.468258777782118E-003
 -1.468246244999092E-003 -1.468246874308961E-003
 -1.468224205163413E-003 -1.468268893667185E-003
 -1.468242000551098E-003 -1.468251125227111E-003
 -1.468248694331766E-003 -1.468244442426960E-003
 -1.468221848888384E-003 -1.468271220472578E-003
 -1.468233343719089E-003 -1.468259766051783E-003
 -1.468240026790978E-003 -1.468253112391013E-003
 -1.468238589391217E-003 -1.468254535442819E-003
 -1.468263869558263E-003 -1.468229225219559E-003
 -1.468245548395496E-003 -1.468247548419731E-003
 -1.468245680989346E-003 -1.468247441956986E-003
 -1.468246615697867E-003 -1.468246471108946E-003
 -1.468232880241189E-003 -1.468260227249987E-003
 -1.468249938524119E-003 -1.468243190348754E-003
 -1.468236780197361E-003 -1.468256338641469E-003
 -1.468228824537787E-003 -1.468264293005690E-003
 -1.468243755275546E-003 -1.468249387148370E-003
 -1.468230846763378E-003 -1.468262232210021E-003
 -1.468222688911085E-003 -1.468270414160251E-003
 -1.468235901499099E-003 -1.468257204419145E-003
 -1.468261617448349E-003 -1.468231473914007E-003
 -1.468237437765707E-003 -1.468255673525052E-003
 -1.468248792331032E-003 -1.468244316363742E-003
 -1.468265077492039E-003 -1.468228038780890E-003
 -1.468218518709509E-003 -1.468274572632456E-003
 -1.468235304851215E-003 -1.468257818809620E-003
 -1.468263572757964E-003 -1.468229532199419E-003
 -1.468240715871068E-003 -1.468252400652738E-003
 -1.468240707052651E-003 -1.468252405358907E-003
 -1.468239801056306E-003 -1.468253352708485E-003
 -1.468239513640036E-003 -1.468253636034204E-003
 -1.468262890279260E-003 -1.468230216806636E-003
 -1.468258503267550E-003 -1.468234671317337E-003
 -1.468263396983416E-003 -1.468229769476651E-003
 -1.468255324487110E-003 -1.468237764878775E-003
 -1.468234155465409E-003 -1.468259031221816E-003
 -1.468233713487166E-003 -1.468259460842153E-003
 -1.468268206943823E-003 -1.468224900124548E-003
 -1.468251677427562E-003 -1.468241483413395E-003
 -1.468258067631461E-003 -1.468235077708983E-003
 -1.468282375132014E-003 -1.468210743430450E-003
 -1.468245688651893E-003 -1.468247486927226E-003
 -1.468249543280155E-003 -1.468243623118081E-003
 -1.468257166656272E-003 -1.468235934946082E-003
 -1.468222795804124E-003 -1.468270386408926E-003
 -1.468219123335205E-003 -1.468274053068086E-003
 -1.468264704116081E-003 -1.468228405054084E-003
 -1.468243483913953E-003 -1.468249691293476E-003
 -1.468244317153459E-003 -1.468248845848881E-003
 -1.468242925767684E-003 -1.468250191807027E-003
 -1.468230609269415E-003 -1.468262541365785E-003
 -1.468230121961371E-003 -1.468263019380963E-003
 -1.468232374881052E-003 -1.468260730715128E-003
 -1.468231279573030E-003 -1.468261896542814E-003
 -1.468226852011811E-003 -1.468266315874583E-003
 -1.468267533968693E-003 -1.468225572081283E-003
 -1.468241582945404E-003 -1.468251596324481E-003
 -1.468241977512283E-003 -1.468251184817210E-003
 -1.468286005396627E-003 -1.468207105440228E-003
 -1.468245994956334E-003 -1.468247182649669E-003
 -1.468249433922130E-003 -1.468243727617587E-003
 -1.468261288044599E-003 -1.468231822954813E-003
 -1.468243840703223E-003 -1.468249295865945E-003
 -1.468243719297928E-003 -1.468249405925547E-003
 -1.468263996630583E-003 -1.468229124331905E-003
 -1.468237170522044E-003 -1.468256018565489E-003
 -1.468237868711990E-003 -1.468255313250513E-003
 -1.468221084272124E-003 -1.468272024821088E-003
 -1.468258209959383E-003 -1.468234950853068E-003
 -1.468257585667307E-003 -1.468235555452707E-003
 -1.468258917238766E-003 -1.468234197112919E-003
 -1.468235486331298E-003 -1.468257689211491E-003
 -1.468232849787487E-003 -1.468260309713832E-003
 -1.468260275303379E-003 -1.468232820082889E-003
 -1.468221503356389E-003 -1.468271676520684E-003
 -1.468217310671434E-003 -1.468275863537862E-003
 -1.468256981258955E-003 -1.468236117173412E-003
 -1.468237734019335E-003 -1.468255405800989E-003
 -1.468238183452818E-003 -1.468254955206737E-003
 -1.468233619107796E-003 -1.468259485680002E-003
 -1.468260742806831E-003 -1.468232424219406E-003
 -1.468260257813540E-003 -1.468232884530569E-003
 -1.468257687181309E-003 -1.468235405670426E-003
 -1.468244359844940E-003 -1.468248759472071E-003
 -1.468245925859140E-003 -1.468247180307177E-003
 -1.468263382800849E-003 -1.468229733983610E-003
 -1.468234963816305E-003 -1.468258195268430E-003
 -1.468237818769273E-003 -1.468255323029617E-003
 -1.468229123542729E-003 -1.468263975515254E-003
 -1.468254926824703E-003 -1.468238209537548E-003
 -1.468254872296919E-003 -1.468238260795033E-003
 -1.468267905138067E-003 -1.468225161319763E-003
 -1.468238365782281E-003 -1.468254816084344E-003
 -1.468242146376447E-003 -1.468251024129659E-003
 -1.468228620635894E-003 -1.468264453664766E-003
 -1.468254635031616E-003 -1.468238513300262E-003
 -1.468254529930670E-003 -1.468238617034245E-003
 -1.468223390109637E-003 -1.468269731270751E-003
 -1.468251437554638E-003 -1.468241718412610E-003
 -1.468248295771157E-003 -1.468244841463865E-003
 -1.468251782827475E-003 -1.468241314433951E-003
 -1.468239302613546E-003 -1.468253811515311E-003
 -1.468240143304158E-003 -1.468252960966488E-003
 -1.468259314115028E-003 -1.468233792759768E-003
 -1.468260966469851E-003 -1.468232202899752E-003
 -1.468264924512470E-003 -1.468228243215564E-003
 -1.468228442075116E-003 -1.468264669207869E-003
 -1.468254442335294E-003 -1.468238726699262E-003
 -1.468246376537706E-003 -1.468246789864034E-003
 -1.468250662961038E-003 -1.468242457549666E-003
 -1.468265282986038E-003 -1.468227863915163E-003
 -1.468262865790770E-003 -1.468230276612223E-003
 -1.468236327257871E-003 -1.468256778363861E-003
 -1.468273846756758E-003 -1.468219327356623E-003
 -1.468267839837022E-003 -1.468225336282863E-003
 -1.468212869938540E-003 -1.468280252906392E-003
 -1.468252498562100E-003 -1.468240667303291E-003
 -1.468241653897385E-003 -1.468251515056975E-003
 -1.468234795388749E-003 -1.468258298767222E-003
 -1.468261225250349E-003 -1.468231948782097E-003
 -1.468256704879077E-003 -1.468236475824485E-003
 -1.468225125244583E-003 -1.468267983918766E-003
 -1.468242437830747E-003 -1.468250712984869E-003
 -1.468235632750024E-003 -1.468257516538225E-003
 -1.468228267911328E-003 -1.468264844931222E-003
 -1.468234559292165E-003 -1.468258605336870E-003
 -1.468231133713999E-003 -1.468262034725023E-003
 -1.468238194773186E-003 -1.468254921944333E-003
 -1.468261207418521E-003 -1.468231957633884E-003
 -1.468255396881545E-003 -1.468237760889288E-003
 -1.468233315894181E-003 -1.468259784772404E-003
 -1.468275519009787E-003 -1.468217651529881E-003
 -1.468271745009547E-003 -1.468221429092658E-003
 -1.468240296544914E-003 -1.468252803186261E-003
 -1.468253511445913E-003 -1.468239623238032E-003
 -1.468256602522636E-003 -1.468236531332292E-003
 -1.468229541292142E-003 -1.468263584959295E-003
 -1.468260942411103E-003 -1.468232235996814E-003
 -1.468251938273360E-003 -1.468241242335404E-003
 -1.468272421806999E-003 -1.468220688460311E-003
 -1.468229445944106E-003 -1.468263707377028E-003
 -1.468233147906299E-003 -1.468259997069391E-003
 -1.468228576783386E-003 -1.468264528602723E-003
 -1.468252660253153E-003 -1.468240506923325E-003
 -1.468245772873104E-003 -1.468247393771786E-003
 -1.468206208343507E-003 -1.468286905609012E-003
 -1.468254096494624E-003 -1.468239065328111E-003
 -1.468244306027829E-003 -1.468248861402886E-003
 -1.468231577247111E-003 -1.468261536313099E-003
 -1.468247406646159E-003 -1.468245720885456E-003
 -1.468249598181829E-003 -1.468243528165189E-003
 -1.468271616715400E-003 -1.468221506460718E-003
 -1.468237945211608E-003 -1.468255205698342E-003
 -1.468243973151647E-003 -1.468249163555559E-003
 -1.468239766735529E-003 -1.468253336943176E-003
 -1.468253696122194E-003 -1.468239413471761E-003
 -1.468253463271185E-003 -1.468239642470167E-003
 -1.468225582919572E-003 -1.468267495639138E-003
 -1.468258433064045E-003 -1.468234733868048E-003
 -1.468250959280279E-003 -1.468242205144574E-003
 -1.468262567166129E-003 -1.468230513996191E-003
 -1.468235405965373E-003 -1.468257731340457E-003
 -1.468238998815347E-003 -1.468254149454486E-003
 -1.468231984943007E-003 -1.468261135421375E-003
 -1.468263635236252E-003 -1.468229507889965E-003
 -1.468257353778788E-003 -1.468235795668993E-003
 -1.468262767943107E-003 -1.468230339063144E-003
 -1.468235779622556E-003 -1.468257345191999E-003
 -1.468239128977810E-003 -1.468254007784222E-003
 -1.468259057589964E-003 -1.468234042877580E-003
 -1.468228524005343E-003 -1.468264635745675E-003
 -1.468231412284313E-003 -1.468261735375828E-003
 -1.468235176953899E-003 -1.468257912950070E-003
 -1.468250298015109E-003 -1.468242816673494E-003
 -1.468248901618472E-003 -1.468244208913692E-003
 -1.468250218577807E-003 -1.468242889882458E-003
 -1.468250083500262E-003 -1.468243072607333E-003
 -1.468253450430160E-003 -1.468239694016845E-003
 -1.468233195648126E-003 -1.468259916868519E-003
 -1.468239468005266E-003 -1.468253639250020E-003
 -1.468226633296734E-003 -1.468266482606852E-003
 -1.468278572760657E-003 -1.468214556504930E-003
 -1.468288611687380E-003 -1.468204501713720E-003
 -1.468268887301911E-003 -1.468224215608662E-003
 -1.468217163222495E-003 -1.468275968950952E-003
 -1.468242404304606E-003 -1.468250676461567E-003
 -1.468214300225989E-003 -1.468278817155300E-003
 -1.468247044767612E-003 -1.468246068118262E-003
 -1.468260056473133E-003 -1.468233001598876E-003
 -1.468250481877936E-003 -1.468242636741855E-003
 -1.468273876149544E-003 -1.468219225563625E-003
 -1.468261822005131E-003 -1.468231305456855E-003
 -1.468276260089558E-003 -1.468216847357126E-003
 -1.468226866306080E-003 -1.468266260822163E-003
 -1.468220828408130E-003 -1.468272273807333E-003
 -1.468219314294227E-003 -1.468273782992064E-003
 -1.468252456858098E-003 -1.468240659050347E-003
 -1.468239834936395E-003 -1.468253255253393E-003
 -1.468255951695639E-003 -1.468237133763763E-003
 -1.468273750124123E-003 -1.468219363583481E-003
 -1.468244701696941E-003 -1.468248411970540E-003
 -1.468294599522038E-003 -1.468198511872018E-003
 -1.468245963828518E-003 -1.468247135671169E-003
 -1.468248567848793E-003 -1.468244613288383E-003
 -1.468250254759024E-003 -1.468242879240067E-003
 -1.468267851014460E-003 -1.468225254173404E-003
 -1.468268983515410E-003 -1.468224209387562E-003
 -1.468280932558408E-003 -1.468212205467985E-003
 -1.468220643556879E-003 -1.468272471167343E-003
 -1.468236833048477E-003 -1.468256341542921E-003
 -1.468228562531344E-003 -1.468264573675059E-003
 -1.468240034149005E-003 -1.468253078467501E-003
 -1.468240917808997E-003 -1.468252195478925E-003
 -1.468234713903476E-003 -1.468258406739755E-003
 -1.468262009361925E-003 -1.468231088936409E-003
 -1.468256751423922E-003 -1.468236424192236E-003
 -1.468262900751480E-003 -1.468230224572872E-003
 -1.468239015899894E-003 -1.468254093479644E-003
 -1.468235870524649E-003 -1.468257275392787E-003
 -1.468228050606413E-003 -1.468265064224183E-003
 -1.468247181049111E-003 -1.468245929146114E-003
 -1.468230890729236E-003 -1.468262290016751E-003
 -1.468221339363153E-003 -1.468271798968356E-003
 -1.468249428105267E-003 -1.468243699299791E-003
 -1.468248312016693E-003 -1.468244821833771E-003
 -1.468249597612898E-003 -1.468243519787690E-003
 -1.468265677881906E-003 -1.468227428824305E-003
 -1.468261912034763E-003 -1.468231269708645E-003
 -1.468274827333845E-003 -1.468218305112581E-003
 -1.468257849273113E-003 -1.468235244121425E-003
 -1.468239144113386E-003 -1.468253995183196E-003
 -1.468245761541229E-003 -1.468247368148872E-003
 -1.468257968534135E-003 -1.468235127237364E-003
 -1.468245559127694E-003 -1.468247633012952E-003
 -1.468242166768695E-003 -1.468250963015241E-003
 -1.468263454616332E-003 -1.468229660162553E-003
 -1.468252061692081E-003 -1.468241102832734E-003
 -1.468260893852056E-003 -1.468232231035165E-003
 -1.468284640420693E-003 -1.468208465876151E-003
 -1.468258779563165E-003 -1.468234409488470E-003
 -1.468270599973311E-003 -1.468222543296708E-003
 -1.468225145818755E-003 -1.468267957372757E-003
 -1.468232612231982E-003 -1.468260563545664E-003
 -1.468223234398751E-003 -1.468269913111195E-003
 -1.468266628354118E-003 -1.468226463226264E-003
 -1.468252892466968E-003 -1.468240276067232E-003
 -1.468257555989555E-003 -1.468235570812083E-003
 -1.468227004269543E-003 -1.468266100232788E-003
 -1.468242590543944E-003 -1.468250551127851E-003
 -1.468238082615583E-003 -1.468255031188038E-003
 -1.468213188031775E-003 -1.468279914534961E-003
 -1.468246170802481E-003 -1.468247007954669E-003
 -1.468242878636797E-003 -1.468250270037721E-003
 -1.468248895444754E-003 -1.468244203072212E-003
 -1.468248480587464E-003 -1.468244666267733E-003
 -1.468248228702075E-003 -1.468244913117888E-003
 -1.468276701735951E-003 -1.468216400031973E-003
 -1.468257958521107E-003 -1.468235220941239E-003
 -1.468263373234404E-003 -1.468229761350949E-003
 -1.468239606693485E-003 -1.468253518199060E-003
 -1.468256508933051E-003 -1.468236616402996E-003
 -1.468252934760379E-003 -1.468240165612236E-003
 -1.468236515702524E-003 -1.468256575176479E-003
 -1.468253332836943E-003 -1.468239854876287E-003
 -1.468258521475059E-003 -1.468234620455563E-003
 -1.468259312556578E-003 -1.468233792224502E-003
 -1.468258615863077E-003 -1.468234545440201E-003
 -1.468263859740646E-003 -1.468229279462822E-003
 -1.468233991450162E-003 -1.468259092502296E-003
 -1.468258294840028E-003 -1.468234798800173E-003
 -1.468238547685022E-003 -1.468254591342877E-003
 -1.468255703540526E-003 -1.468237401200993E-003
 -1.468257520896873E-003 -1.468235565952684E-003
 -1.468244291446592E-003 -1.468248830611931E-003
 -1.468267390618805E-003 -1.468225714787026E-003
 -1.468253258804597E-003 -1.468239868851587E-003
 -1.468250163424951E-003 -1.468242972900785E-003
 -1.468272865719495E-003 -1.468220212704544E-003
 -1.468259736116742E-003 -1.468233372292445E-003
 -1.468256871908221E-003 -1.468236263770349E-003
 -1.468247360815731E-003 -1.468245768415142E-003
 -1.468233534780502E-003 -1.468259552601392E-003
 -1.468244914384543E-003 -1.468248174243925E-003
 -1.468249162254034E-003 -1.468243963792628E-003
 -1.468246837850829E-003 -1.468246238122638E-003
 -1.468264729801182E-003 -1.468228376591818E-003
 -1.468240210023058E-003 -1.468252921268196E-003
 -1.468255897457892E-003 -1.468237222313001E-003
 -1.468268549896857E-003 -1.468224558561196E-003
 -1.468253751812837E-003 -1.468239404763238E-003
 -1.468255789293651E-003 -1.468237287388264E-003
 -1.468275236256291E-003 -1.468217850534485E-003
 -1.468252074687609E-003 -1.468241037212853E-003
 -1.468230099398779E-003 -1.468262975579037E-003
 -1.468254650485210E-003 -1.468238453790969E-003
 -1.468255241515981E-003 -1.468237885501108E-003
 -1.468229636064126E-003 -1.468263472835758E-003
 -1.468253388467544E-003 -1.468239723419133E-003
 -1.468239797008065E-003 -1.468253321200110E-003
 -1.468228614372625E-003 -1.468264497687404E-003
 -1.468271516003065E-003 -1.468221570961442E-003
 -1.468242097606401E-003 -1.468250998934952E-003
 -1.468264271569388E-003 -1.468228818166455E-003
 -1.468242696380446E-003 -1.468250415272653E-003
 -1.468258048581793E-003 -1.468235047274922E-003
 -1.468273080270733E-003 -1.468220013186619E-003
 -1.468229014407784E-003 -1.468264116645071E-003
 -1.468236193503835E-003 -1.468256912109852E-003
 -1.468263155304012E-003 -1.468229971746417E-003
 -1.468240186883932E-003 -1.468252931044177E-003
 -1.468236597769527E-003 -1.468256498276202E-003
 -1.468224456362118E-003 -1.468268628665618E-003
 -1.468267391390934E-003 -1.468225742020677E-003
 -1.468252666455838E-003 -1.468240430532483E-003
 -1.468226831169667E-003 -1.468266257389960E-003
 -1.468253343379579E-003 -1.468239766458322E-003
 -1.468253270116748E-003 -1.468239829353051E-003
 -1.468226332896290E-003 -1.468266794341327E-003
 -1.468249064848684E-003 -1.468244050117659E-003
 -1.468249827150705E-003 -1.468243275032188E-003
 -1.468265703632618E-003 -1.468227418554344E-003
 -1.468242127280506E-003 -1.468250967021613E-003
 -1.468248213986273E-003 -1.468244884120325E-003
 -1.468232623136446E-003 -1.468260464329239E-003
 -1.468262261247332E-003 -1.468230871516612E-003
 -1.468246427717168E-003 -1.468246658515628E-003
 -1.468227700463124E-003 -1.468265442005090E-003
 -1.468255173477650E-003 -1.468237917005206E-003
 -1.468239971250251E-003 -1.468253122703133E-003
 -1.468256082385539E-003 -1.468237016273007E-003
 -1.468233178061129E-003 -1.468259948802755E-003
 -1.468240450039878E-003 -1.468252658460415E-003
 -1.468252794919695E-003 -1.468240265824175E-003
 -1.468233946231806E-003 -1.468259152697600E-003
 -1.468239280894037E-003 -1.468253827602637E-003
 -1.468236115135765E-003 -1.468256987575701E-003
 -1.468231845044989E-003 -1.468261264292032E-003
 -1.468232385045145E-003 -1.468260705652854E-003
 -1.468238205325627E-003 -1.468254906291231E-003
 -1.468236278754837E-003 -1.468256840156305E-003
 -1.468243460831227E-003 -1.468249638704760E-003
 -1.468233448159443E-003 -1.468259643731072E-003
 -1.468248208565138E-003 -1.468244865934430E-003
 -1.468233253999935E-003 -1.468259833016775E-003
 -1.468236811320807E-003 -1.468256309002627E-003
 -1.468238673150757E-003 -1.468254440439468E-003
 -1.468239688304244E-003 -1.468253421843285E-003
 -1.468234671624491E-003 -1.468258446324095E-003
 -1.468234466215525E-003 -1.468258626746688E-003
 -1.468251946864819E-003 -1.468241159886949E-003
 -1.468259356017154E-003 -1.468233724027749E-003
 -1.468245452247133E-003 -1.468247627043730E-003
 -1.468256173505946E-003 -1.468236942537959E-003
 -1.468256671260941E-003 -1.468236439954555E-003
 -1.468260393010688E-003 -1.468232700317584E-003
 -1.468262172406065E-003 -1.468230920975119E-003
 -1.468253040572774E-003 -1.468240072499967E-003
 -1.468255312945418E-003 -1.468237801703986E-003
 -1.468251349614653E-003 -1.468241754568753E-003
 -1.468240551407850E-003 -1.468252503348533E-003
 -1.468257333705116E-003 -1.468235772980111E-003
 -1.468261600444401E-003 -1.468231491474716E-003
 -1.468250831120466E-003 -1.468242279240360E-003
 -1.468256469198609E-003 -1.468236650304435E-003
 -1.468255783920651E-003 -1.468237330810974E-003
 -1.468254044392010E-003 -1.468239051163613E-003
 -1.468261684686751E-003 -1.468231424942832E-003
 Gradient of SCF Energy
            1           2           3           4           5           6
    1   0.0027279  -0.0007033  -0.0092956   0.0010832  -0.0032348  -0.0008086
    2   0.0025338  -0.0005937  -0.0018036   0.0011962  -0.0022654  -0.0010579
    3   0.0027993  -0.0002898   0.0000477   0.0012983  -0.0024156  -0.0012059
            7           8           9          10          11          12
    1   0.0012385   0.0012348   0.0051149   0.0032507  -0.0019945   0.0032972
    2  -0.0018084  -0.0011825  -0.0003351   0.0004826   0.0010435   0.0038975
    3  -0.0028145  -0.0019186  -0.0015547  -0.0001118   0.0014667   0.0045711
           13          14          15          16          17          18
    1  -0.0003962   0.0021171   0.0045365  -0.0031259  -0.0009681  -0.0035014
    2  -0.0005376  -0.0006113   0.0035290   0.0023499   0.0019067  -0.0003887
    3  -0.0009703  -0.0009644   0.0037945   0.0036563   0.0026838   0.0004380
           19          20          21          22          23          24
    1  -0.0025536  -0.0019658  -0.0012746   0.0020702  -0.0042997   0.0008529
    2  -0.0000258  -0.0026377  -0.0009967  -0.0056088  -0.0040949   0.0003082
    3   0.0006012  -0.0033022  -0.0010366  -0.0076774  -0.0049778   0.0003874
           25          26          27          28          29          30
    1  -0.0020498   0.0032271   0.0003249  -0.0013103   0.0034515   0.0017118
    2   0.0022226   0.0090854   0.0005356  -0.0053519  -0.0034018   0.0020259
    3  -0.0047645  -0.0022591   0.0007046   0.0011560   0.0091517   0.0021435
           31          32          33          34          35          36
    1  -0.0097642   0.0002404   0.0058298   0.0058925   0.0048525  -0.0028114
    2   0.0030667  -0.0036791   0.0023370  -0.0052487  -0.0075184   0.0015541
[...]
    142  C         1.8792453490    2.1366496665    2.0991887468
    143  H         1.4675088551    2.3652914004    1.1157230012
    144  H         2.9522763280    2.3306145507    2.0703760056
    145  H         1.4390101984    2.8300861428    2.8168584595
    146  H         1.9679888042   -0.6620343567    4.1565665226
    147  H         1.7239851616    1.0169954304    4.6368450252
    148  H         3.2426136793    0.5319580197    3.9028885249
    149  H       -10.4294219856   -7.5086873341  -12.0282175997
    150  H       -11.9164743362   -8.4538989439  -11.9174119196
    151  H       -10.5673044222   -9.0577931449  -12.8636146299
    152  H       -10.4950874379  -11.2141480800   -9.7737444881
    153  H       -10.6032295670  -11.2416567424  -11.5354171651
    154  H       -11.9545585415  -10.6442147870  -10.5859178139
   Point Group: c1    Number of degrees of freedom:   456


   Energy is  -3317.746160054

 Hessian Updated using BFGS Update

427 Hessian modes will be used to form the next step
  Hessian Eigenvalues:
     0.003442    0.003452    0.004012    0.004154    0.005520    0.005552
     0.005609    0.005617    0.006276    0.008044    0.008242    0.008505
     0.008568    0.009415    0.009791    0.010069    0.011273    0.012531
     0.013108    0.014239    0.014610    0.014865    0.015356    0.015679
     0.016322    0.016448    0.016607    0.016627    0.016658    0.017155
     0.017326    0.017456    0.017772    0.017870    0.018009    0.018076
     0.018315    0.018443    0.018588    0.018678    0.018841    0.018993
     0.019072    0.019366    0.019955    0.020268    0.020456    0.020488
     0.020563    0.020699    0.020771    0.020990    0.021015    0.021045
     0.021060    0.021177    0.021221    0.021259    0.021300    0.021379
     0.021436    0.021479    0.021688    0.021702    0.021979    0.022280
     0.022282    0.022527    0.022535    0.022661    0.022684    0.022948
     0.023120    0.023134    0.023157    0.023168    0.023196    0.023210
     0.023231    0.023436    0.023447    0.023462    0.023496    0.023521
     0.023539    0.023581    0.023742    0.023753    0.023758    0.023768
     0.023787    0.023803    0.023808    0.023862    0.023937    0.023946
     0.024022    0.024030    0.024062    0.024080    0.024085    0.024140
     0.024245    0.024273    0.024354    0.024368    0.024391    0.024404
     0.024420    0.024464    0.024491    0.024499    0.024515    0.024520
     0.024593    0.024628    0.024748    0.024752    0.025046    0.025059
     0.026519    0.037377    0.039653    0.042591    0.043552    0.044552
     0.048690    0.053576    0.054302    0.054361    0.054483    0.054550
     0.054928    0.055049    0.055317    0.055327    0.055523    0.055651
     0.055697    0.055759    0.055872    0.055959    0.056060    0.056304
     0.056400    0.056462    0.056470    0.056771    0.056906    0.057190
     0.058239    0.078878    0.079239    0.092882    0.093400    0.093774
     0.093861    0.127725    0.128253    0.128467    0.128877    0.133340
     0.133534    0.147810    0.159528    0.159847    0.159982    0.159992
     0.159993    0.159995    0.159995    0.159996    0.159997    0.159998
     0.159998    0.159999    0.159999    0.159999    0.159999    0.159999
     0.159999    0.160000    0.160000    0.160000    0.160000    0.160000
     0.160000    0.160000    0.160000    0.160000    0.160502    0.160767
     0.160959    0.161471    0.178120    0.179177    0.200524    0.219045
     0.219086    0.219954    0.219997    0.220020    0.220305    0.220606
     0.220665    0.222127    0.222339    0.222949    0.225758    0.226012
     0.226027    0.228141    0.228849    0.231832    0.231850    0.233615
     0.233810    0.234437    0.234684    0.234738    0.235046    0.237146
     0.237394    0.237787    0.239836    0.240208    0.242428    0.244623
     0.245161    0.245570    0.247229    0.247595    0.247948    0.248921
     0.249036    0.249666    0.249698    0.249725    0.249751    0.249822
     0.249851    0.249861    0.249884    0.249888    0.249893    0.249902
     0.249924    0.249945    0.249971    0.249980    0.249982    0.249989
     0.249990    0.249994    0.249996    0.254646    0.256385    0.265827
     0.280043    0.280991    0.282113    0.282634    0.287175    0.287759
     0.293675    0.295201    0.296710    0.296826    0.296933    0.297107
     0.297390    0.302371    0.305187    0.308608    0.315941    0.316786
     0.319060    0.319879    0.333528    0.334396    0.337546    0.344031
     0.344111    0.344278    0.344408    0.345049    0.345759    0.345872
     0.346081    0.346220    0.346580    0.346831    0.347055    0.347138
     0.347272    0.347323    0.347401    0.347611    0.347779    0.347895
     0.348202    0.348254    0.348262    0.348306    0.348378    0.348527
     0.348949    0.348991    0.349067    0.349125    0.349162    0.349339
     0.349449    0.349965    0.351034    0.353131    0.353271    0.353856
     0.354053    0.354424    0.354568    0.354574    0.354712    0.355745
     0.355834    0.355984    0.356024    0.356108    0.356142    0.356164
     0.356171    0.356286    0.356295    0.356721    0.356801    0.356874
     0.356888    0.356999    0.357099    0.357950    0.358076    0.358117
     0.358234    0.358960    0.358998    0.359372    0.359701    0.359859
     0.360170    0.361356    0.362372    0.368420    0.370162    0.373972
     0.380109    0.382997    0.384451    0.396804    0.397229    0.400193
     0.401130    0.407416    0.407623    0.407716    0.409753    0.416960
     0.417154    0.417711    0.417987    0.418899    0.420080    0.421767
     0.422228    0.422650    0.423337    0.425668    0.426299    0.427181
     0.431331    0.432430    0.433388    0.433580    0.434694    0.440188
     0.441306    0.450888    0.451806    0.452834    0.453459    0.453960
     0.455497    0.455874    0.457309    0.461591    0.462144    0.462661
     0.469550    0.470926    0.471612    0.472335    0.472837    0.475987
     0.477820    0.479198    0.479334    0.479599    0.480834    0.481427
     0.481794    0.482184    0.483473    0.484105    0.484120    0.484554
     0.487543    0.488068    0.488341    0.490504    0.495091    0.495846
     0.496906    0.497333    0.498191    0.499896    0.501128    0.509438
     0.529689

 Minimum Search - Taking Simple RFO Step
 Searching for Lamda that Minimizes Along All modes
 Value Taken    Lamda =  -0.00007782
 Step Taken.  Stepsize is  0.054192

                             Maximum     Tolerance    Cnvgd?
         Gradient           0.001916      0.000075      NO
         Displacement       0.020857      0.001200      NO
         Energy change     -0.000281      0.000000      NO


 New Cartesian Coordinates Obtained by Inverse Iteration

 Displacement from previous Coordinates is:  1.423877
 Adding empirical dispersion correction 
 ----------------------------------------------------------------
 Doing -D3(BJ) with
 s6 =   1.00000
 s8 =   0.00000
 a1 =   0.48600
 a2 =   4.50000
 -D3 energy including 3body term =     -0.1508246092 hartrees
 ----------------------------------------------------------------
 Adding gCP correction 
 ----------------------------------------------------------------
 gCP energy =      0.2097013247 hartrees
 ----------------------------------------------------------------
             Standard Nuclear Orientation (Angstroms)
    I     Atom           X                Y                Z
 ----------------------------------------------------------------
    1      N       0.1023919153    -1.1658348991     0.7505731602
    2      C      -0.6199073451    -0.4009262154     1.6579374756
    3      C       0.0258405788     0.4930288528     2.5183238978
    4      C       1.5298242764     0.6950059206     2.5076441200
    5      C      -0.7548367531     1.2351358893     3.4010665600
    6      H      -0.2689991351     1.9366476109     4.0684406919
    7      C      -2.1328515426     1.1187511600     3.4583077252
    8      H      -2.7036611512     1.7141630912     4.1583303466
    9      C      -2.7606943453     0.2273855447     2.6018723729
   10      H      -3.8369249903     0.1101979670     2.6196739845
   11      C      -2.0161268988    -0.5229097846     1.7129908087
   12      H      -2.5264634261    -1.2109768901     1.0538661782
   13      C       1.4875038361    -1.0994858939     0.6806585216
   14      C       2.1787758043    -1.9144842321    -0.2255526473
   15      H       1.6345779417    -2.5955827899    -0.8647756837
   16      C       3.5560300678    -1.8632657453    -0.3184459316
   17      H       4.0611435282    -2.5048728565    -1.0291423358
   18      C       4.2785809099    -0.9987802168     0.4898522559
   19      H       5.3570940270    -0.9467285141     0.4248874342
   20      C       3.5914513296    -0.1980197428     1.3854890752
   21      H       4.1571825213     0.4791508087     2.0137692593
   22      C       2.2050868324    -0.2257302257     1.5055402804
   23      C      -0.6080302226    -1.9955445001    -0.1632149814
   24      C      -0.9317596231    -3.2967115483     0.1790559084
   25      H      -0.6197469446    -3.6875127000     1.1419455216
   26      C      -1.6693697779    -4.0941740383    -0.6925994504
   27      C      -1.0041997633    -1.4894552181    -1.3900497830
   28      H      -0.7454381947    -0.4694301563    -1.6536099729
   29      C      -1.7420280525    -2.2705848792    -2.2726690022
   30      C      -2.0980208877    -3.5859755932    -1.9278041072
   31      C      -2.1150869473    -1.6861360310    -3.6114950932
   32      H      -2.1769406472    -0.5979415043    -3.5280833413
   33      H      -3.1093636301    -2.0259845939    -3.9102285340
   34      C      -1.1116990092    -2.0503585723    -4.7040426075
   35      C      -2.0517013672    -5.4838423656    -0.2502474158
   36      H      -1.2644247336    -5.8920078014     0.3892541884
   37      H      -2.1189018867    -6.1479327403    -1.1148810649
   38      C      -3.3776428879    -5.5081102241     0.5071206445
   39      H      -4.1945374397    -5.1548906642    -0.1221846109
   40      H      -3.6225521779    -6.5197168041     0.8338738360
   41      H      -3.3370875416    -4.8703030151     1.3915371070
   42      B      -3.0332568423    -4.4259069580    -2.8971864548
   43      C      -4.5512827924    -4.1646662100    -2.8690084888
   44      C      -5.1123167160    -3.2587408382    -1.9406880102
   45      H      -4.4600229737    -2.7447641324    -1.2421510259
   46      C      -6.4667482446    -3.0244459941    -1.9110882115
   47      C      -7.3199172878    -3.6998140267    -2.8342674407
   48      C      -6.7979199117    -4.5745958071    -3.7509408411
   49      H      -7.4575144605    -5.0765021137    -4.4524524416
   50      C      -5.4135774060    -4.8335481347    -3.7929097483
   51      C      -7.3102013455    -2.1705046102    -1.0723782603
   52      C      -7.1006196460    -1.2986241662    -0.0322829446
   53      H      -6.1093381738    -1.1030869128     0.3580223142
   54      C      -8.6368159736    -2.3636480450    -1.5159204609
   55      C      -9.7549151646    -1.7344989898    -0.9721943738
   56      C      -8.6946568302    -3.2823936000    -2.5830316959
   57      C      -9.9198313298    -3.5846792936    -3.1274330018
   58      H     -10.0236179056    -4.2841401529    -3.9485805894
   59      C      -8.2174731562    -0.6420622382     0.5384977687
   60      H      -8.0459017423     0.0447111464     1.3577241482
   61      C      -9.5066391014    -0.8410556759     0.0980500172
   62      H     -10.3286440423    -0.3155806858     0.5691109120
   63      C     -11.0068283192    -2.0626255002    -1.5507399073
   64      H     -11.9147475680    -1.6085503950    -1.1721092551
   65      C     -11.0702999672    -2.9596864306    -2.5935155406
   66      H     -12.0358582750    -3.1984781880    -3.0221517875
   67      C      -2.4672591295    -5.4620760983    -3.8836688490
   68      C      -1.0885411629    -5.7730873439    -3.9024498067
   69      H      -0.4242495458    -5.2695501634    -3.2069507124
   70      C      -0.5845781539    -6.7028127385    -4.7824741052
   71      C      -1.4637765657    -7.3540344480    -5.6991402759
   72      C      -2.8020375826    -7.0583992154    -5.7094852458
   73      H      -3.4598015337    -7.5579678715    -6.4143857672
   74      C      -3.3405856292    -6.1191581276    -4.8079601583
   75      C       0.7611337085    -7.2337216364    -5.0098132352
   76      C       2.0039127277    -7.0279344993    -4.4638015115
   77      H       2.1655347361    -6.3166334066    -3.6634353181
   78      C       0.6440115993    -8.1842998055    -6.0477462348
   79      C       1.6984779655    -8.9361296711    -6.5597885456
   80      C      -0.6868853814    -8.2916050534    -6.4984393960
   81      C      -0.9768470406    -9.1837228007    -7.5021400242
   82      H      -1.9837282379    -9.3084105161    -7.8827088924
   83      C       3.0963582060    -7.7746879206    -4.9664173558
   84      H       4.0740274681    -7.6088035341    -4.5318831010
   85      C       2.9677739288    -8.7006217087    -5.9774075532
   86      H       3.8353358439    -9.2486225244    -6.3245166732
   87      C       1.3752461712    -9.8489309654    -7.5951870013
   88      H       2.1501177762   -10.4644232416    -8.0361279239
   89      C       0.0765603757    -9.9572504964    -8.0406479968
   90      H      -0.1496802132   -10.6622643108    -8.8310512768
   91      B      -4.8398640245    -5.8115783022    -4.8209808644
   92      C      -5.7962540356    -6.4727808275    -5.9064266136
   93      C      -6.1514769832    -5.7488116351    -7.0587562262
   94      C      -7.0175176130    -6.2971653493    -7.9983831062
   95      H      -7.3046509491    -5.7351351390    -8.8802732438
   96      C      -7.5152161446    -7.5685634036    -7.7954506246
   97      C      -7.1768643535    -8.3124957540    -6.6837717877
   98      H      -7.5882080450    -9.3070493404    -6.5494936498
   99      C      -6.3200744913    -7.7645170280    -5.7339780195
  100      N      -8.4419474336    -8.1183400540    -8.7495888228
  101      C      -9.7860236438    -7.9438775457    -8.5176460532
  102      C     -10.7328757768    -8.4621196122    -9.4217024240
  103      C     -10.3388782903    -9.2153969327   -10.6677885441
  104      C     -12.0756320275    -8.2590884052    -9.1359649303
  105      H     -12.8286994847    -8.6459193801    -9.8094202220
  106      C     -12.4858140893    -7.5695313669    -8.0077467247
  107      H     -13.5413432052    -7.4298604084    -7.8178818004
  108      C     -11.5392706168    -7.0562747935    -7.1226925997
  109      H     -11.8509880851    -6.5143533977    -6.2407667442
  110      C     -10.2014823401    -7.2378006587    -7.3697837150
  111      H      -9.4736287944    -6.8358443013    -6.6807855738
  112      C      -7.9532050788    -8.7850486658    -9.8490928605
  113      C      -8.8405659054    -9.3225629713   -10.8019431382
  114      C      -8.2926101346    -9.9772314875   -11.8954781400
  115      H      -8.9465751081   -10.4011160445   -12.6458740056
  116      C      -6.9235953383   -10.1073896346   -12.0575466310
  117      H      -6.5325461115   -10.6233707435   -12.9238786630
  118      C      -6.0551319899    -9.5762157090   -11.1055919556
  119      H      -4.9853164846    -9.6757573713   -11.2239972569
  120      C      -6.5589818761    -8.9209960194   -10.0096862304
  121      H      -5.8820206801    -8.5103439140    -9.2754705065
  122      C      -6.0369972580    -8.5712903170    -4.4952767296
  123      H      -5.9596184246    -9.6296869149    -4.7579232449
  124      H      -5.0727310743    -8.2853532516    -4.0728581174
  125      C      -7.1291828372    -8.3869895114    -3.4436950423
  126      C      -5.5723708642    -4.3900131305    -7.3464003366
  127      H      -6.3132731181    -3.7787282099    -7.8682870981
  128      H      -5.3462064969    -3.8729012201    -6.4127580596
  129      C      -4.3061266903    -4.4883060093    -8.1943148694
  130      H      -3.5400597157    -5.0720085949    -7.6839487021
  131      H      -4.5086919024    -4.9663874428    -9.1545310440
  132      H      -3.8935006285    -3.4988794568    -8.3929958502
  133      H      -7.1968470045    -7.3446994037    -3.1308718667
  134      H      -6.9223278293    -8.9876387283    -2.5576332206
  135      H      -8.1049973205    -8.6856593445    -3.8311264181
  136      H      -1.3976413201    -1.6064872891    -5.6588287478
  137      H      -1.0589846914    -3.1300308941    -4.8430596324
  138      H      -0.1108895764    -1.6950496723    -4.4542820712
  139      C     -10.9027226675    -8.4754709839   -11.8993030292
  140      C     -10.9332439155   -10.6377873577   -10.5991442925
  141      C       2.0818920670     0.3997590252     3.9125629187
  142      C       1.8274723061     2.1532810405     2.1215310170
  143      H       1.4326357098     2.3764075156     1.1298582102
  144      H       2.9006486300     2.3478413441     2.1100464593
  145      H       1.3743532458     2.8495465768     2.8282939172
  146      H       1.8813831994    -0.6338929870     4.1960929176
  147      H       1.6267087538     1.0476513763     4.6622366410
  148      H       3.1594006658     0.5601285999     3.9602801684
  149      H     -10.4950596679    -7.4679673838   -11.9761496199
  150      H     -11.9880112589    -8.4010203227   -11.8415755620
  151      H     -10.6628232244    -9.0113952397   -12.8169281236
  152      H     -10.5506844161   -11.1840415158    -9.7375687309
  153      H     -10.6885415361   -11.2037166522   -11.4973535988
  154      H     -12.0192464055   -10.5999542867   -10.5233770745
 ----------------------------------------------------------------
 Nuclear Repulsion Energy = 13749.5277026464 hartrees
 There are      293 alpha and      291 beta electrons
 Discretize the solute cavity surface with Lebedev spheres
	Using 302 Lebedev grid points for each H atom
	Using 302 Lebedev grid points for other atoms
	Atomic van der Waals radii will be scaled by 1.20
 Remove points where switching function is < 1.0e-08
 Keep 15680 surface tesserae and discard 30828 interior tesserae
 Molecular Surface Area = 1138.822 Angst**2
 Nucleus-field energy     =     0.0000000185 hartrees
 Requested basis set is def2-mSVP
 There are 738 shells and 1426 basis functions
 A cutoff of  1.0D-11 yielded  70183 shell pairs
 There are    271533 function pairs (    298624 Cartesian)
 Smallest overlap matrix eigenvalue = 1.95E-04
 Guess MOs from SCF MO coefficient file

 -----------------------------------------------------------------------
  General SCF calculation program by
  Eric Jon Sundstrom, Paul Horn, Yuezhi Mao, Dmitri Zuev, Alec White,
  David Stuck, Shaama M.S., Shane Yost, Joonho Lee, David Small,
  Daniel Levine, Susi Lehtola, Hugh Burton, Evgeny Epifanovsky
 -----------------------------------------------------------------------
 Exchange:     0.4200 Hartree-Fock + 0.5800 PBEh-3c
 Correlation:  1.0000 PBEh-3c
 Using SG-1 standard quadrature grid
 Dispersion:   Grimme D3
 using 8 threads for integral computing
 -------------------------------------------------------
 OpenMP Integral computing Module                
 Release: version 2.0, May 2017, Q-Chem Inc. Pleasanton 
 -------------------------------------------------------
 -------------------------------------------------------
 OpenMP BLAS3 based DFT computing Module                
 Release: version 1.0, May 2013, Q-Chem Inc. Pittsburgh 
 -------------------------------------------------------
 A unrestricted SCF calculation will be
 performed using DIIS
 SCF converges when DIIS error is below 1.0e-08
 ---------------------------------------
  Cycle       Energy         DIIS error
 ---------------------------------------
 Using non-symmetric K matrix
    1   -3312.0128892049      8.69e-05  
    2   -3317.6528104826      2.37e-04  
    3   -3317.7357869199      8.41e-05  
    4   -3317.7445545199      3.08e-05  
