mFile = /cm/shared/apps/q-chem/intel/QCHEM_5.1.0_Trunk/bin/mpi/machines
Process 0 of 1 is on ctcp016 - thread support 0
initial socket setup ...start
initial socket setup ...done 
now start server 0 ... 
Q-Chem Developer Version!
                  Welcome to Q-Chem
     A Quantum Leap Into The Future Of Chemistry


 Q-Chem 5.1, Q-Chem, Inc., Pleasanton, CA (2018)

 Yihan Shao,  Zhengting Gan,  E. Epifanovsky,  A. T. B. Gilbert,  M. Wormit,  
 J. Kussmann,  A. W. Lange,  A. Behn,  Jia Deng,  Xintian Feng,  D. Ghosh,  
 M. Goldey,  P. R. Horn,  L. D. Jacobson,  I. Kaliman,  T. Kus,  A. Landau,  
 Jie Liu,  E. I. Proynov,  R. M. Richard,  R. P. Steele,  E. J. Sundstrom,  
 H. L. Woodcock III,  P. M. Zimmerman,  D. Zuev,  B. Albrecht,  E. Alguire,  
 S. A. Baeppler,  D. Barton,  Z. Benda,  Y. A. Bernard,  E. J. Berquist,  
 K. B. Bravaya,  H. Burton,  D. Casanova,  Chun-Min Chang,  Yunqing Chen,  
 A. Chien,  K. D. Closser,  M. P. Coons,  S. Coriani,  S. Dasgupta,  
 A. L. Dempwolff,  M. Diedenhofen,  Hainam Do,  R. G. Edgar,  Po-Tung Fang,  
 S. Faraji,  S. Fatehi,  Qingguo Feng,  K. D. Fenk,  J. Fosso-Tande,  
 Qinghui Ge,  A. Ghysels,  G. Gidofalvi,  J. Gomes,  J. Gonthier,  A. Gunina,  
 D. Hait,  M. W. D. Hanson-Heine,  P. H. P. Harbach,  A. W. Hauser,  
 J. E. Herr,  E. G. Hohenstein,  Z. C. Holden,  Kerwin Hui,  B. C. Huynh,  
 T.-C. Jagau,  Hyunjun Ji,  B. Kaduk,  K. Khistyaev,  Jaehoon Kim,  
 P. Klunzinger,  K. Koh,  D. Kosenkov,  L. Koulias,  T. Kowalczyk,  
 C. M. Krauter,  A. Kunitsa,  Ka Un Lao,  A. Laurent,  K. V. Lawler,  
 Joonho Lee,  D. Lefrancois,  S. Lehtola,  D. S. Levine,  Yi-Pei Li,  
 You-Sheng Lin,  Fenglai Liu,  E. Livshits,  A. Luenser,  P. Manohar,  
 E. Mansoor,  S. F. Manzer,  Shan-Ping Mao,  Yuezhi Mao,  N. Mardirossian,  
 A. V. Marenich,  T. Markovich,  L. A. Martinez-Martinez,  S. A. Maurer,  
 N. J. Mayhall,  S. C. McKenzie,  J.-M. Mewes,  A. F. Morrison,  
 J. W. Mullinax,  K. Nanda,  T. S. Nguyen-Beck,  R. Olivares-Amaya,  
 J. A. Parkhill,  T. M. Perrine,  F. Plasser,  P. Pokhilko,  S. Prager,  
 A. Prociuk,  E. Ramos,  D. R. Rehn,  F. Rob,  M. Schneider,  N. Sergueev,  
 S. M. Sharada,  S. Sharma,  D. W. Small,  T. Stauch,  T. Stein,  
 Yu-Chuan Su,  A. J. W. Thom,  A. Tkatchenko,  T. Tsuchimochi,  N. M. Tubman,  
 L. Vogt,  M. L. Vidal,  O. Vydrov,  M. A. Watson,  J. Wenzel,  
 M. de Wergifosse,  T. A. Wesolowski,  A. White,  J. Witte,  A. Yamada,  
 Jun Yang,  K. Yao,  S. Yeganeh,  S. R. Yost,  Zhi-Qiang You,  A. Zech,  
 Igor Ying Zhang,  Xing Zhang,  Yan Zhao,  Ying Zhu,  B. R. Brooks,  
 G. K. L. Chan,  C. J. Cramer,  M. S. Gordon,  W. J. Hehre,  A. Klamt,  
 M. W. Schmidt,  C. D. Sherrill,  D. G. Truhlar,  A. Aspuru-Guzik,  R. Baer,  
 A. T. Bell,  N. A. Besley,  Jeng-Da Chai,  A. E. DePrince, III,  
 R. A. DiStasio Jr.,  A. Dreuw,  B. D. Dunietz,  T. R. Furlani,  
 Chao-Ping Hsu,  Yousung Jung,  Jing Kong,  D. S. Lambrecht,  WanZhen Liang,  
 C. Ochsenfeld,  V. A. Rassolov,  L. V. Slipchenko,  J. E. Subotnik,  
 T. Van Voorhis,  J. M. Herbert,  A. I. Krylov,  P. M. W. Gill,  M. Head-Gordon

 Contributors to earlier versions of Q-Chem not listed above: 
 R. D. Adamson,  B. Austin,  J. Baker,  G. J. O. Beran,  K. Brandhorst,  
 S. T. Brown,  E. F. C. Byrd,  A. K. Chakraborty,  C.-L. Cheng,  
 Siu Hung Chien,  D. M. Chipman,  D. L. Crittenden,  H. Dachsel,  
 R. J. Doerksen,  A. D. Dutoi,  L. Fusti-Molnar,  W. A. Goddard III,  
 A. Golubeva-Zadorozhnaya,  S. R. Gwaltney,  G. Hawkins,  A. Heyden,  
 S. Hirata,  G. Kedziora,  F. J. Keil,  C. Kelley,  Jihan Kim,  R. A. King,  
 R. Z. Khaliullin,  P. P. Korambath,  W. Kurlancheek,  A. M. Lee,  M. S. Lee,  
 S. V. Levchenko,  Ching Yeh Lin,  D. Liotard,  R. C. Lochan,  I. Lotan,  
 P. E. Maslen,  N. Nair,  D. P. O'Neill,  D. Neuhauser,  E. Neuscamman,  
 C. M. Oana,  R. Olson,  B. Peters,  R. Peverati,  P. A. Pieniazek,  
 Y. M. Rhee,  J. Ritchie,  M. A. Rohrdanz,  E. Rosta,  N. J. Russ,  
 H. F. Schaefer III,  N. E. Schultz,  N. Shenvi,  A. C. Simmonett,  A. Sodt,  
 D. Stuck,  K. S. Thanthiriwatte,  V. Vanovschi,  Tao Wang,  A. Warshel,  
 C. F. Williams,  Q. Wu,  X. Xu,  W. Zhang

 Please cite Q-Chem as follows:
 Y. Shao et al., Mol. Phys. 113, 184-215 (2015)
 DOI: 10.1080/00268976.2014.952696

 Q-Chem 5.1.1 for Intel X86 EM64T Linux

 Parts of Q-Chem use Armadillo 8.300.2 (Tropical Shenanigans).
 http://arma.sourceforge.net/

 Q-Chem begins on Tue Mar  2 01:49:42 2021  

Host: ctcp016
0

     Scratch files written to /scratch/mewes/210645/qchem81341//
 Parallel job on  1  processors
The previous job contains 0 fragments, simply inherited here
Symmetry turned off for PCM/SM12/SMD calculation
Input Ideriv = 2
Curr. Ideriv = -1
Max.  Ideriv = 2
Input Ideriv = 2
Curr. Ideriv = 2
Max.  Ideriv = 2

Checking the input file for inconsistencies... 	...done.

--------------------------------------------------------------
User input:
--------------------------------------------------------------
$rem
threads 8
jobtype opt
method PBEh-3c
basis def2-mSVP
mem_static      1024
mem_total       8000
sym_ignore      true
unrestricted true
scf_algorithm   diis
scf_max_cycles  250
solvent_method  pcm
geom_opt_tol_energy 25
geom_opt_tol_gradient 75
$end

$pcm
theory  iefpcm
$end

$solvent
dielectric      2.03
$end

$molecule
read uincoords.mol
$end

--------------------------------------------------------------
 Adding empirical dispersion correction 
 ----------------------------------------------------------------
 Doing -D3(BJ) with
 s6 =   1.00000
 s8 =   0.00000
 a1 =   0.48600
 a2 =   4.50000
 -D3 energy including 3body term =     -0.1507711077 hartrees
 ----------------------------------------------------------------
 Adding gCP correction 
 ----------------------------------------------------------------
 gCP energy =      0.2096891887 hartrees
 ----------------------------------------------------------------
             Standard Nuclear Orientation (Angstroms)
    I     Atom           X                Y                Z
 ----------------------------------------------------------------
    1      N       0.0000000000     0.0000000000     0.0000000000
    2      C       0.0000000000     0.0000000000     1.3751510000
    3      C       1.1545549438     0.0000000000    -0.7473596813
    4      C       2.4098765510    -0.0061767338    -0.1086889135
    5      C       3.5423537303    -0.0089169714    -0.9103052056
    6      H       4.5214199755    -0.0149052476    -0.4500838793
    7      C       3.4588739426    -0.0016774504    -2.2921169283
    8      H       4.3633923659    -0.0031315379    -2.8849270424
    9      C       2.2117272042     0.0100111381    -2.9140283351
   10      H       2.1377265812     0.0186548374    -3.9924307744
   11      C       1.0679343166     0.0113971836    -2.1554995674
   12      H       0.1057032868     0.0225046547    -2.6446447205
   13      C       1.2178361471     0.0037543268     2.0831422681
   14      C       1.1574945887     0.0116320675     3.4689458050
   15      H       2.0747132477     0.0145921061     4.0425187462
   16      C      -0.0497634498     0.0139047621     4.1471788299
   17      H      -0.0576997144     0.0214088952     5.2285916737
   18      C      -1.2485862710     0.0044421946     3.4364804532
   19      H      -2.1948991653     0.0035172577     3.9587739177
   20      C      -1.2303338876    -0.0032956660     2.0640806343
   21      H      -2.1614268145    -0.0100845071     1.5174782903
   22      C      -1.2600456751     0.0049280903    -0.6964025738
   23      C      -1.8092578977    -1.1956612534    -1.0971697302
   24      H      -1.3045433902    -2.1278572219    -0.8677597627
   25      C      -1.8700846820     1.2116809872    -0.9730777183
   26      H      -1.4133887451     2.1396705980    -0.6469906478
   27      C      -3.0707171540     1.2207218561    -1.6747952401
   28      C      -3.0043688982    -1.1925951634    -1.8098350370
   29      C      -3.6521409714     0.0169580104    -2.1112103378
   30      C      -3.7454692347     2.5476823846    -1.8945801712
   31      H      -4.3472770660     2.5163932410    -2.8038607317
   32      H      -2.9899565941     3.3225420146    -2.0490037702
   33      C      -3.5340551182    -2.5141687496    -2.2980946420
   34      H      -4.6168199751    -2.4632279486    -2.4201442994
   35      H      -3.3420275553    -3.2852060158    -1.5472324127
   36      C       2.5580816383    -0.0079369033     1.3920758258
   37      C      -4.6308123732     2.9285087368    -0.7101026814
   38      H      -5.4092228881     2.1824074644    -0.5505823305
   39      H      -5.1194662078     3.8877800826    -0.8823389683
   40      H      -4.0488512670     3.0089211941     0.2099363755
   41      C      -2.8896336055    -2.9225962952    -3.6211839671
   42      H      -3.1037969034    -2.1913820615    -4.4008675385
   43      H      -3.2684453291    -3.8880358274    -3.9574411444
   44      H      -1.8053295486    -3.0030187641    -3.5242930489
   45      C       3.3231601920    -1.2793276525     1.8150082900
   46      H       4.3067732304    -1.3122306752     1.3480551858
   47      H       3.4734326479    -1.3002966701     2.8938560437
   48      H       2.7806344979    -2.1798386788     1.5291277452
   49      C       3.3555353617     1.2430337180     1.8167705050
   50      H       4.3380626447     1.2523620382     1.3463431407
   51      H       3.5119143494     1.2557196582     2.8948126471
   52      H       2.8345479327     2.1580346224     1.5367718010
   53      B      -5.0097888910     0.0499768955    -2.9404711054
   54      C      -6.3528633112    -0.1879989741    -2.2465676880
   55      C      -6.3954494172    -0.5190995973    -0.8780030624
   56      H      -5.4673466730    -0.5994031518    -0.3201119310
   57      C      -7.5908410724    -0.7491557538    -0.2480433776
   58      C      -8.8202820585    -0.6435358535    -0.9651938298
   59      C      -8.8009965506    -0.3093066259    -2.2997825396
   60      H      -9.7325130640    -0.2212953747    -2.8502721619
   61      C      -7.5806004058    -0.0801636972    -2.9743767111
   62      C      -7.8884376199    -1.1248142456     1.1272523514
   63      C      -7.1362159157    -1.3790802980     2.2483364159
   64      H      -6.0547633694    -1.3118660285     2.2380609240
   65      C      -9.2907869654    -1.2359154636     1.2101181565
   66      C      -9.9725821243    -1.5935862062     2.3704690295
   67      C      -9.9038245268    -0.9527772630    -0.0302510574
   68      C     -11.2726479849    -1.0299653858    -0.1032293564
   69      H     -11.8077978409    -0.8283000704    -1.0227737176
   70      C      -7.8044810208    -1.7418710480     3.4396935202
   71      H      -7.2136642874    -1.9442402003     4.3245512025
   72      C      -9.1753865863    -1.8499728452     3.5142551628
   73      H      -9.6442640897    -2.1336240730     4.4487903899
   74      C     -11.9936306808    -1.3872706401     1.0611481557
   75      H     -13.0727937717    -1.4470073198     0.9978863614
   76      C     -11.3830103010    -1.6634693491     2.2639432931
   77      H     -11.9805089847    -1.9353098051     3.1256380299
   78      C      -4.9828814265     0.3539400163    -4.4401378844
   79      C      -3.7561635040     0.5279648945    -5.1106675319
   80      H      -2.8264919518     0.4415740508    -4.5563364911
   81      C      -3.7235711246     0.8017802731    -6.4531525476
   82      C      -4.9356731166     0.9290482294    -7.1950774922
   83      C      -6.1432038957     0.7703468662    -6.5569242618
   84      H      -7.0672138601     0.8695342743    -7.1171848466
   85      C      -6.2027000111     0.4748123436    -5.1766130544
   86      C      -2.6018782076     1.0044618925    -7.3629404667
   87      C      -1.2331441695     0.9972741799    -7.2394872476
   88      H      -0.7460638112     0.8128804941    -6.2892177216
   89      C      -3.1650359452     1.2509521585    -8.6310853310
   90      C      -2.4144348956     1.4912457845    -9.7801445090
   91      C      -4.5758871804     1.2179134951    -8.5844912670
   92      C      -5.2630337008     1.4407893088    -9.7524043764
   93      H      -6.3455077017     1.4297523723    -9.7888915599
   94      C      -0.4485401122     1.2384231998    -8.3906021769
   95      H       0.6301554762     1.2320587413    -8.2933434014
   96      C      -1.0052630673     1.4786646238    -9.6268416747
   97      H      -0.3651897416     1.6570303815   -10.4826017814
   98      C      -4.5272848885     1.6908652047   -10.9355723239
   99      H      -5.0745196612     1.8664645635   -11.8531336408
  100      C      -3.1511960439     1.7180804746   -10.9679195263
  101      H      -2.6337064887     1.9123761489   -11.8996598199
  102      B      -7.5579801370     0.2922659386    -4.4667905475
  103      C      -8.8898528074     0.5385185018    -5.2945831576
  104      C      -9.6040325495    -0.5198413301    -5.8755196794
  105      C     -10.7130870574    -0.2633390753    -6.6779943587
  106      H     -11.2504537903    -1.0839324571    -7.1417590039
  107      C     -11.1304999024     1.0363816017    -6.9047725102
  108      C     -10.4493814418     2.0889433492    -6.3162786687
  109      H     -10.7830474925     3.1054247821    -6.4959206318
  110      C      -9.3368711233     1.8524903595    -5.5164535228
  111      N     -12.2383475587     1.2969398150    -7.7608637540
  112      C     -13.5160315011     1.3735167972    -7.2228862556
  113      C     -12.0020206722     1.5068272642    -9.1138835639
  114      C     -13.0492614363     1.8238159476    -9.9851274687
  115      C     -12.7467061823     2.0289308565   -11.3288413461
  116      H     -13.5471998769     2.2805555849   -12.0141928898
  117      C     -11.4599284894     1.9280943788   -11.8283128646
  118      H     -11.2662195204     2.0957097619   -12.8793729244
  119      C     -10.4312273119     1.6093909444   -10.9552855746
  120      H      -9.4127552663     1.5207416264   -11.3119446817
  121      C     -10.6966165835     1.4012689583    -9.6160640818
  122      H      -9.8796047168     1.1545627259    -8.9529114480
  123      C     -14.6156722965     1.6847187127    -8.0308699467
  124      C     -15.8721417249     1.7482099180    -7.4357141932
  125      H     -16.7300820330     1.9908117769    -8.0509256723
  126      C     -16.0705934693     1.5162139904    -6.0858864647
  127      H     -17.0632822200     1.5756654244    -5.6602965583
  128      C     -14.9730710261     1.2082681666    -5.2965836841
  129      H     -15.0916050846     1.0209241672    -4.2369912652
  130      C     -13.7119935311     1.1373733418    -5.8556779415
  131      H     -12.8700984551     0.8954436549    -5.2222723606
  132      C      -8.6505054130     3.0294651461    -4.8708500724
  133      H      -7.5707472840     2.8665071522    -4.8372038996
  134      H      -8.8051097905     3.9211121962    -5.4841066855
  135      C      -9.1560615788    -1.9488130838    -5.6997329261
  136      H      -8.6850367799    -2.0769011645    -4.7224867758
  137      H     -10.0290582426    -2.6070346064    -5.7070108684
  138      C     -14.4869247823     1.9605580250    -9.5192609082
  139      C      -8.1831975670    -2.3929891739    -6.7898087990
  140      H      -7.2757382217    -1.7895771593    -6.7743494073
  141      H      -7.8921417134    -3.4353582342    -6.6524861976
  142      H      -8.6312671202    -2.2974895007    -7.7801128785
  143      C      -9.1616598156     3.2973285950    -3.4566730428
  144      H      -8.9805957118     2.4418400917    -2.8062670392
  145      H     -10.2340639998     3.4977074957    -3.4565681703
  146      H      -8.6583656753     4.1601503599    -3.0177664607
  147      C     -14.9642721261     3.3941807834    -9.8031015841
  148      H     -14.3491881514     4.1180515985    -9.2676022022
  149      H     -15.9996392974     3.5349222513    -9.4909609010
  150      H     -14.9077774758     3.6263368427   -10.8671844252
  151      C     -15.3559076540     0.9541243984   -10.2922059982
  152      H     -16.4053165457     1.0307548342   -10.0062456678
  153      H     -15.2997099204     1.1261393941   -11.3675275368
  154      H     -15.0278046514    -0.0675354463   -10.0980869077
 ----------------------------------------------------------------
 Nuclear Repulsion Energy = 13747.5183418791 hartrees
 There are      293 alpha and      291 beta electrons
 Requested basis set is def2-mSVP
 There are 738 shells and 1426 basis functions

 Total QAlloc Memory Limit   8000 MB
 Mega-Array Size      1001 MB
 MEM_STATIC part      1024 MB
 Discretize the solute cavity surface with Lebedev spheres
	Using 302 Lebedev grid points for each H atom
	Using 302 Lebedev grid points for other atoms
	Atomic van der Waals radii will be scaled by 1.20
 Remove points where switching function is < 1.0e-08
 Keep 15828 surface tesserae and discard 30680 interior tesserae
 Molecular Surface Area = 1138.724 Angst**2
 A cutoff of  1.0D-11 yielded  70163 shell pairs
 There are    271485 function pairs (    298568 Cartesian)
 
 -------------------------------------------------------
 OpenMP Integral Computing Module                       
 Release: version 1.0, May 2013, Q-Chem Inc. Pittsburgh 
 -------------------------------------------------------
 Integral Job Info:
 Integral job number is                      11
 Integral operator is                         1
 short-range coefficients                     0
 long-range coefficients              100000000
 Omega coefficients                           0
 if combine SR and LR in K                    0
 Integral screening is                        0
 Integral computing path is                   2
 max size of driver memory is            800000
 size of driver memory is                593474
 size of scratch memory is              1809772
 max col of scratch BK array               1296
 max len of scratch array in speh3          155
 max len of scratch index in speh4           18
 max int batch size is                      520
 min int batch size is                       52
 fixed nKL is                                52
 max L of basis functions is                  2
 order of int derivative is                   0
 number of shells is                        738
 number of basis is                        1512
 number of cartesian basis is              1512
 number of contracted shell pairs         70163
 number of primitive shell pairs         144918
 maxK2 (contraction) of shell pair           25
 max number of K2 of shell pair               1
 max number of CS2 of shell pair          17334
 max number of PS2 of shell pair          25565
 mem total for path MDJ                 1195916
 -------------------------------------------------------
 Smallest overlap matrix eigenvalue = 1.95E-04

 Scale SEOQF with 1.000000e-03/1.000000e-01/1.000000e-02

 Standard Electronic Orientation quadrupole field applied
 Nucleus-field energy     =    -0.0000001043 hartrees
 Guess from superposition of atomic densities
 Warning:  Energy on first SCF cycle will be non-variational
 SAD guess density has 584.000001 electrons

 -----------------------------------------------------------------------
  General SCF calculation program by
  Eric Jon Sundstrom, Paul Horn, Yuezhi Mao, Dmitri Zuev, Alec White,
  David Stuck, Shaama M.S., Shane Yost, Joonho Lee, David Small,
  Daniel Levine, Susi Lehtola, Hugh Burton, Evgeny Epifanovsky
 -----------------------------------------------------------------------
 Exchange:     0.4200 Hartree-Fock + 0.5800 PBEh-3c
 Correlation:  1.0000 PBEh-3c
 Using SG-1 standard quadrature grid
 Dispersion:   Grimme D3
 using 8 threads for integral computing
 -------------------------------------------------------
 OpenMP Integral computing Module                
 Release: version 2.0, May 2017, Q-Chem Inc. Pleasanton 
 -------------------------------------------------------
 -------------------------------------------------------
 OpenMP BLAS3 based DFT computing Module                
 Release: version 1.0, May 2013, Q-Chem Inc. Pittsburgh 
 -------------------------------------------------------
 A unrestricted SCF calculation will be
 performed using DIIS
 SCF converges when DIIS error is below 1.0e-08
 ---------------------------------------
  Cycle       Energy         DIIS error
 ---------------------------------------
 Using non-symmetric K matrix
    1   -3346.2774009661      1.13e-02  
    2   -3316.9280644004      8.16e-04  
    3   -3316.1993712191      1.07e-03  
    4   -3317.4288144744      4.80e-04  
    5   -3317.7105674421      9.18e-05  
    6   -3317.7177040427      7.04e-05  
    7   -3317.7233625945      2.11e-05  
    8   -3317.7239756350      9.64e-06  
    9   -3317.7242494639      5.13e-06  
   10   -3317.7243644742      3.31e-06  
   11   -3317.7244376503      1.87e-06  
   12   -3317.7244638455      1.31e-06  
   13   -3317.7244761739      8.31e-07  
   14   -3317.7244822385      5.68e-07  
   15   -3317.7244840280      2.80e-07  
   16   -3317.7244846960      1.87e-07  
   17   -3317.7244849675      1.29e-07  
   18   -3317.7244852030      8.85e-08  
   19   -3317.7244852896      5.41e-08  
   20   -3317.7244853216      2.89e-08  
   21   -3317.7244853272      1.50e-08  
   22   -3317.7244853286      9.07e-09  Convergence criterion met
 ---------------------------------------
 SCF time:   CPU 48845.94s  wall 6586.00s 
<S^2> =          2.095185576

************** Final PCM Free Energy Summary **************
 G_electrostatic  =      -0.02908238 hartree =     -18.24946725 kcal/mol
 G_cavitation     =       0.00000000 hartree =       0.00000000 kcal/mol
 G_dispersion     =       0.00000000 hartree =       0.00000000 kcal/mol
 G_repulsion      =       0.00000000 hartree =       0.00000000 kcal/mol
 --------------------------------------------------
 Non-electrostatic Free Energy =       0.00000000 hartree =       0.00000000 kcal/mol
 Total                         =      -0.02908238 hartree =     -18.24946725 kcal/mol
 --------------------------------------------------
 SCF Energy (H0 + V/2)                       =   -3317.72448533 
 Solute Internal Energy (H0)                 =   -3317.69540295 
 Total Free Energy (H0 + V/2 + non-elec)     =   -3317.72448533 hartree
                                             = -2081903.53671229 kcal/mol
***********************************************************

 SCF   energy in the final basis set =    -3317.7244853286
 Total energy in the final basis set =    -3317.7244853286
 
 --------------------------------------------------------------
 
                    Orbital Energies (a.u.)
 --------------------------------------------------------------
 
 Alpha MOs
 -- Occupied --
-14.800 -14.659 -10.559 -10.559 -10.523 -10.523 -10.523 -10.515
-10.504 -10.504 -10.504 -10.504 -10.497 -10.496 -10.494 -10.494
-10.478 -10.478 -10.470 -10.470 -10.466 -10.466 -10.464 -10.463
-10.461 -10.455 -10.445 -10.445 -10.444 -10.443 -10.443 -10.442
-10.441 -10.441 -10.441 -10.440 -10.440 -10.440 -10.440 -10.439
-10.439 -10.439 -10.439 -10.439 -10.437 -10.437 -10.434 -10.433
-10.432 -10.431 -10.430 -10.430 -10.430 -10.429 -10.429 -10.428
-10.428 -10.428 -10.427 -10.427 -10.426 -10.424 -10.424 -10.424
-10.423 -10.423 -10.423 -10.422 -10.421 -10.420 -10.420 -10.419
-10.418 -10.413 -10.413 -10.412 -10.411 -10.403 -10.400 -10.399
-10.397 -10.397 -10.396 -10.396  -6.891  -6.890  -1.183  -1.071
 -1.027  -1.023  -0.991  -0.990  -0.979  -0.967  -0.953  -0.944
 -0.933  -0.931  -0.929  -0.916  -0.912  -0.912  -0.899  -0.897
 -0.897  -0.895  -0.878  -0.874  -0.870  -0.868  -0.851  -0.847
 -0.836  -0.828  -0.827  -0.826  -0.826  -0.821  -0.819  -0.815
 -0.813  -0.803  -0.801  -0.793  -0.789  -0.787  -0.782  -0.778
 -0.775  -0.774  -0.770  -0.757  -0.737  -0.728  -0.725  -0.710
 -0.708  -0.706  -0.705  -0.704  -0.695  -0.693  -0.692  -0.685
 -0.682  -0.679  -0.673  -0.670  -0.666  -0.655  -0.655  -0.650
 -0.644  -0.638  -0.624  -0.621  -0.618  -0.618  -0.610  -0.602
 -0.601  -0.597  -0.592  -0.588  -0.582  -0.581  -0.574  -0.572
 -0.570  -0.567  -0.565  -0.560  -0.552  -0.552  -0.551  -0.549
 -0.545  -0.538  -0.536  -0.536  -0.529  -0.528  -0.522  -0.519
 -0.516  -0.515  -0.510  -0.507  -0.505  -0.504  -0.502  -0.502
 -0.497  -0.493  -0.489  -0.485  -0.483  -0.483  -0.482  -0.481
 -0.478  -0.477  -0.476  -0.474  -0.472  -0.472  -0.470  -0.470
 -0.466  -0.466  -0.465  -0.465  -0.464  -0.462  -0.462  -0.461
 -0.461  -0.459  -0.456  -0.454  -0.452  -0.450  -0.445  -0.442
 -0.440  -0.438  -0.435  -0.434  -0.432  -0.431  -0.431  -0.429
 -0.424  -0.420  -0.420  -0.415  -0.414  -0.414  -0.410  -0.409
 -0.408  -0.405  -0.402  -0.402  -0.401  -0.400  -0.392  -0.391
 -0.388  -0.387  -0.384  -0.383  -0.377  -0.377  -0.376  -0.373
 -0.373  -0.371  -0.370  -0.369  -0.367  -0.364  -0.359  -0.358
 -0.357  -0.352  -0.349  -0.348  -0.346  -0.342  -0.341  -0.336
 -0.323  -0.318  -0.309  -0.304  -0.297  -0.295  -0.291  -0.287
 -0.284  -0.279  -0.277  -0.275  -0.270  -0.260  -0.256  -0.254
 -0.243  -0.233  -0.228  -0.207  -0.138
 -- Virtual --
 -0.051  -0.047  -0.043  -0.031  -0.019  -0.013  -0.005  -0.002
  0.007   0.016   0.024   0.024   0.026   0.034   0.037   0.041
  0.053   0.063   0.074   0.090   0.091   0.105   0.109   0.109
  0.111   0.113   0.125   0.131   0.135   0.138   0.138   0.139
  0.141   0.144   0.150   0.156   0.157   0.161   0.163   0.165
  0.166   0.170   0.171   0.174   0.177   0.180   0.181   0.182
  0.184   0.185   0.186   0.189   0.190   0.192   0.195   0.196
  0.200   0.201   0.204   0.205   0.206   0.206   0.207   0.209
  0.211   0.212   0.213   0.214   0.214   0.217   0.219   0.221
  0.222   0.222   0.223   0.224   0.225   0.227   0.228   0.231
  0.231   0.234   0.234   0.235   0.235   0.237   0.241   0.242
  0.243   0.245   0.246   0.247   0.248   0.250   0.251   0.252
  0.254   0.256   0.257   0.259   0.260   0.261   0.264   0.264
  0.264   0.266   0.268   0.269   0.272   0.272   0.275   0.278
  0.279   0.282   0.283   0.285   0.287   0.290   0.291   0.293
  0.294   0.298   0.299   0.300   0.302   0.302   0.304   0.305
  0.308   0.311   0.312   0.314   0.319   0.321   0.322   0.324
  0.325   0.327   0.330   0.331   0.333   0.336   0.337   0.338
  0.342   0.344   0.346   0.352   0.356   0.358   0.364   0.366
  0.369   0.374   0.376   0.380   0.385   0.386   0.389   0.391
  0.394   0.396   0.402   0.403   0.406   0.410   0.417   0.421
  0.423   0.430   0.434   0.438   0.439   0.445   0.449   0.451
  0.455   0.457   0.457   0.459   0.461   0.463   0.463   0.467
  0.476   0.478   0.479   0.480   0.484   0.489   0.491   0.492
  0.495   0.495   0.499   0.503   0.506   0.508   0.511   0.511
  0.512   0.514   0.515   0.517   0.518   0.519   0.523   0.524
  0.526   0.526   0.528   0.531   0.535   0.537   0.542   0.544
  0.545   0.546   0.547   0.550   0.553   0.554   0.556   0.557
  0.557   0.559   0.560   0.562   0.563   0.564   0.566   0.569
  0.570   0.571   0.572   0.572   0.574   0.577   0.577   0.578
  0.579   0.579   0.580   0.580   0.583   0.584   0.584   0.587
  0.590   0.592   0.592   0.601   0.602   0.604   0.604   0.605
  0.606   0.608   0.608   0.610   0.610   0.611   0.611   0.614
  0.614   0.618   0.620   0.622   0.622   0.623   0.623   0.624
  0.627   0.629   0.631   0.634   0.637   0.639   0.640   0.640
  0.641   0.642   0.644   0.645   0.646   0.647   0.648   0.649
  0.651   0.651   0.655   0.656   0.658   0.660   0.661   0.664
  0.665   0.671   0.672   0.672   0.677   0.677   0.678   0.683
  0.685   0.686   0.687   0.688   0.689   0.690   0.692   0.694
  0.699   0.706   0.709   0.710   0.711   0.713   0.715   0.718
  0.721   0.722   0.724   0.726   0.728   0.728   0.734   0.735
  0.737   0.739   0.746   0.747   0.750   0.752   0.754   0.756
  0.759   0.761   0.762   0.765   0.769   0.770   0.773   0.774
  0.775   0.778   0.780   0.781   0.784   0.788   0.789   0.792
  0.794   0.795   0.798   0.799   0.801   0.804   0.806   0.811
  0.813   0.813   0.815   0.822   0.825   0.825   0.828   0.829
  0.831   0.834   0.838   0.841   0.844   0.845   0.850   0.856
  0.860   0.865   0.868   0.869   0.875   0.876   0.878   0.883
  0.884   0.889   0.898   0.900   0.903   0.908   0.909   0.910
  0.914   0.918   0.920   0.922   0.924   0.927   0.929   0.933
  0.934   0.936   0.938   0.939   0.944   0.950   0.953   0.958
  0.959   0.962   0.964   0.966   0.968   0.968   0.972   0.973
  0.976   0.979   0.983   0.984   0.988   0.990   0.993   0.995
  0.998   1.000   1.001   1.002   1.004   1.005   1.005   1.008
  1.008   1.009   1.014   1.015   1.017   1.018   1.019   1.020
  1.021   1.023   1.027   1.030   1.032   1.037   1.038   1.040
  1.044   1.045   1.047   1.048   1.051   1.052   1.053   1.056
  1.058   1.059   1.060   1.062   1.063   1.065   1.065   1.067
  1.069   1.069   1.071   1.073   1.076   1.078   1.081   1.082
  1.084   1.087   1.089   1.090   1.092   1.094   1.096   1.099
  1.100   1.103   1.106   1.107   1.110   1.114   1.114   1.116
  1.118   1.121   1.124   1.124   1.126   1.127   1.133   1.141
  1.143   1.143   1.146   1.148   1.149   1.154   1.157   1.161
  1.164   1.165   1.166   1.170   1.173   1.176   1.178   1.181
  1.184   1.186   1.191   1.193   1.193   1.195   1.200   1.205
  1.211   1.212   1.215   1.222   1.230   1.234   1.236   1.237
  1.240   1.242   1.248   1.253   1.254   1.258   1.266   1.269
  1.269   1.273   1.275   1.280   1.281   1.286   1.287   1.293
  1.296   1.299   1.303   1.303   1.308   1.308   1.315   1.316
  1.319   1.320   1.320   1.325   1.326   1.329   1.331   1.334
  1.337   1.343   1.347   1.349   1.351   1.351   1.354   1.355
  1.361   1.365   1.368   1.371   1.379   1.384   1.387   1.390
  1.391   1.394   1.401   1.402   1.404   1.406   1.408   1.409
  1.414   1.417   1.419   1.423   1.429   1.430   1.431   1.437
  1.439   1.445   1.447   1.448   1.449   1.460   1.461   1.461
  1.464   1.467   1.469   1.476   1.478   1.480   1.483   1.484
  1.495   1.498   1.504   1.504   1.508   1.513   1.515   1.517
  1.520   1.523   1.526   1.531   1.532   1.535   1.537   1.537
  1.544   1.546   1.549   1.552   1.552   1.554   1.559   1.560
  1.563   1.565   1.569   1.570   1.574   1.576   1.578   1.582
  1.583   1.588   1.589   1.593   1.594   1.597   1.603   1.607
  1.609   1.610   1.616   1.619   1.622   1.630   1.635   1.637
  1.644   1.647   1.652   1.655   1.663   1.665   1.674   1.677
  1.680   1.682   1.689   1.692   1.699   1.708   1.714   1.718
  1.723   1.726   1.740   1.744   1.747   1.754   1.763   1.766
  1.771   1.773   1.774   1.777   1.781   1.783   1.791   1.794
  1.795   1.803   1.813   1.816   1.816   1.820   1.825   1.830
  1.832   1.833   1.833   1.835   1.840   1.842   1.844   1.845
  1.847   1.847   1.852   1.861   1.864   1.870   1.871   1.871
  1.879   1.888   1.891   1.893   1.896   1.902   1.909   1.915
  1.922   1.925   1.928   1.931   1.933   1.934   1.937   1.939
  1.941   1.941   1.946   1.950   1.952   1.955   1.957   1.960
  1.964   1.965   1.967   1.970   1.983   1.990   1.994   1.995
  2.000   2.001   2.003   2.003   2.005   2.011   2.014   2.015
  2.017   2.019   2.024   2.032   2.048   2.051   2.053   2.055
  2.059   2.061   2.064   2.066   2.074   2.077   2.081   2.082
  2.084   2.086   2.088   2.090   2.090   2.094   2.100   2.109
  2.110   2.111   2.114   2.122   2.125   2.128   2.129   2.129
  2.131   2.133   2.144   2.147   2.150   2.151   2.154   2.156
  2.157   2.159   2.161   2.167   2.178   2.180   2.182   2.185
  2.188   2.194   2.195   2.200   2.205   2.207   2.214   2.216
  2.217   2.222   2.223   2.225   2.226   2.228   2.231   2.233
  2.235   2.237   2.250   2.251   2.255   2.260   2.265   2.268
  2.270   2.273   2.276   2.283   2.284   2.286   2.290   2.294
  2.295   2.296   2.297   2.299   2.299   2.301   2.303   2.306
  2.310   2.312   2.317   2.323   2.325   2.326   2.328   2.333
  2.335   2.339   2.340   2.341   2.342   2.351   2.351   2.355
  2.357   2.359   2.361   2.361   2.367   2.369   2.369   2.370
  2.373   2.378   2.379   2.380   2.381   2.384   2.384   2.389
  2.398   2.400   2.402   2.406   2.410   2.411   2.412   2.418
  2.425   2.427   2.430   2.431   2.433   2.433   2.434   2.440
  2.444   2.452   2.453   2.456   2.458   2.461   2.466   2.475
  2.482   2.490   2.491   2.493   2.496   2.502   2.508   2.510
  2.513   2.522   2.524   2.525   2.529   2.536   2.542   2.544
  2.549   2.554   2.557   2.566   2.569   2.578   2.587   2.595
  2.603   2.609   2.622   2.623   2.628   2.634   2.639   2.641
  2.646   2.655   2.663   2.665   2.666   2.666   2.671   2.684
  2.695   2.698   2.702   2.704   2.707   2.710   2.714   2.717
  2.719   2.724   2.732   2.734   2.735   2.739   2.743   2.744
  2.748   2.750   2.751   2.754   2.758   2.763   2.768   2.774
  2.775   2.780   2.785   2.788   2.802   2.803   2.804   2.805
  2.808   2.810   2.811   2.811   2.811   2.816   2.817   2.824
  2.829   2.830   2.830   2.832   2.834   2.834   2.845   2.846
  2.857   2.865   2.868   2.873   2.887   2.891   2.893   2.896
  2.900   2.905   2.910   2.913   2.918   2.930   2.933   2.942
  2.951   2.953   2.967   2.970   2.980   2.984   2.985   2.989
  2.990   3.003   3.020   3.025   3.027   3.030   3.040   3.044
  3.062   3.079   3.093   3.095   3.101   3.105   3.138   3.141
  3.159   3.210   3.218   3.255   3.270   3.280   3.283   3.353
  3.424   3.430   3.459   3.470   3.482   3.503   3.510   3.511
  3.519   3.529   3.543   3.584   3.595   3.687   3.700   9.646
  9.803  13.167  13.189  13.200  13.263  13.281  13.352  13.475
 13.524  13.532  13.545  13.567  13.575  13.592  13.650  13.661
 13.669  13.679  13.699  13.715  13.724  13.754  13.756  13.777
 13.790  13.796  13.814  13.822  13.826  13.828  13.850  13.864
 13.882  13.885  13.895  13.915  13.943  13.949  14.030  14.034
 14.042  14.047  14.058  14.059  14.064  14.068  14.070  14.106
 14.124  14.153  14.176  14.182  14.183  14.185  14.188  14.197
 14.201  14.230  14.235  14.236  14.247  14.257  14.273  14.294
 14.305  14.310  14.326  14.338  14.343  14.368  14.370  14.521
 14.530  14.535  14.537  14.584  14.597  14.598  14.600  14.603
 14.605  14.619  14.641  19.527  19.663
 
 Beta MOs
 -- Occupied --
-14.788 -14.659 -10.561 -10.561 -10.523 -10.520 -10.520 -10.515
-10.501 -10.501 -10.500 -10.500 -10.499 -10.498 -10.496 -10.495
-10.478 -10.478 -10.469 -10.469 -10.466 -10.465 -10.463 -10.463
-10.461 -10.455 -10.446 -10.446 -10.444 -10.443 -10.443 -10.442
-10.441 -10.441 -10.440 -10.440 -10.440 -10.440 -10.440 -10.440
-10.438 -10.438 -10.438 -10.438 -10.437 -10.437 -10.434 -10.433
-10.432 -10.431 -10.430 -10.430 -10.430 -10.429 -10.429 -10.427
-10.427 -10.427 -10.427 -10.427 -10.426 -10.424 -10.424 -10.424
-10.423 -10.423 -10.423 -10.423 -10.422 -10.420 -10.420 -10.419
-10.418 -10.413 -10.413 -10.412 -10.411 -10.403 -10.400 -10.399
-10.397 -10.396 -10.395 -10.395  -6.889  -6.887  -1.164  -1.071
 -1.021  -1.019  -0.990  -0.990  -0.977  -0.964  -0.953  -0.944
 -0.932  -0.930  -0.929  -0.913  -0.911  -0.911  -0.898  -0.895
 -0.895  -0.894  -0.877  -0.871  -0.870  -0.868  -0.847  -0.845
 -0.836  -0.827  -0.826  -0.825  -0.825  -0.821  -0.816  -0.814
 -0.811  -0.802  -0.801  -0.790  -0.788  -0.786  -0.782  -0.774
 -0.773  -0.772  -0.770  -0.757  -0.735  -0.726  -0.723  -0.709
 -0.707  -0.705  -0.703  -0.703  -0.694  -0.693  -0.692  -0.685
 -0.680  -0.677  -0.670  -0.670  -0.665  -0.655  -0.655  -0.647
 -0.640  -0.636  -0.623  -0.619  -0.618  -0.618  -0.610  -0.602
 -0.601  -0.593  -0.586  -0.581  -0.581  -0.575  -0.573  -0.571
 -0.568  -0.567  -0.564  -0.560  -0.551  -0.551  -0.550  -0.543
 -0.540  -0.536  -0.535  -0.535  -0.528  -0.527  -0.522  -0.518
 -0.516  -0.510  -0.507  -0.504  -0.504  -0.501  -0.500  -0.496
 -0.495  -0.492  -0.488  -0.485  -0.483  -0.482  -0.481  -0.481
 -0.477  -0.476  -0.474  -0.473  -0.472  -0.471  -0.469  -0.466
 -0.466  -0.465  -0.464  -0.464  -0.462  -0.462  -0.460  -0.460
 -0.460  -0.458  -0.456  -0.454  -0.452  -0.444  -0.442  -0.441
 -0.440  -0.436  -0.434  -0.432  -0.430  -0.429  -0.429  -0.424
 -0.420  -0.418  -0.416  -0.414  -0.414  -0.414  -0.410  -0.408
 -0.407  -0.404  -0.402  -0.400  -0.399  -0.398  -0.392  -0.391
 -0.387  -0.386  -0.384  -0.382  -0.377  -0.374  -0.374  -0.373
 -0.373  -0.371  -0.370  -0.369  -0.366  -0.363  -0.358  -0.357
 -0.352  -0.346  -0.345  -0.344  -0.336  -0.336  -0.336  -0.334
 -0.322  -0.317  -0.308  -0.294  -0.291  -0.287  -0.286  -0.284
 -0.275  -0.275  -0.275  -0.270  -0.256  -0.254  -0.248  -0.236
 -0.230  -0.221  -0.207
 -- Virtual --
 -0.176  -0.056  -0.040  -0.034  -0.034  -0.024  -0.006  -0.003
  0.001   0.009   0.018   0.018   0.024   0.026   0.026   0.034
  0.037   0.042   0.053   0.074   0.075   0.092   0.097   0.106
  0.110   0.114   0.117   0.121   0.127   0.132   0.138   0.141
  0.142   0.146   0.147   0.147   0.150   0.156   0.159   0.161
  0.163   0.166   0.167   0.171   0.172   0.175   0.178   0.181
  0.182   0.184   0.185   0.186   0.188   0.190   0.192   0.196
  0.196   0.199   0.201   0.202   0.204   0.205   0.206   0.207
  0.207   0.210   0.211   0.213   0.213   0.214   0.215   0.218
  0.219   0.221   0.222   0.223   0.224   0.226   0.227   0.228
  0.229   0.232   0.232   0.234   0.234   0.235   0.236   0.237
  0.242   0.243   0.244   0.246   0.247   0.247   0.249   0.251
  0.252   0.252   0.255   0.256   0.258   0.260   0.262   0.264
  0.265   0.265   0.266   0.267   0.269   0.272   0.273   0.273
  0.276   0.278   0.282   0.282   0.284   0.286   0.288   0.291
  0.292   0.294   0.295   0.299   0.300   0.301   0.302   0.303
  0.304   0.306   0.308   0.312   0.314   0.316   0.320   0.321
  0.322   0.325   0.325   0.327   0.330   0.331   0.334   0.337
  0.339   0.341   0.343   0.345   0.347   0.352   0.357   0.361
  0.365   0.368   0.370   0.375   0.377   0.384   0.387   0.388
  0.390   0.393   0.395   0.398   0.403   0.405   0.409   0.410
  0.419   0.423   0.426   0.431   0.436   0.438   0.441   0.446
  0.451   0.453   0.457   0.457   0.459   0.459   0.462   0.464
  0.465   0.468   0.478   0.479   0.480   0.481   0.486   0.491
  0.493   0.493   0.495   0.497   0.501   0.505   0.508   0.509
  0.512   0.513   0.515   0.516   0.517   0.519   0.520   0.521
  0.524   0.525   0.527   0.529   0.531   0.531   0.536   0.538
  0.544   0.546   0.546   0.547   0.548   0.551   0.555   0.555
  0.558   0.559   0.559   0.560   0.562   0.563   0.565   0.567
  0.567   0.568   0.570   0.572   0.573   0.574   0.577   0.577
  0.578   0.579   0.580   0.580   0.581   0.583   0.584   0.585
  0.585   0.588   0.593   0.594   0.596   0.602   0.605   0.606
  0.606   0.607   0.608   0.610   0.610   0.610   0.611   0.613
  0.613   0.614   0.615   0.620   0.622   0.623   0.623   0.624
  0.624   0.625   0.628   0.629   0.631   0.635   0.638   0.639
  0.640   0.641   0.642   0.643   0.644   0.646   0.646   0.647
  0.649   0.650   0.652   0.652   0.656   0.658   0.659   0.661
  0.662   0.665   0.665   0.671   0.673   0.674   0.677   0.678
  0.679   0.683   0.686   0.687   0.688   0.690   0.691   0.692
  0.693   0.695   0.699   0.707   0.710   0.711   0.712   0.715
  0.717   0.720   0.721   0.723   0.725   0.726   0.728   0.729
  0.735   0.736   0.738   0.739   0.747   0.748   0.751   0.753
  0.755   0.757   0.761   0.762   0.762   0.767   0.770   0.771
  0.774   0.775   0.776   0.779   0.782   0.783   0.786   0.789
  0.790   0.793   0.795   0.796   0.798   0.800   0.802   0.805
  0.808   0.812   0.813   0.814   0.816   0.823   0.825   0.826
  0.829   0.830   0.834   0.835   0.839   0.842   0.844   0.846
  0.851   0.856   0.861   0.865   0.868   0.870   0.876   0.877
  0.879   0.884   0.885   0.889   0.899   0.900   0.905   0.908
  0.910   0.911   0.915   0.919   0.920   0.924   0.925   0.928
  0.930   0.934   0.935   0.938   0.940   0.941   0.944   0.951
  0.953   0.959   0.960   0.962   0.965   0.967   0.968   0.968
  0.972   0.974   0.977   0.980   0.983   0.985   0.988   0.991
  0.994   0.996   1.000   1.002   1.003   1.004   1.005   1.006
  1.007   1.008   1.009   1.010   1.015   1.015   1.017   1.019
  1.020   1.021   1.022   1.023   1.028   1.031   1.036   1.038
  1.039   1.041   1.045   1.045   1.048   1.048   1.052   1.052
  1.054   1.057   1.059   1.059   1.061   1.062   1.063   1.065
  1.065   1.068   1.069   1.070   1.072   1.074   1.076   1.078
  1.081   1.083   1.085   1.088   1.090   1.091   1.092   1.094
  1.096   1.099   1.100   1.104   1.107   1.108   1.110   1.115
  1.115   1.119   1.122   1.124   1.124   1.126   1.127   1.130
  1.134   1.141   1.144   1.144   1.147   1.149   1.150   1.155
  1.157   1.162   1.165   1.165   1.167   1.171   1.174   1.176
  1.178   1.181   1.184   1.187   1.192   1.194   1.194   1.196
  1.201   1.207   1.212   1.214   1.216   1.224   1.231   1.235
  1.238   1.241   1.243   1.245   1.248   1.255   1.259   1.259
  1.266   1.270   1.271   1.273   1.276   1.282   1.282   1.287
  1.289   1.294   1.297   1.300   1.303   1.304   1.308   1.309
  1.316   1.317   1.320   1.321   1.321   1.326   1.326   1.330
  1.331   1.335   1.338   1.344   1.349   1.351   1.352   1.354
  1.355   1.356   1.362   1.366   1.368   1.372   1.381   1.385
  1.388   1.391   1.393   1.396   1.402   1.404   1.405   1.409
  1.411   1.411   1.417   1.418   1.420   1.424   1.429   1.430
  1.431   1.438   1.442   1.446   1.449   1.449   1.452   1.460
  1.462   1.463   1.465   1.468   1.469   1.477   1.480   1.480
  1.485   1.489   1.496   1.502   1.506   1.506   1.510   1.513
  1.517   1.519   1.520   1.526   1.527   1.532   1.532   1.535
  1.538   1.539   1.545   1.547   1.550   1.553   1.553   1.555
  1.560   1.561   1.563   1.566   1.570   1.571   1.574   1.578
  1.579   1.583   1.585   1.588   1.589   1.594   1.594   1.597
  1.604   1.608   1.610   1.612   1.617   1.620   1.622   1.631
  1.636   1.638   1.645   1.648   1.653   1.658   1.665   1.666
  1.675   1.678   1.681   1.684   1.692   1.697   1.701   1.713
  1.718   1.723   1.723   1.730   1.740   1.747   1.748   1.754
  1.763   1.767   1.772   1.774   1.774   1.778   1.782   1.784
  1.792   1.794   1.795   1.804   1.815   1.817   1.818   1.821
  1.826   1.830   1.833   1.834   1.835   1.836   1.841   1.844
  1.845   1.846   1.847   1.849   1.856   1.862   1.866   1.871
  1.872   1.873   1.889   1.890   1.893   1.894   1.897   1.904
  1.912   1.915   1.923   1.925   1.929   1.931   1.933   1.935
  1.939   1.941   1.941   1.943   1.946   1.952   1.955   1.957
  1.960   1.963   1.965   1.965   1.972   1.974   1.983   1.992
  1.996   1.996   2.000   2.002   2.003   2.004   2.006   2.011
  2.016   2.017   2.018   2.021   2.024   2.033   2.048   2.052
  2.053   2.056   2.062   2.063   2.065   2.069   2.076   2.078
  2.083   2.085   2.086   2.086   2.089   2.090   2.091   2.095
  2.100   2.109   2.110   2.111   2.115   2.122   2.126   2.129
  2.131   2.131   2.132   2.134   2.146   2.147   2.151   2.152
  2.157   2.159   2.159   2.161   2.162   2.169   2.179   2.181
  2.183   2.187   2.189   2.194   2.197   2.200   2.208   2.209
  2.214   2.219   2.220   2.222   2.223   2.227   2.229   2.229
  2.233   2.234   2.237   2.241   2.251   2.252   2.257   2.262
  2.267   2.269   2.271   2.273   2.277   2.284   2.285   2.287
  2.294   2.295   2.296   2.298   2.299   2.301   2.302   2.302
  2.307   2.308   2.312   2.314   2.319   2.324   2.326   2.328
  2.329   2.334   2.335   2.339   2.341   2.342   2.344   2.351
  2.352   2.356   2.358   2.361   2.362   2.364   2.369   2.369
  2.370   2.371   2.376   2.378   2.380   2.381   2.382   2.384
  2.387   2.391   2.399   2.400   2.406   2.408   2.411   2.412
  2.413   2.418   2.426   2.429   2.431   2.432   2.433   2.433
  2.436   2.441   2.445   2.453   2.454   2.458   2.460   2.463
  2.469   2.475   2.485   2.491   2.493   2.498   2.499   2.503
  2.510   2.512   2.513   2.523   2.524   2.526   2.530   2.536
  2.543   2.546   2.550   2.555   2.558   2.568   2.572   2.579
  2.589   2.595   2.608   2.609   2.623   2.624   2.628   2.636
  2.641   2.643   2.649   2.657   2.664   2.666   2.667   2.668
  2.673   2.684   2.696   2.698   2.703   2.704   2.708   2.711
  2.715   2.719   2.720   2.726   2.733   2.735   2.735   2.739
  2.744   2.746   2.749   2.751   2.752   2.755   2.759   2.764
  2.771   2.774   2.775   2.780   2.785   2.789   2.803   2.803
  2.805   2.806   2.809   2.810   2.811   2.812   2.813   2.817
  2.818   2.824   2.829   2.830   2.830   2.832   2.835   2.836
  2.845   2.847   2.858   2.867   2.869   2.874   2.888   2.892
  2.893   2.896   2.901   2.907   2.912   2.915   2.919   2.930
  2.934   2.944   2.952   2.954   2.967   2.970   2.980   2.984
  2.985   2.992   2.993   3.004   3.021   3.025   3.027   3.030
  3.042   3.045   3.063   3.080   3.095   3.097   3.101   3.106
  3.138   3.143   3.161   3.212   3.218   3.256   3.271   3.280
  3.283   3.355   3.424   3.430   3.460   3.471   3.483   3.504
  3.510   3.511   3.520   3.530   3.544   3.584   3.595   3.688
  3.701   9.650   9.808  13.167  13.191  13.201  13.263  13.282
 13.352  13.475  13.525  13.532  13.545  13.567  13.576  13.593
 13.652  13.661  13.669  13.680  13.699  13.718  13.724  13.754
 13.756  13.777  13.790  13.796  13.814  13.823  13.826  13.828
 13.850  13.864  13.882  13.886  13.895  13.915  13.944  13.949
 14.031  14.035  14.042  14.047  14.058  14.060  14.064  14.069
 14.071  14.107  14.125  14.153  14.176  14.182  14.183  14.185
 14.188  14.197  14.201  14.229  14.235  14.236  14.247  14.257
 14.273  14.294  14.305  14.310  14.326  14.338  14.343  14.369
 14.370  14.522  14.531  14.535  14.538  14.585  14.597  14.599
 14.600  14.603  14.605  14.619  14.641  19.542  19.663
 --------------------------------------------------------------
 
          Ground-State Mulliken Net Atomic Charges

     Atom                 Charge (a.u.)    Spin (a.u.)
  --------------------------------------------------------
      1 N                    -0.603162       0.449416
      2 C                     0.295665      -0.102858
      3 C                     0.291686      -0.102810
      4 C                     0.191986       0.232635
      5 C                    -0.300579      -0.151410
      6 H                     0.252965       0.007167
      7 C                    -0.198982       0.251984
      8 H                     0.267648      -0.013530
      9 C                    -0.238626      -0.132623
     10 H                     0.270499       0.006029
     11 C                    -0.260475       0.184036
     12 H                     0.314206      -0.009919
     13 C                     0.191321       0.232173
     14 C                    -0.300225      -0.151225
     15 H                     0.252711       0.007167
     16 C                    -0.199491       0.251972
     17 H                     0.267643      -0.013541
     18 C                    -0.239046      -0.132978
     19 H                     0.271527       0.006040
     20 C                    -0.264315       0.184376
     21 H                     0.313590      -0.009923
     22 C                     0.123910      -0.029681
     23 C                    -0.286670       0.015370
     24 H                     0.237620      -0.000337
     25 C                    -0.289645       0.015451
     26 H                     0.237637      -0.000348
     27 C                     0.034093       0.002008
     28 C                     0.038740       0.001913
     29 C                    -0.161205      -0.022607
     30 C                    -0.546889       0.005211
     31 H                     0.286195      -0.002553
     32 H                     0.225695       0.000490
     33 C                    -0.543013       0.004694
     34 H                     0.282466      -0.001956
     35 H                     0.225149       0.000451
     36 C                    -0.241486      -0.038840
     37 C                    -0.653067      -0.000357
     38 H                     0.259055      -0.000315
     39 H                     0.229512       0.000049
     40 H                     0.199099      -0.000088
     41 C                    -0.653756      -0.000348
     42 H                     0.256867      -0.000273
     43 H                     0.230686       0.000053
     44 H                     0.198756      -0.000080
     45 C                    -0.604493       0.022651
     46 H                     0.242625       0.000287
     47 H                     0.242335       0.000277
     48 H                     0.248987      -0.000845
     49 C                    -0.605252       0.022112
     50 H                     0.242357       0.000192
     51 H                     0.242109       0.000239
     52 H                     0.249720      -0.000798
     53 B                     0.512390       0.336792
     54 C                    -0.126989       0.017494
     55 C                    -0.402250      -0.026513
     56 H                     0.193828       0.000462
     57 C                     0.069919       0.049634
     58 C                     0.089953       0.084938
     59 C                    -0.410130      -0.053278
     60 H                     0.219225       0.001971
     61 C                    -0.139182       0.055957
     62 C                     0.187988      -0.047051
     63 C                    -0.396125       0.075007
     64 H                     0.204205      -0.004498
     65 C                    -0.077464       0.024108
     66 C                     0.239265      -0.039430
     67 C                     0.188249      -0.055365
     68 C                    -0.403579       0.084751
     69 H                     0.224548      -0.004995
     70 C                    -0.215965      -0.048880
     71 H                     0.220386       0.002428
     72 C                    -0.352720       0.070811
     73 H                     0.221398      -0.004194
     74 C                    -0.212914      -0.053167
     75 H                     0.228556       0.002597
     76 C                    -0.357220       0.078004
     77 H                     0.221888      -0.004645
     78 C                    -0.131476       0.015748
     79 C                    -0.400379      -0.024858
     80 H                     0.191923       0.000382
     81 C                     0.069606       0.047102
     82 C                     0.090669       0.085537
     83 C                    -0.405129      -0.054058
     84 H                     0.223126       0.002018
     85 C                    -0.142001       0.057091
     86 C                     0.188825      -0.045773
     87 C                    -0.395919       0.073270
     88 H                     0.200083      -0.004413
     89 C                    -0.078256       0.023779
     90 C                     0.238427      -0.038859
     91 C                     0.189135      -0.054961
     92 C                    -0.403120       0.084098
     93 H                     0.223514      -0.004972
     94 C                    -0.214613      -0.047854
     95 H                     0.219113       0.002382
     96 C                    -0.352348       0.069103
     97 H                     0.221708      -0.004088
     98 C                    -0.212592      -0.052587
     99 H                     0.228238       0.002568
    100 C                    -0.356725       0.077285
    101 H                     0.222062      -0.004603
    102 B                     0.538973       0.286883
    103 C                    -0.181480      -0.027131
    104 C                     0.048109       0.004270
    105 C                    -0.303713      -0.001682
    106 H                     0.224336       0.000408
    107 C                     0.184901       0.002024
    108 C                    -0.304475      -0.001754
    109 H                     0.223269       0.000391
    110 C                     0.045405       0.004679
    111 N                    -0.720385      -0.000116
    112 C                     0.314225       0.000035
    113 C                     0.310955       0.000035
    114 C                     0.137191       0.000001
    115 C                    -0.302567      -0.000002
    116 H                     0.214961       0.000001
    117 C                    -0.243988      -0.000001
    118 H                     0.217935       0.000000
    119 C                    -0.243422      -0.000007
    120 H                     0.222577       0.000003
    121 C                    -0.315458       0.000010
    122 H                     0.264117      -0.000008
    123 C                     0.133952      -0.000000
    124 C                    -0.301828      -0.000002
    125 H                     0.214877       0.000001
    126 C                    -0.244804      -0.000000
    127 H                     0.217983       0.000000
    128 C                    -0.243604      -0.000004
    129 H                     0.224598       0.000000
    130 C                    -0.317657       0.000011
    131 H                     0.262859      -0.000009
    132 C                    -0.543708       0.003005
    133 H                     0.261225      -0.002206
    134 H                     0.225041       0.000432
    135 C                    -0.541440       0.002505
    136 H                     0.257734      -0.001674
    137 H                     0.224217       0.000422
    138 C                    -0.202629       0.000000
    139 C                    -0.654782      -0.000013
    140 H                     0.251600      -0.000370
    141 H                     0.214504      -0.000009
    142 H                     0.211809      -0.000075
    143 C                    -0.653646      -0.000009
    144 H                     0.252978      -0.000425
    145 H                     0.212493      -0.000093
    146 H                     0.211673      -0.000002
    147 C                    -0.606139       0.000000
    148 H                     0.235183       0.000000
    149 H                     0.218242      -0.000000
    150 H                     0.218042       0.000000
    151 C                    -0.608590      -0.000000
    152 H                     0.218301       0.000000
    153 H                     0.218493       0.000000
    154 H                     0.235740      -0.000000
  --------------------------------------------------------
  Sum of atomic charges =    -0.000000
  Sum of spin   charges =     2.000000

 -----------------------------------------------------------------
                    Cartesian Multipole Moments
 -----------------------------------------------------------------
    Charge (ESU x 10^10)
                -0.0000
    Dipole Moment (Debye)
         X      30.1159      Y      -1.1215      Z      17.9621
       Tot      35.0836
    Quadrupole Moments (Debye-Ang)
        XX    -661.5319     XY       7.3404     YY    -513.7476
        XZ    -107.9378     YZ       5.6538     ZZ    -550.2952
    Octopole Moments (Debye-Ang^2)
       XXX   10852.9696    XXY    -259.6960    XYY    3197.1659
       YYY    -636.6196    XXZ    2731.6324    XYZ     -18.2219
       YYZ    1985.7416    XZZ    3685.9284    YZZ    -216.5216
       ZZZ    6234.5670
    Hexadecapole Moments (Debye-Ang^3)
      XXXX -210099.0399   XXXY    6481.3763   XXYY  -36013.9194
      XYYY    6328.5610   YYYY   -7377.3162   XXXZ  -57941.9299
      XXYZ    2126.1382   XYYZ  -17370.0625   YYYZ    8015.8690
      XXZZ  -54067.2469   XYZZ    2026.0088   YYZZ  -19029.2726
      XZZZ  -53664.6275   YZZZ    6452.0753   ZZZZ -101042.8714
 -----------------------------------------------------------------
 Calculating analytic gradient of the SCF energy
 -1.456527053073866E-003 -1.456530356258650E-003
 -1.456528840512274E-003 -1.456528651255289E-003
 -1.456525194648059E-003 -1.456532186128804E-003
 -1.456483283444494E-003 -1.456574116892675E-003
 -1.456527190886114E-003 -1.456530315237976E-003
 -1.456517826449948E-003 -1.456539573626348E-003
 -1.456493644226407E-003 -1.456563755897370E-003
 -1.456531153032280E-003 -1.456526353349044E-003
 -1.456498435528184E-003 -1.456558962956071E-003
 -1.456560103182021E-003 -1.456497320324400E-003
 -1.456529123125140E-003 -1.456528363082826E-003
 -1.456538897650371E-003 -1.456518487601413E-003
 -1.456507948031059E-003 -1.456549434415907E-003
 -1.456529085150888E-003 -1.456528404651094E-003
 -1.456515962507837E-003 -1.456541431135112E-003
 -1.456543343602487E-003 -1.456514030064198E-003
 -1.456528432609432E-003 -1.456529017388114E-003
 -1.456545831602886E-003 -1.456511581693000E-003
 -1.456539054009016E-003 -1.456518372573950E-003
 -1.456528365388769E-003 -1.456529129413584E-003
 -1.456557068713204E-003 -1.456500307328567E-003
 -1.456524905484329E-003 -1.456532524379287E-003
 -1.456528134205187E-003 -1.456529303719742E-003
 -1.456526541703579E-003 -1.456530838212686E-003
 -1.456499730866064E-003 -1.456557666669892E-003
 -1.456528013724922E-003 -1.456529486575934E-003
 -1.456505818536421E-003 -1.456551571952950E-003
 -1.456519822431319E-003 -1.456537560741288E-003
 -1.456523531210482E-003 -1.456533901090388E-003
 -1.456537306744512E-003 -1.456520106935092E-003
 -1.456519180047122E-003 -1.456538215887032E-003
 -1.456531303138541E-003 -1.456526211741146E-003
 -1.456537765720958E-003 -1.456519609886472E-003
 -1.456507100447031E-003 -1.456550296004560E-003
 -1.456527573528240E-003 -1.456529902708842E-003
 -1.456521049320391E-003 -1.456536350577287E-003
 -1.456558033001767E-003 -1.456499379254910E-003
 -1.456528879373263E-003 -1.456528606805498E-003
 -1.456546253877818E-003 -1.456511143332782E-003
 -1.456505426206144E-003 -1.456551951472500E-003
 -1.456529039815059E-003 -1.456528444896438E-003
 -1.456523608419487E-003 -1.456533785854734E-003
 -1.456550417941913E-003 -1.456506951331934E-003
 -1.456529163108381E-003 -1.456528283715269E-003
 -1.456530163416554E-003 -1.456527250167742E-003
 -1.456560343560693E-003 -1.456497075680621E-003
 -1.456529426398009E-003 -1.456528064969514E-003
 -1.456519524413293E-003 -1.456537862977930E-003
 -1.456525449240257E-003 -1.456531957612241E-003
 -1.456529588498913E-003 -1.456527849736716E-003
 -1.456527156248584E-003 -1.456530253093611E-003
 -1.456493208177993E-003 -1.456564183398929E-003
 -1.456530224788188E-003 -1.456527271572138E-003
 -1.456520625576445E-003 -1.456536770734178E-003
 -1.456530966248672E-003 -1.456526443192330E-003
 -1.456533691258257E-003 -1.456523735010721E-003
 -1.456516113149549E-003 -1.456541271116171E-003
 -1.456532450696988E-003 -1.456524941213341E-003
 -1.456527207224210E-003 -1.456530303152460E-003
 -1.456512684338825E-003 -1.456544701079125E-003
 -1.456509129168107E-003 -1.456548260015918E-003
 -1.456529345580503E-003 -1.456528125894902E-003
 -1.456514284937791E-003 -1.456543127136545E-003
 -1.456490971939023E-003 -1.456566424132618E-003
 -1.456525507243587E-003 -1.456531910961459E-003
 -1.456508105131183E-003 -1.456549285774078E-003
 -1.456560417216919E-003 -1.456497003027915E-003
 -1.456521871932214E-003 -1.456535484695674E-003
 -1.456555596183691E-003 -1.456501820981114E-003
 -1.456521030428082E-003 -1.456536385380554E-003
 -1.456517695567821E-003 -1.456539647756686E-003
 -1.456528122213905E-003 -1.456529279678962E-003
 -1.456567828444527E-003 -1.456489599951779E-003
 -1.456542271955869E-003 -1.456515081678162E-003
 -1.456543781560592E-003 -1.456513635498298E-003
 -1.456524442646785E-003 -1.456532969209232E-003
 -1.456538028163074E-003 -1.456519316944461E-003
 -1.456518796533920E-003 -1.456538604035218E-003
 -1.456483392387983E-003 -1.456574026426764E-003
 -1.456552485558232E-003 -1.456504902404151E-003
 -1.456502489111740E-003 -1.456554916682644E-003
 -1.456488356639936E-003 -1.456569046854228E-003
 -1.456501700367729E-003 -1.456555687160666E-003
 -1.456503640398165E-003 -1.456553774989630E-003
 -1.456549515214901E-003 -1.456507895450591E-003
 -1.456534201292149E-003 -1.456523191129956E-003
 -1.456543192897506E-003 -1.456514207354914E-003
 -1.456533487885594E-003 -1.456523936223449E-003
 -1.456519841054463E-003 -1.456537541551562E-003
 -1.456537293621960E-003 -1.456520072794128E-003
 -1.456523705053961E-003 -1.456533720084239E-003
 -1.456524790005536E-003 -1.456532626931874E-003
 -1.456504701553023E-003 -1.456552688759915E-003
 -1.456519304852077E-003 -1.456538116278521E-003
 -1.456518632079983E-003 -1.456538731028676E-003
 -1.456515965606236E-003 -1.456541424945737E-003
 -1.456540644262224E-003 -1.456516743110581E-003
 -1.456543623601746E-003 -1.456513761599896E-003
 -1.456525476302304E-003 -1.456531937185229E-003
 -1.456507348567680E-003 -1.456550054304205E-003
 -1.456532188631606E-003 -1.456525226828367E-003
 -1.456531172540573E-003 -1.456526247729723E-003
 -1.456518964221162E-003 -1.456538437460175E-003
 -1.456539182400156E-003 -1.456518188299967E-003
 -1.456529693101545E-003 -1.456527716549616E-003
 -1.456540013538674E-003 -1.456517412684732E-003
 -1.456528400489332E-003 -1.456529000792888E-003
 -1.456537544315821E-003 -1.456519843040429E-003
 -1.456508007876538E-003 -1.456549434342514E-003
 -1.456519901017793E-003 -1.456537480177995E-003
 -1.456504912343355E-003 -1.456552451472745E-003
 -1.456524234426211E-003 -1.456533176271982E-003
 -1.456511186313644E-003 -1.456546179359417E-003
 -1.456531532246411E-003 -1.456525846298808E-003
 -1.456529591574505E-003 -1.456527817556745E-003
 -1.456500256852149E-003 -1.456557135065392E-003
 -1.456515648600797E-003 -1.456541736556553E-003
 -1.456522483329240E-003 -1.456534934029585E-003
 -1.456511717568209E-003 -1.456545687163964E-003
 -1.456535073248393E-003 -1.456522321984344E-003
 -1.456499064858112E-003 -1.456558305196501E-003
 -1.456533583721391E-003 -1.456523800926610E-003
 -1.456524781084346E-003 -1.456532654416767E-003
 -1.456531180494914E-003 -1.456526219419801E-003
 -1.456545844817189E-003 -1.456511529591707E-003
 -1.456521096519291E-003 -1.456536297001110E-003
 -1.456518594644060E-003 -1.456538791514320E-003
 -1.456560584716230E-003 -1.456496816326921E-003
 -1.456533928374369E-003 -1.456523474582209E-003
 -1.456537450297238E-003 -1.456519945642084E-003
 -1.456546166794531E-003 -1.456511240065896E-003
 -1.456521666627228E-003 -1.456535749371783E-003
 -1.456523799061604E-003 -1.456533630895262E-003
 -1.456509616405400E-003 -1.456547775834149E-003
 -1.456524100227799E-003 -1.456533264366519E-003
 -1.456513623751141E-003 -1.456543794755997E-003
 -1.456527266411132E-003 -1.456530129825411E-003
 -1.456516311825317E-003 -1.456541061596442E-003
 -1.456510477468001E-003 -1.456546923097192E-003
 -1.456527584022029E-003 -1.456529814165304E-003
 -1.456524294139264E-003 -1.456533097463832E-003
 -1.456521872358107E-003 -1.456535529312641E-003
 -1.456517317453867E-003 -1.456540023549845E-003
 -1.456525098477608E-003 -1.456532293522470E-003
 -1.456524011619343E-003 -1.456533418116598E-003
 -1.456548442230099E-003 -1.456508951459484E-003
 -1.456524270177775E-003 -1.456533093168821E-003
 -1.456513796411331E-003 -1.456543622680577E-003
 -1.456530308850133E-003 -1.456527087755253E-003
 -1.456516679226767E-003 -1.456540694156272E-003
 -1.456510412760443E-003 -1.456546987854748E-003
 -1.456530049189384E-003 -1.456527349550982E-003
 -1.456524424545892E-003 -1.456532965578833E-003
 -1.456521757957745E-003 -1.456535642419992E-003
 -1.456539693588202E-003 -1.456517648203510E-003
 -1.456525039892896E-003 -1.456532351778258E-003
 -1.456520841871458E-003 -1.456536551423909E-003
 -1.456527723223443E-003 -1.456529760730583E-003
 -1.456525788426655E-003 -1.456531611916163E-003
 -1.456554718202204E-003 -1.456502688245349E-003
 -1.456525949644759E-003 -1.456531559652925E-003
 -1.456536882718405E-003 -1.456520515011335E-003
 -1.456533811278856E-003 -1.456523573232130E-003
 -1.456534364841529E-003 -1.456523161044028E-003
 -1.456512200846055E-003 -1.456545203509259E-003
 -1.456552357916261E-003 -1.456505032013760E-003
 -1.456531991273511E-003 -1.456525482750577E-003
 -1.456530820313242E-003 -1.456526591402411E-003
 -1.456560738608179E-003 -1.456496667329321E-003
 -1.456535119684308E-003 -1.456522396464534E-003
 -1.456515328412962E-003 -1.456542070954254E-003
 -1.456527336657638E-003 -1.456530054995376E-003
 -1.456537659379268E-003 -1.456519857141732E-003
 -1.456497628874235E-003 -1.456559786614493E-003
 -1.456544931001017E-003 -1.456512470397451E-003
 -1.456534752526134E-003 -1.456522773953439E-003
 -1.456514819195800E-003 -1.456542569694464E-003
 -1.456514862870752E-003 -1.456542537213388E-003
 -1.456535081779156E-003 -1.456522390876514E-003
 -1.456508437123351E-003 -1.456548965575703E-003
 -1.456509035022258E-003 -1.456548364762071E-003
 -1.456528853455437E-003 -1.456528654862796E-003
 -1.456514097852353E-003 -1.456543304988802E-003
 -1.456544589002708E-003 -1.456512789605153E-003
 -1.456533225358638E-003 -1.456524288408718E-003
 -1.456520964911357E-003 -1.456536448355554E-003
 -1.456564827627163E-003 -1.456492576977878E-003
 -1.456536082287237E-003 -1.456521431057164E-003
 -1.456509637408079E-003 -1.456547755438891E-003
 -1.456541264729163E-003 -1.456516134786094E-003
 -1.456528110903753E-003 -1.456529336152685E-003
 -1.456519977296465E-003 -1.456537413319512E-003
 -1.456540171824102E-003 -1.456517246801035E-003
 -1.456537435712294E-003 -1.456520081999508E-003
 -1.456510680153549E-003 -1.456546731561146E-003
 -1.456514292874323E-003 -1.456543087991030E-003
 -1.456522482469920E-003 -1.456535006576575E-003
 -1.456559681314923E-003 -1.456497724351332E-003
 -1.456530005940958E-003 -1.456527381545451E-003
 -1.456534650707142E-003 -1.456522862429441E-003
 -1.456512457332523E-003 -1.456544946886636E-003
 -1.456527040506533E-003 -1.456530350612481E-003
 -1.456539961834915E-003 -1.456517551496697E-003
 -1.456489989863784E-003 -1.456567417057428E-003
 -1.456528515553802E-003 -1.456528869361518E-003
 -1.456529750970219E-003 -1.456527693096506E-003
 -1.456517102363898E-003 -1.456540300990823E-003
 -1.456526709017021E-003 -1.456530650055068E-003
 -1.456522406739847E-003 -1.456535090431841E-003
 -1.456554954965317E-003 -1.456502464860322E-003
 -1.456537325508641E-003 -1.456520037300871E-003
 -1.456530960995352E-003 -1.456526463817352E-003
 -1.456520425806066E-003 -1.456536970031504E-003
 -1.456533568430297E-003 -1.456523848288557E-003
 -1.456537646219000E-003 -1.456519851495513E-003
 -1.456504823614507E-003 -1.456552544565670E-003
 -1.456518888853239E-003 -1.456538535162811E-003
 -1.456524593704207E-003 -1.456532856333077E-003
 -1.456546492144765E-003 -1.456510870982441E-003
 -1.456508697944703E-003 -1.456548679302659E-003
 -1.456523969936677E-003 -1.456533524308619E-003
 -1.456547331161235E-003 -1.456510072805212E-003
 -1.456531880600975E-003 -1.456525497577629E-003
 -1.456532208724182E-003 -1.456525216064763E-003
 -1.456517528529126E-003 -1.456539859414078E-003
 -1.456542486335673E-003 -1.456514890198932E-003
 -1.456536719181081E-003 -1.456520778058792E-003
 -1.456510113596978E-003 -1.456547282671005E-003
 -1.456519717870260E-003 -1.456537684744167E-003
 -1.456524434945196E-003 -1.456533014435851E-003
 -1.456546883723283E-003 -1.456510498537378E-003
 -1.456551892044248E-003 -1.456505511044362E-003
 -1.456527018511032E-003 -1.456530497261288E-003
 -1.456542903707441E-003 -1.456514496967521E-003
 -1.456510939448458E-003 -1.456546460804101E-003
 -1.456527873503007E-003 -1.456529661933862E-003
 -1.456540333813686E-003 -1.456517050126301E-003
 -1.456542133954804E-003 -1.456515263211849E-003
 -1.456523821623164E-003 -1.456533660287337E-003
 -1.456547976683359E-003 -1.456509424988757E-003
 -1.456533271134454E-003 -1.456524125011911E-003
 -1.456524379860748E-003 -1.456533145830058E-003
 -1.456563124832275E-003 -1.456494285667317E-003
 -1.456491565401682E-003 -1.456565842789469E-003
 -1.456527553759793E-003 -1.456529969718358E-003
 -1.456541931468095E-003 -1.456515463932713E-003
 -1.456530021446967E-003 -1.456527354357631E-003
 -1.456526412018226E-003 -1.456531124909414E-003
 -1.456545119616186E-003 -1.456512283917078E-003
 -1.456506029209597E-003 -1.456551354522318E-003
 -1.456526865316767E-003 -1.456530618167128E-003
 -1.456526671714255E-003 -1.456530741796453E-003
 -1.456503913847970E-003 -1.456553489023466E-003
 -1.456530850010523E-003 -1.456526665430863E-003
 -1.456517029034012E-003 -1.456540370189123E-003
 -1.456522343177143E-003 -1.456535047960642E-003
 -1.456526600759459E-003 -1.456530926697123E-003
 -1.456551737862430E-003 -1.456505664359495E-003
 -1.456532772803806E-003 -1.456524617585306E-003
 -1.456523063166183E-003 -1.456534462589471E-003
 -1.456567969804082E-003 -1.456489433878630E-003
 -1.456524128541533E-003 -1.456533258622160E-003
 -1.456525175968856E-003 -1.456532278079383E-003
 -1.456544097633794E-003 -1.456513305621778E-003
 -1.456515908220267E-003 -1.456541511809955E-003
 -1.456526407356870E-003 -1.456531119727882E-003
 -1.456545920891451E-003 -1.456511494995984E-003
 -1.456544051798495E-003 -1.456513323947572E-003
 -1.456532697451158E-003 -1.456524804670930E-003
 -1.456505409614527E-003 -1.456551994231465E-003
 -1.456511737311968E-003 -1.456545647283071E-003
 -1.456527737545995E-003 -1.456529790011734E-003
 -1.456544038163819E-003 -1.456513369879399E-003
 -1.456491561069957E-003 -1.456565841755183E-003
 -1.456527048112259E-003 -1.456530478892716E-003
 -1.456541985965245E-003 -1.456515403052879E-003
 -1.456518682348831E-003 -1.456538717717804E-003
 -1.456524737497594E-003 -1.456532718328077E-003
 -1.456540580238243E-003 -1.456516812280091E-003
 -1.456547519232241E-003 -1.456509860100587E-003
 -1.456531556609602E-003 -1.456525946929573E-003
 -1.456516436921633E-003 -1.456540963373091E-003
 -1.456528001922825E-003 -1.456529366314612E-003
 -1.456525917221915E-003 -1.456531513806896E-003
 -1.456539331962224E-003 -1.456518052668833E-003
 -1.456515261944188E-003 -1.456542104710748E-003
 -1.456524581756819E-003 -1.456532929650780E-003
 -1.456544874945291E-003 -1.456512536719204E-003
 -1.456540383576181E-003 -1.456517010746500E-003
 -1.456531308924162E-003 -1.456526145933376E-003
 -1.456511367709736E-003 -1.456546021204298E-003
 -1.456532985597616E-003 -1.456524376191792E-003
 -1.456533042918473E-003 -1.456524462504041E-003
 -1.456507823209290E-003 -1.456549594555258E-003
 -1.456519461425104E-003 -1.456537902657492E-003
 -1.456526866309272E-003 -1.456530567061546E-003
 -1.456532807353562E-003 -1.456524582197074E-003
 -1.456519185944894E-003 -1.456538231482354E-003
 -1.456524101333769E-003 -1.456533408512031E-003
 -1.456547858068157E-003 -1.456509502712572E-003
 -1.456539562952269E-003 -1.456517854936192E-003
 -1.456531724323128E-003 -1.456525729821325E-003
 -1.456510498132460E-003 -1.456546867004435E-003
 -1.456539619662055E-003 -1.456517777782750E-003
 -1.456526812433935E-003 -1.456530671170376E-003
 -1.456531770939113E-003 -1.456525633256157E-003
 -1.456505545401071E-003 -1.456551866075071E-003
 -1.456538785002798E-003 -1.456518607358260E-003
 -1.456516698205302E-003 -1.456540705375511E-003
 -1.456564706780284E-003 -1.456492712897988E-003
 -1.456494604113980E-003 -1.456562781836727E-003
 -1.456552915233720E-003 -1.456504488865186E-003
 -1.456492449887221E-003 -1.456564976483852E-003
 -1.456530076998584E-003 -1.456527276655995E-003
 -1.456506976673059E-003 -1.456550441222370E-003
 -1.456533852413079E-003 -1.456523563815607E-003
 -1.456517759850154E-003 -1.456539579216257E-003
 -1.456529445793045E-003 -1.456527961116541E-003
 -1.456562179940730E-003 -1.456495220068777E-003
 -1.456518018273493E-003 -1.456539397034476E-003
 -1.456554379718845E-003 -1.456503013653357E-003
 -1.456500003292032E-003 -1.456557417942118E-003
 -1.456550841517394E-003 -1.456506521760313E-003
 -1.456502379530769E-003 -1.456555035456543E-003
 -1.456540869456673E-003 -1.456516534320156E-003
 -1.456537070732033E-003 -1.456520286349959E-003
 -1.456529626953010E-003 -1.456527770214089E-003
 -1.456574456987682E-003 -1.456482955914213E-003
 -1.456543108374812E-003 -1.456514278886123E-003
 -1.456562237248810E-003 -1.456495177707498E-003
 -1.456533428948538E-003 -1.456523978681970E-003
 -1.456526436241563E-003 -1.456531051061337E-003
 -1.456523427773246E-003 -1.456533964185492E-003
 -1.456552696258727E-003 -1.456504713344574E-003
 -1.456517363980491E-003 -1.456540136434062E-003
 -1.456565292808477E-003 -1.456492105921337E-003
 -1.456568767125536E-003 -1.456488642807655E-003
 -1.456518997357352E-003 -1.456538501277103E-003
 -1.456549171794430E-003 -1.456508221796035E-003
 -1.456510321499584E-003 -1.456547085808033E-003
 -1.456537140948342E-003 -1.456520341185772E-003
 -1.456504055251278E-003 -1.456553350356238E-003
 -1.456547292230995E-003 -1.456510101485218E-003
 -1.456524356159015E-003 -1.456533126747373E-003
 -1.456543735802254E-003 -1.456513657112048E-003
 -1.456507269956644E-003 -1.456550120375488E-003
 -1.456535004351559E-003 -1.456522439669572E-003
 -1.456522048592254E-003 -1.456535354983920E-003
 -1.456499824906680E-003 -1.456557582767262E-003
 -1.456533769197936E-003 -1.456523722731128E-003
 -1.456530566177632E-003 -1.456526833900967E-003
 -1.456532305684297E-003 -1.456525088194214E-003
 -1.456529089479181E-003 -1.456528348383961E-003
 -1.456530424183281E-003 -1.456526991902288E-003
 -1.456558860060244E-003 -1.456498534829257E-003
 -1.456519161100903E-003 -1.456538334269631E-003
 -1.456547541437692E-003 -1.456509859644109E-003
 -1.456522670589022E-003 -1.456534745083939E-003
 -1.456522742155572E-003 -1.456534693003157E-003
 -1.456538339233295E-003 -1.456519045019818E-003
 -1.456524478263811E-003 -1.456532912397872E-003
 -1.456527064643920E-003 -1.456530440635610E-003
 -1.456539589058612E-003 -1.456517801076728E-003
 -1.456541591344707E-003 -1.456515803789868E-003
 -1.456517435317290E-003 -1.456540033863517E-003
 -1.456544355997992E-003 -1.456513052887645E-003
 -1.456503633382754E-003 -1.456553783826226E-003
 -1.456537587694550E-003 -1.456519894603122E-003
 -1.456506450179472E-003 -1.456550945230553E-003
 -1.456537027873394E-003 -1.456520368076409E-003
 -1.456524551762776E-003 -1.456532921320337E-003
 -1.456549580037716E-003 -1.456507801390633E-003
 -1.456521383744774E-003 -1.456536009728308E-003
 -1.456534868152645E-003 -1.456522569065660E-003
 -1.456510041126936E-003 -1.456547351976940E-003
 -1.456527057302542E-003 -1.456530355504294E-003
 -1.456536965362938E-003 -1.456520520803126E-003
 -1.456494655988178E-003 -1.456562742827296E-003
 -1.456529940484566E-003 -1.456527489572048E-003
 -1.456529799112987E-003 -1.456527638628179E-003
 -1.456530692918205E-003 -1.456526698768813E-003
 -1.456547364129004E-003 -1.456510033078483E-003
 -1.456522064300785E-003 -1.456535425438151E-003
 -1.456558279499400E-003 -1.456499114879065E-003
 -1.456539089146457E-003 -1.456518289612191E-003
 -1.456531480161940E-003 -1.456525943964723E-003
 -1.456521460187666E-003 -1.456535954148636E-003
 -1.456542058696065E-003 -1.456515347173569E-003
 -1.456528654547730E-003 -1.456528847371839E-003
 -1.456517037418486E-003 -1.456540347503371E-003
 -1.456548590942944E-003 -1.456508824633526E-003
 -1.456522624259383E-003 -1.456534839329796E-003
 -1.456540677380889E-003 -1.456516719809077E-003
 -1.456520469877936E-003 -1.456536911305898E-003
 -1.456518614502630E-003 -1.456538758467881E-003
 -1.456528752176587E-003 -1.456528666570281E-003
 -1.456551902998983E-003 -1.456505490005741E-003
 -1.456524368394788E-003 -1.456533045285911E-003
 -1.456518000095139E-003 -1.456539417913392E-003
 -1.456545356488892E-003 -1.456512045518049E-003
 -1.456518557569624E-003 -1.456538802308404E-003
 -1.456529401913779E-003 -1.456528015368273E-003
 -1.456535176446439E-003 -1.456522247996903E-003
 -1.456545322403038E-003 -1.456512062148173E-003
 -1.456515957250895E-003 -1.456541420073823E-003
 -1.456534198293256E-003 -1.456523228987026E-003
 -1.456529747419663E-003 -1.456527665939093E-003
 -1.456547707440395E-003 -1.456509685039974E-003
 -1.456534588237642E-003 -1.456522828767353E-003
 -1.456536717950828E-003 -1.456520654122339E-003
 -1.456537423854192E-003 -1.456519976147189E-003
 -1.456514514793696E-003 -1.456542894476053E-003
 -1.456535218611633E-003 -1.456522186245047E-003
 -1.456524702399874E-003 -1.456532698838828E-003
 -1.456541076829907E-003 -1.456516359781867E-003
 -1.456529382936102E-003 -1.456528000134050E-003
 -1.456553456074917E-003 -1.456503917662928E-003
 -1.456539785196511E-003 -1.456517620721349E-003
 -1.456546266366887E-003 -1.456511110791393E-003
 -1.456523991990231E-003 -1.456533401943507E-003
 -1.456534098451678E-003 -1.456523297734447E-003
 -1.456559310162057E-003 -1.456498096486499E-003
 -1.456541636169998E-003 -1.456515749775665E-003
 -1.456537398084475E-003 -1.456520021599263E-003
 -1.456547014127491E-003 -1.456510387187873E-003
 -1.456518746917316E-003 -1.456538644217887E-003
 -1.456556589256450E-003 -1.456500777328164E-003
 -1.456520037038599E-003 -1.456537341645918E-003
 -1.456533535356794E-003 -1.456523907169570E-003
 -1.456524942692989E-003 -1.456532454038954E-003
 -1.456510385867706E-003 -1.456546978215823E-003
 -1.456532207278020E-003 -1.456525193870448E-003
 -1.456524826250093E-003 -1.456532566928644E-003
 -1.456509809080975E-003 -1.456547597396368E-003
 -1.456537140145475E-003 -1.456520269957989E-003
 -1.456536319105193E-003 -1.456521071133863E-003
 -1.456501171907814E-003 -1.456556208173193E-003
 -1.456517920737604E-003 -1.456539488513880E-003
 -1.456538013997710E-003 -1.456519397228255E-003
 -1.456543387261068E-003 -1.456513996068764E-003
 -1.456533832338355E-003 -1.456523561544444E-003
 -1.456536118720148E-003 -1.456521284548629E-003
 -1.456539689432113E-003 -1.456517645626160E-003
 -1.456535917938858E-003 -1.456521479777331E-003
 -1.456539606997220E-003 -1.456517801852792E-003
 -1.456525927221075E-003 -1.456531468676849E-003
 -1.456544181647818E-003 -1.456513202783888E-003
 -1.456545918049950E-003 -1.456511472144631E-003
 -1.456526060302696E-003 -1.456531333747227E-003
 -1.456538231756837E-003 -1.456519173345428E-003
 -1.456531891161370E-003 -1.456525503302925E-003
 -1.456507665149979E-003 -1.456549744806264E-003
 -1.456525759456812E-003 -1.456531623769257E-003
 -1.456538170123540E-003 -1.456519236107447E-003
 -1.456523713818143E-003 -1.456533690203844E-003
 -1.456542714521514E-003 -1.456514665092314E-003
 -1.456544270178397E-003 -1.456513113578085E-003
 -1.456523386815053E-003 -1.456534013153001E-003
 -1.456537430258335E-003 -1.456519974498075E-003
 -1.456532994596021E-003 -1.456524396244472E-003
 -1.456516489219567E-003 -1.456540866230833E-003
 -1.456531682485906E-003 -1.456525706060959E-003
 Gradient of SCF Energy
            1           2           3           4           5           6
    1  -0.0048095  -0.0009978  -0.0007642   0.0013183  -0.0042845   0.0084927
    2   0.0000060  -0.0003340   0.0001017  -0.0002354   0.0000007   0.0000043
    3  -0.0023023   0.0000658  -0.0018905   0.0078242  -0.0010933   0.0033116
            7           8           9          10          11          12
    1  -0.0031277   0.0067927   0.0002509  -0.0000189   0.0001749  -0.0034108
    2   0.0000327  -0.0000041   0.0001023   0.0000519  -0.0001980  -0.0000150
    3   0.0011372  -0.0040124   0.0015665  -0.0065165   0.0036702  -0.0024723
           13          14          15          16          17          18
    1   0.0080248  -0.0032835   0.0075579  -0.0005468   0.0002753   0.0014473
    2  -0.0002980   0.0000935  -0.0000287   0.0000432   0.0000908  -0.0000902
    3  -0.0030376  -0.0028316   0.0053048  -0.0033287   0.0080362  -0.0005116
           19          20          21          22          23          24
    1  -0.0057123   0.0034481  -0.0043200   0.0022961  -0.0033879   0.0029945
    2  -0.0000274   0.0000648   0.0000570  -0.0002159   0.0015316  -0.0036822
    3   0.0036423  -0.0014064  -0.0016908   0.0013964  -0.0017732   0.0016429
           25          26          27          28          29          30
    1  -0.0033095   0.0027110  -0.0020964  -0.0013386  -0.0013555  -0.0015688
    2  -0.0017500   0.0036752  -0.0007775   0.0001011  -0.0002270  -0.0009714
    3  -0.0022378   0.0018216  -0.0010929  -0.0009846  -0.0003193  -0.0008525
           31          32          33          34          35          36
    1   0.0011368   0.0012783  -0.0014875   0.0016929   0.0009115  -0.0027179
    2   0.0001953   0.0008106   0.0011545  -0.0004620  -0.0007236   0.0000246
[...]
    148  H       -14.3306380544    3.5737933778   -9.7446733546
    149  H       -15.9105489445    2.8377970667  -10.0288180865
    150  H       -14.7094061907    2.8506684647  -11.3094354152
    151  C       -15.0640198372    0.2401825750  -10.4559466514
    152  H       -16.1319286324    0.2966506549  -10.2513944919
    153  H       -14.9400443309    0.3054236907  -11.5357195924
    154  H       -14.7049026568   -0.7352125150  -10.1298643385
   Point Group: c1    Number of degrees of freedom:   456


   Energy is  -3317.724681773

 Hessian Updated using BFGS Update

456 Hessian modes will be used to form the next step
  Hessian Eigenvalues:
     0.001803    0.003419    0.003619    0.003975    0.004214    0.004328
     0.005472    0.005560    0.005592    0.005669    0.006812    0.007571
     0.008192    0.008955    0.011232    0.011670    0.012941    0.014162
     0.014669    0.015117    0.015201    0.015663    0.016012    0.016350
     0.016466    0.016602    0.016678    0.016936    0.017038    0.017271
     0.017407    0.017546    0.017642    0.017875    0.017914    0.018271
     0.018365    0.018566    0.018688    0.018899    0.019036    0.019541
     0.019790    0.020071    0.020230    0.020360    0.020423    0.020521
     0.020800    0.020859    0.020881    0.021059    0.021113    0.021141
     0.021275    0.021315    0.021355    0.021533    0.021551    0.021889
     0.022097    0.022127    0.022168    0.022329    0.022368    0.022405
     0.022489    0.022526    0.022650    0.022933    0.022999    0.023012
     0.023023    0.023034    0.023049    0.023058    0.023158    0.023253
     0.023307    0.023348    0.023366    0.023411    0.023434    0.023548
     0.023606    0.023629    0.023642    0.023657    0.023697    0.023722
     0.023810    0.023862    0.023881    0.023890    0.023922    0.023978
     0.024029    0.024067    0.024116    0.024148    0.024167    0.024242
     0.024258    0.024293    0.024307    0.024356    0.024362    0.024377
     0.024391    0.024475    0.024511    0.024584    0.024605    0.024672
     0.024690    0.024872    0.025016    0.025591    0.027511    0.027776
     0.036973    0.041374    0.042829    0.044255    0.045659    0.047731
     0.049180    0.053215    0.054387    0.054584    0.054827    0.055046
     0.055144    0.055415    0.055482    0.055630    0.055695    0.055753
     0.055816    0.056019    0.056047    0.056260    0.056341    0.056375
     0.056545    0.056630    0.056679    0.056822    0.057050    0.061127
     0.063636    0.078904    0.079506    0.092964    0.093314    0.094116
     0.094437    0.127762    0.128594    0.128883    0.129390    0.134488
     0.135356    0.142161    0.156736    0.157262    0.158322    0.159258
     0.159418    0.159603    0.159654    0.159854    0.159911    0.159959
     0.159972    0.159985    0.159988    0.159991    0.159994    0.159997
     0.159997    0.159998    0.159999    0.159999    0.159999    0.160000
     0.160000    0.160000    0.160000    0.160000    0.160000    0.160000
     0.160000    0.160000    0.160000    0.160000    0.160000    0.160000
     0.160000    0.160000    0.160000    0.160000    0.160000    0.160000
     0.160000    0.160005    0.160016    0.160054    0.160062    0.160104
     0.160214    0.160255    0.160358    0.160463    0.160726    0.160790
     0.160844    0.161010    0.161044    0.161309    0.162045    0.162406
     0.163021    0.172037    0.179343    0.191350    0.200259    0.218530
     0.219699    0.219980    0.220042    0.220260    0.220610    0.220883
     0.221402    0.222118    0.222128    0.222949    0.224708    0.225503
     0.226369    0.226742    0.229340    0.230479    0.231630    0.231983
     0.233788    0.234057    0.235356    0.235586    0.236982    0.237404
     0.237451    0.239821    0.241201    0.241976    0.243988    0.245471
     0.245813    0.246345    0.246986    0.247719    0.248091    0.248942
     0.249091    0.249257    0.249598    0.249615    0.249700    0.249723
     0.249825    0.249870    0.249919    0.249974    0.249997    0.250071
     0.250241    0.251820    0.253339    0.254983    0.256427    0.260569
     0.263870    0.267991    0.279912    0.281749    0.283046    0.284573
     0.285015    0.288044    0.288493    0.291670    0.292854    0.296226
     0.296625    0.296850    0.296933    0.298090    0.300910    0.313720
     0.315460    0.317159    0.319129    0.323694    0.328053    0.334379
     0.334922    0.335628    0.336744    0.338255    0.343555    0.344269
     0.344427    0.344486    0.344536    0.345541    0.345806    0.346229
     0.346298    0.346788    0.346857    0.346975    0.347059    0.347266
     0.347336    0.347522    0.347571    0.347609    0.347650    0.347719
     0.347799    0.347841    0.347992    0.348226    0.348508    0.348686
     0.348780    0.348850    0.348970    0.349093    0.349814    0.350592
     0.352120    0.352982    0.353018    0.353250    0.353756    0.353883
     0.354127    0.354344    0.354551    0.354838    0.355601    0.355645
     0.355825    0.355904    0.355920    0.356050    0.356099    0.356225
     0.356251    0.356311    0.356484    0.356569    0.356734    0.356764
     0.356827    0.356976    0.357665    0.357830    0.358010    0.358158
     0.358189    0.358515    0.358834    0.358902    0.359353    0.360911
     0.361860    0.362584    0.369593    0.370878    0.372671    0.376454
     0.381804    0.394083    0.395849    0.399560    0.405448    0.406308
     0.406938    0.408041    0.409247    0.411839    0.413593    0.414382
     0.414732    0.415247    0.417798    0.419395    0.423490    0.426064
     0.426708    0.429227    0.429387    0.430916    0.431395    0.431953
     0.435326    0.435549    0.436330    0.438166    0.441657    0.444465
     0.450147    0.451068    0.453319    0.454204    0.455533    0.457855
     0.459859    0.460451    0.462308    0.464116    0.468114    0.469345
     0.470667    0.471428    0.472001    0.475061    0.476012    0.477554
     0.477855    0.479295    0.480351    0.480389    0.480878    0.481427
     0.482960    0.483777    0.485318    0.485430    0.485953    0.488448
     0.489895    0.494535    0.496119    0.496394    0.496907    0.497392
     0.498386    0.498940    0.499639    0.538307    0.557028    0.570550

 Minimum Search - Taking Simple RFO Step
 Searching for Lamda that Minimizes Along All modes
 Value Taken    Lamda =  -0.00087007
 Step Taken.  Stepsize is  0.205747

                             Maximum     Tolerance    Cnvgd?
         Gradient           0.002678      0.000075      NO
         Displacement       0.066436      0.001200      NO
         Energy change     -0.000918      0.000000      NO


 New Cartesian Coordinates Obtained by Inverse Iteration

 Displacement from previous Coordinates is:  1.209205
 Adding empirical dispersion correction 
 ----------------------------------------------------------------
 Doing -D3(BJ) with
 s6 =   1.00000
 s8 =   0.00000
 a1 =   0.48600
 a2 =   4.50000
 -D3 energy including 3body term =     -0.1509801014 hartrees
 ----------------------------------------------------------------
 Adding gCP correction 
 ----------------------------------------------------------------
 gCP energy =      0.2097357978 hartrees
 ----------------------------------------------------------------
             Standard Nuclear Orientation (Angstroms)
    I     Atom           X                Y                Z
 ----------------------------------------------------------------
    1      N       0.0974075902    -0.0443630970    -0.0643762662
    2      C       0.1184249137    -0.2736337048     1.3047134284
    3      C       1.2613073755    -0.0137788593    -0.8202768563
    4      C       2.5049469876    -0.2700580626    -0.2302161422
    5      C       3.6365217906    -0.2286429295    -1.0396759574
    6      H       4.6038447407    -0.4374562407    -0.5995395729
    7      C       3.5738793983     0.0549717843    -2.3929972697
    8      H       4.4758285823     0.0754708781    -2.9896974917
    9      C       2.3360492971     0.3040048617    -2.9664807125
   10      H       2.2535448523     0.5251554806    -4.0228126337
   11      C       1.1933008710     0.2698135943    -2.1932534749
   12      H       0.2381221357     0.4642605394    -2.6592925182
   13      C       1.3206736484    -0.5519325386     1.9655834924
   14      C       1.2722888196    -0.7939968652     3.3354173629
   15      H       2.1901194652    -1.0264593339     3.8609545377
   16      C       0.0902976146    -0.7612248167     4.0547690733
   17      H       0.0928848556    -0.9571974868     5.1184870714
   18      C      -1.0921779841    -0.4781791362     3.3876833325
   19      H      -2.0315906574    -0.4444010312     3.9240110322
   20      C      -1.0817267286    -0.2387317136     2.0285096103
   21      H      -2.0114692054    -0.0238763849     1.5213514755
   22      C      -1.1608693466     0.1057403886    -0.7178321699
   23      C      -1.8274208645    -1.0184965954    -1.1716661529
   24      H      -1.3827756262    -1.9966774427    -1.0222193806
   25      C      -1.7185214674     1.3598588145    -0.8975156317
   26      H      -1.1890824240     2.2346830725    -0.5358293224
   27      C      -2.9465558469     1.4974241058    -1.5377313517
   28      C      -3.0560313514    -0.9003162852    -1.8132218209
   29      C      -3.6317571196     0.3648638530    -2.0089210014
   30      C      -3.5448797582     2.8739112040    -1.6663625741
   31      H      -4.0980547777     2.9554132638    -2.6045497873
   32      H      -2.7453662851     3.6177498049    -1.7147862721
   33      C      -3.7178637376    -2.1533221497    -2.3298974479
   34      H      -4.8034992503    -2.0392075026    -2.3163590982
   35      H      -3.4905844493    -2.9869802179    -1.6595505876
   36      C       2.6482515858    -0.6413423399     1.2340166441
   37      C      -4.4742253507     3.2056396357    -0.4996865776
   38      H      -5.3094176290     2.5074853641    -0.4545658254
   39      H      -4.8865786483     4.2103442886    -0.6016530951
   40      H      -3.9431942688     3.1554571583     0.4521659099
   41      C      -3.2657837215    -2.5094231759    -3.7449871743
   42      H      -3.5207396901    -1.7181864160    -4.4497571602
   43      H      -3.7470407089    -3.4264482274    -4.0879078496
   44      H      -2.1861775957    -2.6616649730    -3.7882108456
   45      C       3.1539017483    -2.0943581164     1.3128069165
   46      H       4.1143269367    -2.2046579460     0.8077630925
   47      H       3.2865822574    -2.4118813403     2.3475487646
   48      H       2.4462051711    -2.7764627095     0.8405486345
   49      C       3.6593404809     0.3065635177     1.8987893516
   50      H       4.6363358581     0.2442661202     1.4191995937
   51      H       3.8035663068     0.0612838724     2.9507636489
   52      H       3.3182468032     1.3399040876     1.8355366821
   53      B      -5.0107534237     0.5045891104    -2.7826488589
   54      C      -6.3505426556     0.2705260305    -2.0615316072
   55      C      -6.3895405180    -0.1016598815    -0.6990220509
   56      H      -5.4559195149    -0.2006570843    -0.1541029987
   57      C      -7.5852445666    -0.3585785314    -0.0688442828
   58      C      -8.8046548257    -0.2267963604    -0.7964340286
   59      C      -8.7932325847     0.1458666314    -2.1150631986
   60      H      -9.7287175121     0.2294802252    -2.6604894511
   61      C      -7.5788511624     0.3902738894    -2.7843940054
   62      C      -7.9248143803    -0.8143583212     1.2806951856
   63      C      -7.2224320035    -1.1454237926     2.4122422603
   64      H      -6.1426410633    -1.0757594586     2.4539658531
   65      C      -9.3303214530    -0.9464651629     1.3148601408
   66      C     -10.0608347910    -1.3969535161     2.4109054986
   67      C      -9.9083672329    -0.5967631162     0.0787137268
   68      C     -11.2706392061    -0.6912049441    -0.0653263831
   69      H     -11.7647637198    -0.4393972504    -0.9961735669
   70      C      -7.9377778541    -1.5995617613     3.5456097490
   71      H      -7.3779942620    -1.8620531260     4.4343497519
   72      C      -9.3079531948    -1.7282664038     3.5629191018
   73      H      -9.8076311671    -2.0874300048     4.4544004491
   74      C     -12.0360553305    -1.1384887414     1.0349734208
   75      H     -13.1105143537    -1.2152546303     0.9226229263
   76      C     -11.4648019599    -1.4848978921     2.2384829804
   77      H     -12.0901258056    -1.8295677795     3.0532196783
   78      C      -5.0059646555     0.8283124389    -4.2874017525
   79      C      -3.7919808165     0.9829014017    -4.9930280749
   80      H      -2.8536489995     0.8898604961    -4.4552869285
   81      C      -3.7854580813     1.2269571674    -6.3465724393
   82      C      -5.0232066307     1.3391176557    -7.0455724690
   83      C      -6.2125070003     1.2009116194    -6.3818320126
   84      H      -7.1449852016     1.2810509144    -6.9322980003
   85      C      -6.2417307127     0.9376765338    -4.9983028527
   86      C      -2.7099604820     1.3826094183    -7.3283091356
   87      C      -1.3374784155     1.3569193220    -7.2988665795
   88      H      -0.7902186192     1.2036418046    -6.3771109345
   89      C      -3.3371889289     1.5806176165    -8.5779981357
   90      C      -2.6666127234     1.7490440156    -9.7873233080
   91      C      -4.7408032910     1.5653016134    -8.4570824871
   92      C      -5.5028470722     1.7322229361    -9.5882145276
   93      H      -6.5862671287     1.7305541578    -9.5503079063
   94      C      -0.6282504612     1.5287817583    -8.5111789765
   95      H       0.4537730016     1.5058843711    -8.4804507498
   96      C      -1.2528610035     1.7192313470    -9.7225637503
   97      H      -0.6642425460     1.8427567040   -10.6235793483
   98      C      -4.8465328236     1.9104352934   -10.8267022510
   99      H      -5.4464068287     2.0429757141   -11.7188636098
  100      C      -3.4746375256     1.9196797530   -10.9389635392
  101      H      -3.0128054212     2.0552477202   -11.9096087724
  102      B      -7.5744325149     0.7310216230    -4.2757286192
  103      C      -8.9227581593     0.8332552195    -5.1174030290
  104      C      -9.5272986333    -0.3267724204    -5.6318569249
  105      C     -10.6370964077    -0.2315951220    -6.4656440723
  106      H     -11.0877276122    -1.1255273006    -6.8834199285
  107      C     -11.1328744594     1.0117336374    -6.7994003888
  108      C     -10.5829574377     2.1696017494    -6.2849548227
  109      H     -10.9922459491     3.1352000842    -6.5607713623
  110      C      -9.4848435890     2.0823625051    -5.4364261279
  111      N     -12.1962979336     1.1051621263    -7.7629882335
  112      C     -13.4993758810     1.1590379180    -7.3287888951
  113      C     -11.8545109640     1.1371405135    -9.0968265932
  114      C     -12.8511160825     1.2687083835   -10.0826759972
  115      C     -12.4507111216     1.2937672882   -11.4104348053
  116      H     -13.1950117402     1.3994361083   -12.1886179364
  117      C     -11.1194062811     1.1866519781   -11.7751394306
  118      H     -10.8443405454     1.2072604568   -12.8207578209
  119      C     -10.1412381833     1.0510096208   -10.7926657128
  120      H      -9.0990134271     0.9610889379   -11.0658433111
  121      C     -10.4980209956     1.0287457906    -9.4668132233
  122      H      -9.7333539374     0.9226288454    -8.7126770187
  123      C     -14.5533503932     1.2943651179    -8.2550095329
  124      C     -15.8464303106     1.3495378637    -7.7567186920
  125      H     -16.6763446603     1.4576142967    -8.4422290249
  126      C     -16.1125009979     1.2714131093    -6.3996799917
  127      H     -17.1342988785     1.3178917815    -6.0487198075
  128      C     -15.0631292614     1.1344526708    -5.4934931622
  129      H     -15.2601604366     1.0706702433    -4.4326048260
  130      C     -13.7683800867     1.0793027047    -5.9474108127
  131      H     -12.9568794015     0.9740035727    -5.2427888023
  132      C      -8.9380818089     3.3511315808    -4.8423699155
  133      H      -7.8567536616     3.2697975233    -4.7214454810
  134      H      -9.1126039813     4.1853889877    -5.5269039262
  135      C      -8.9583889142    -1.7011639490    -5.3888392262
  136      H      -8.3722893145    -1.7142517316    -4.4701158112
  137      H      -9.7759024422    -2.4127773476    -5.2421843225
  138      C     -14.3176188397     1.3870555415    -9.7460498823
  139      C      -8.0867978780    -2.1631242734    -6.5556314065
  140      H      -7.2445760200    -1.4872634027    -6.7020046677
  141      H      -7.6846486224    -3.1594407651    -6.3707149999
  142      H      -8.6552187088    -2.2001043083    -7.4871308735
  143      C      -9.5791794700     3.6548731051    -3.4902115012
  144      H      -9.3785360286     2.8554534106    -2.7768229004
  145      H     -10.6616132312     3.7613272526    -3.5808857857
  146      H      -9.1847450337     4.5806908342    -3.0706585208
  147      C     -14.8311311054     2.7509110087   -10.2525793619
  148      H     -14.3034579040     3.5738951563    -9.7718403018
  149      H     -15.8955571629     2.8672544763   -10.0514591381
  150      H     -14.6908396143     2.8433112224   -11.3294171926
  151      C     -15.0838878497     0.2496706766   -10.4505080505
  152      H     -16.1528994029     0.3190933418   -10.2549860659
  153      H     -14.9508668236     0.2999753300   -11.5306710292
  154      H     -14.7395009102    -0.7265169227   -10.1112755942
 ----------------------------------------------------------------
 Nuclear Repulsion Energy = 13761.2216345734 hartrees
 There are      293 alpha and      291 beta electrons
 Discretize the solute cavity surface with Lebedev spheres
	Using 302 Lebedev grid points for each H atom
	Using 302 Lebedev grid points for other atoms
	Atomic van der Waals radii will be scaled by 1.20
 Remove points where switching function is < 1.0e-08
 Keep 15809 surface tesserae and discard 30699 interior tesserae
 Molecular Surface Area = 1138.472 Angst**2
 Applying Cartesian multipole field
    Component          Value
    ---------          -----
     (2,0,0)        1.00000E-13
     (0,2,0)        2.00000E-11
     (0,0,2)       -3.00000E-12
 Nucleus-field energy     =    -0.0000001074 hartrees
 Requested basis set is def2-mSVP
 There are 738 shells and 1426 basis functions
 A cutoff of  1.0D-11 yielded  70416 shell pairs
 There are    272564 function pairs (    299732 Cartesian)
 Smallest overlap matrix eigenvalue = 1.95E-04
 Guess MOs from SCF MO coefficient file

 -----------------------------------------------------------------------
  General SCF calculation program by
  Eric Jon Sundstrom, Paul Horn, Yuezhi Mao, Dmitri Zuev, Alec White,
  David Stuck, Shaama M.S., Shane Yost, Joonho Lee, David Small,
  Daniel Levine, Susi Lehtola, Hugh Burton, Evgeny Epifanovsky
 -----------------------------------------------------------------------
 Exchange:     0.4200 Hartree-Fock + 0.5800 PBEh-3c
 Correlation:  1.0000 PBEh-3c
 Using SG-1 standard quadrature grid
 Dispersion:   Grimme D3
 using 8 threads for integral computing
 -------------------------------------------------------
 OpenMP Integral computing Module                
 Release: version 2.0, May 2017, Q-Chem Inc. Pleasanton 
 -------------------------------------------------------
 -------------------------------------------------------
 OpenMP BLAS3 based DFT computing Module                
 Release: version 1.0, May 2013, Q-Chem Inc. Pittsburgh 
 -------------------------------------------------------
 A unrestricted SCF calculation will be
 performed using DIIS
 SCF converges when DIIS error is below 1.0e-08
 ---------------------------------------
  Cycle       Energy         DIIS error
 ---------------------------------------
 Using non-symmetric K matrix
