mFile = /cm/shared/apps/q-chem/intel/QCHEM_5.1.0_Trunk/bin/mpi/machines
Process 0 of 1 is on ctcp010 - thread support 0
initial socket setup ...start
initial socket setup ...done 
now start server 0 ... 
Q-Chem Developer Version!
                  Welcome to Q-Chem
     A Quantum Leap Into The Future Of Chemistry


 Q-Chem 5.1, Q-Chem, Inc., Pleasanton, CA (2018)

 Yihan Shao,  Zhengting Gan,  E. Epifanovsky,  A. T. B. Gilbert,  M. Wormit,  
 J. Kussmann,  A. W. Lange,  A. Behn,  Jia Deng,  Xintian Feng,  D. Ghosh,  
 M. Goldey,  P. R. Horn,  L. D. Jacobson,  I. Kaliman,  T. Kus,  A. Landau,  
 Jie Liu,  E. I. Proynov,  R. M. Richard,  R. P. Steele,  E. J. Sundstrom,  
 H. L. Woodcock III,  P. M. Zimmerman,  D. Zuev,  B. Albrecht,  E. Alguire,  
 S. A. Baeppler,  D. Barton,  Z. Benda,  Y. A. Bernard,  E. J. Berquist,  
 K. B. Bravaya,  H. Burton,  D. Casanova,  Chun-Min Chang,  Yunqing Chen,  
 A. Chien,  K. D. Closser,  M. P. Coons,  S. Coriani,  S. Dasgupta,  
 A. L. Dempwolff,  M. Diedenhofen,  Hainam Do,  R. G. Edgar,  Po-Tung Fang,  
 S. Faraji,  S. Fatehi,  Qingguo Feng,  K. D. Fenk,  J. Fosso-Tande,  
 Qinghui Ge,  A. Ghysels,  G. Gidofalvi,  J. Gomes,  J. Gonthier,  A. Gunina,  
 D. Hait,  M. W. D. Hanson-Heine,  P. H. P. Harbach,  A. W. Hauser,  
 J. E. Herr,  E. G. Hohenstein,  Z. C. Holden,  Kerwin Hui,  B. C. Huynh,  
 T.-C. Jagau,  Hyunjun Ji,  B. Kaduk,  K. Khistyaev,  Jaehoon Kim,  
 P. Klunzinger,  K. Koh,  D. Kosenkov,  L. Koulias,  T. Kowalczyk,  
 C. M. Krauter,  A. Kunitsa,  Ka Un Lao,  A. Laurent,  K. V. Lawler,  
 Joonho Lee,  D. Lefrancois,  S. Lehtola,  D. S. Levine,  Yi-Pei Li,  
 You-Sheng Lin,  Fenglai Liu,  E. Livshits,  A. Luenser,  P. Manohar,  
 E. Mansoor,  S. F. Manzer,  Shan-Ping Mao,  Yuezhi Mao,  N. Mardirossian,  
 A. V. Marenich,  T. Markovich,  L. A. Martinez-Martinez,  S. A. Maurer,  
 N. J. Mayhall,  S. C. McKenzie,  J.-M. Mewes,  A. F. Morrison,  
 J. W. Mullinax,  K. Nanda,  T. S. Nguyen-Beck,  R. Olivares-Amaya,  
 J. A. Parkhill,  T. M. Perrine,  F. Plasser,  P. Pokhilko,  S. Prager,  
 A. Prociuk,  E. Ramos,  D. R. Rehn,  F. Rob,  M. Schneider,  N. Sergueev,  
 S. M. Sharada,  S. Sharma,  D. W. Small,  T. Stauch,  T. Stein,  
 Yu-Chuan Su,  A. J. W. Thom,  A. Tkatchenko,  T. Tsuchimochi,  N. M. Tubman,  
 L. Vogt,  M. L. Vidal,  O. Vydrov,  M. A. Watson,  J. Wenzel,  
 M. de Wergifosse,  T. A. Wesolowski,  A. White,  J. Witte,  A. Yamada,  
 Jun Yang,  K. Yao,  S. Yeganeh,  S. R. Yost,  Zhi-Qiang You,  A. Zech,  
 Igor Ying Zhang,  Xing Zhang,  Yan Zhao,  Ying Zhu,  B. R. Brooks,  
 G. K. L. Chan,  C. J. Cramer,  M. S. Gordon,  W. J. Hehre,  A. Klamt,  
 M. W. Schmidt,  C. D. Sherrill,  D. G. Truhlar,  A. Aspuru-Guzik,  R. Baer,  
 A. T. Bell,  N. A. Besley,  Jeng-Da Chai,  A. E. DePrince, III,  
 R. A. DiStasio Jr.,  A. Dreuw,  B. D. Dunietz,  T. R. Furlani,  
 Chao-Ping Hsu,  Yousung Jung,  Jing Kong,  D. S. Lambrecht,  WanZhen Liang,  
 C. Ochsenfeld,  V. A. Rassolov,  L. V. Slipchenko,  J. E. Subotnik,  
 T. Van Voorhis,  J. M. Herbert,  A. I. Krylov,  P. M. W. Gill,  M. Head-Gordon

 Contributors to earlier versions of Q-Chem not listed above: 
 R. D. Adamson,  B. Austin,  J. Baker,  G. J. O. Beran,  K. Brandhorst,  
 S. T. Brown,  E. F. C. Byrd,  A. K. Chakraborty,  C.-L. Cheng,  
 Siu Hung Chien,  D. M. Chipman,  D. L. Crittenden,  H. Dachsel,  
 R. J. Doerksen,  A. D. Dutoi,  L. Fusti-Molnar,  W. A. Goddard III,  
 A. Golubeva-Zadorozhnaya,  S. R. Gwaltney,  G. Hawkins,  A. Heyden,  
 S. Hirata,  G. Kedziora,  F. J. Keil,  C. Kelley,  Jihan Kim,  R. A. King,  
 R. Z. Khaliullin,  P. P. Korambath,  W. Kurlancheek,  A. M. Lee,  M. S. Lee,  
 S. V. Levchenko,  Ching Yeh Lin,  D. Liotard,  R. C. Lochan,  I. Lotan,  
 P. E. Maslen,  N. Nair,  D. P. O'Neill,  D. Neuhauser,  E. Neuscamman,  
 C. M. Oana,  R. Olson,  B. Peters,  R. Peverati,  P. A. Pieniazek,  
 Y. M. Rhee,  J. Ritchie,  M. A. Rohrdanz,  E. Rosta,  N. J. Russ,  
 H. F. Schaefer III,  N. E. Schultz,  N. Shenvi,  A. C. Simmonett,  A. Sodt,  
 D. Stuck,  K. S. Thanthiriwatte,  V. Vanovschi,  Tao Wang,  A. Warshel,  
 C. F. Williams,  Q. Wu,  X. Xu,  W. Zhang

 Please cite Q-Chem as follows:
 Y. Shao et al., Mol. Phys. 113, 184-215 (2015)
 DOI: 10.1080/00268976.2014.952696

 Q-Chem 5.1.1 for Intel X86 EM64T Linux

 Parts of Q-Chem use Armadillo 8.300.2 (Tropical Shenanigans).
 http://arma.sourceforge.net/

 Q-Chem begins on Wed Nov 14 23:00:04 2018  

Host: ctcp010
0

     Scratch files written to /scratch/mewes/140309/qchem131005//
 Parallel job on  1  processors
The previous job contains 0 fragments, simply inherited here
Symmetry turned off for PCM/SM12/SMD calculation
Input Ideriv = 2
Curr. Ideriv = -1
Max.  Ideriv = 2
Input Ideriv = 2
Curr. Ideriv = 2
Max.  Ideriv = 2

Checking the input file for inconsistencies... 	...done.

--------------------------------------------------------------
User input:
--------------------------------------------------------------
$rem
threads 8
jobtype opt
method PBEh-3c
basis def2-mSVP
mem_static      1024
mem_total       8000
sym_ignore      true
unrestricted true
scf_algorithm	diis
scf_max_cycles	250
solvent_method  pcm
geom_opt_tol_energy 25
geom_opt_tol_gradient 75
$end

$pcm
theory  iefpcm
$end

$solvent
dielectric      2.38
$end

$molecule
read uincoords.mol
$end
--------------------------------------------------------------
 Adding empirical dispersion correction 
 ----------------------------------------------------------------
 Doing -D3(BJ) with
 s6 =   1.00000
 s8 =   0.00000
 a1 =   0.48600
 a2 =   4.50000
 -D3 energy including 3body term =     -0.1507731752 hartrees
 ----------------------------------------------------------------
 Adding gCP correction 
 ----------------------------------------------------------------
 gCP energy =      0.2100884175 hartrees
 ----------------------------------------------------------------
             Standard Nuclear Orientation (Angstroms)
    I     Atom           X                Y                Z
 ----------------------------------------------------------------
    1      N       0.1593970000    -1.1728530000     0.7182300000
    2      C      -0.4299490000    -0.5017740000     1.7813450000
    3      C       0.3380760000     0.2718040000     2.6572380000
    4      C       1.8367800000     0.4455620000     2.4910700000
    5      C      -0.3118980000     0.9180430000     3.7043370000
    6      H       0.2709970000     1.5216050000     4.3895860000
    7      C      -1.6770780000     0.8261910000     3.9048890000
    8      H      -2.1453670000     1.3442860000     4.7307470000
    9      C      -2.4274190000     0.0625910000     3.0253390000
   10      H      -3.4987840000    -0.0275680000     3.1509960000
   11      C      -1.8149620000    -0.5921790000     1.9765590000
   12      H      -2.4164470000    -1.1808690000     1.2990380000
   13      C       1.5284100000    -1.1241410000     0.4929560000
   14      C       2.0836300000    -1.8439730000    -0.5730220000
   15      H       1.4459530000    -2.4394910000    -1.2103950000
   16      C       3.4393650000    -1.8020860000    -0.8261660000
   17      H       3.8382750000    -2.3669550000    -1.6588210000
   18      C       4.2763940000    -1.0433340000    -0.0241030000
   19      H       5.3401010000    -0.9992180000    -0.2144870000
   20      C       3.7242330000    -0.3397240000     1.0304380000
   21      H       4.3800930000     0.2533170000     1.6561640000
   22      C       2.3628270000    -0.3617930000     1.3161900000
   23      C      -0.6584000000    -1.9382520000    -0.1607810000
   24      C      -0.9887580000    -3.2441550000     0.1551850000
   25      H      -0.6258690000    -3.6728090000     1.0829420000
   26      C      -1.7864340000    -3.9992120000    -0.6986780000
   27      C      -1.1227260000    -1.3805840000    -1.3392870000
   28      H      -0.8592650000    -0.3567110000    -1.5805480000
   29      C      -1.9099280000    -2.1235110000    -2.2124960000
   30      C      -2.2567720000    -3.4481930000    -1.9003430000
   31      C      -2.3281040000    -1.4941170000    -3.5170700000
   32      H      -2.3842120000    -0.4091570000    -3.3951290000
   33      H      -3.3332340000    -1.8209090000    -3.7913580000
   34      C      -1.3627900000    -1.8258210000    -4.6533070000
   35      C      -2.1774100000    -5.3926810000    -0.2779300000
   36      H      -1.3847610000    -5.8216370000     0.3410050000
   37      H      -2.2658610000    -6.0411080000    -1.1522080000
   38      C      -3.4913020000    -5.4112050000     0.4997160000
   39      H      -4.3145520000    -5.0418740000    -0.1114800000
   40      H      -3.7424600000    -6.4236440000     0.8191110000
   41      H      -3.4290830000    -4.7841590000     1.3901850000
   42      B      -3.1763290000    -4.2853930000    -2.8850710000
   43      C      -4.6984080000    -4.0511420000    -2.8909300000
   44      C      -5.2919760000    -3.1462800000    -1.9892560000
   45      H      -4.6600990000    -2.6139580000    -1.2859780000
   46      C      -6.6519060000    -2.9342620000    -1.9897260000
   47      C      -7.4737830000    -3.6364490000    -2.9191020000
   48      C      -6.9161440000    -4.5160440000    -3.8108200000
   49      H      -7.5545380000    -5.0379240000    -4.5169660000
   50      C      -5.5297870000    -4.7513470000    -3.8215770000
   51      C      -7.5249920000    -2.0853280000    -1.1813960000
   52      C      -7.3523350000    -1.1956420000    -0.1498280000
   53      H      -6.3726130000    -0.9768310000     0.2557730000
   54      C      -8.8386620000    -2.3070950000    -1.6474280000
   55      C      -9.9777620000    -1.6912400000    -1.1342790000
   56      C      -8.8582130000    -3.2397910000    -2.7028450000
   57      C     -10.0672530000    -3.5674510000    -3.2675460000
   58      H     -10.1398860000    -4.2779500000    -4.0823580000
   59      C      -8.4900820000    -0.5534680000     0.3900210000
   60      H      -8.3469640000     0.1468710000     1.2030240000
   61      C      -9.7660800000    -0.7811820000    -0.0718550000
   62      H     -10.6058490000    -0.2647670000     0.3768450000
   63      C     -11.2103180000    -2.0478430000    -1.7337190000
   64      H     -12.1333090000    -1.6050060000    -1.3795090000
   65      C     -11.2372630000    -2.9572880000    -2.7662460000
   66      H     -12.1905570000    -3.2156520000    -3.2108770000
   67      C      -2.5703900000    -5.3181300000    -3.8542950000
   68      C      -1.1892770000    -5.5971600000    -3.8441140000
   69      H      -0.5499530000    -5.0622610000    -3.1493930000
   70      C      -0.6487220000    -6.5397110000    -4.6902010000
   71      C      -1.4960550000    -7.2355050000    -5.6009820000
   72      C      -2.8400810000    -6.9653080000    -5.6428440000
   73      H      -3.4731190000    -7.4986700000    -6.3454020000
   74      C      -3.4126330000    -6.0152920000    -4.7788160000
   75      C       0.7083850000    -7.0506450000    -4.8727440000
   76      C       1.9343840000    -6.8064680000    -4.3058250000
   77      H       2.0643050000    -6.0683460000    -3.5245540000
   78      C       0.6312500000    -8.0363310000    -5.8801300000
   79      C       1.7086140000    -8.7869540000    -6.3418850000
   80      C      -0.6878500000    -8.1833510000    -6.3521260000
   81      C      -0.9399410000    -9.1181950000    -7.3260130000
   82      H      -1.9375260000    -9.2775170000    -7.7174890000
   83      C       3.0486100000    -7.5492500000    -4.7580640000
   84      H       4.0130390000    -7.3533690000    -4.3070440000
   85      C       2.9586780000    -8.5096450000    -5.7395650000
   86      H       3.8430230000    -9.0541010000    -6.0469980000
   87      C       1.4225590000    -9.7411890000    -7.3486960000
   88      H       2.2165010000   -10.3587840000    -7.7505590000
   89      C       0.1359520000    -9.8902120000    -7.8144550000
   90      H      -0.0605770000   -10.6297310000    -8.5809170000
   91      B      -4.9127990000    -5.7338100000    -4.8142130000
   92      C      -5.8391260000    -6.4372380000    -5.9076030000
   93      C      -6.1929170000    -5.7406540000    -7.0755330000
   94      C      -7.0288290000    -6.3272490000    -8.0202250000
   95      H      -7.3156180000    -5.7835030000    -8.9136410000
   96      C      -7.4960720000    -7.6068940000    -7.8046100000
   97      C      -7.1561310000    -8.3242740000    -6.6776710000
   98      H      -7.5416260000    -9.3274470000    -6.5312440000
   99      C      -6.3286480000    -7.7392730000    -5.7233100000
  100      N      -8.4006630000    -8.1927380000    -8.7655840000
  101      C      -9.7453240000    -8.0288710000    -8.5663560000
  102      C     -10.6742820000    -8.5684030000    -9.4810950000
  103      C     -10.2472210000    -9.3391230000   -10.7054070000
  104      C     -12.0211770000    -8.3651130000    -9.2310290000
  105      H     -12.7564600000    -8.7647280000    -9.9160200000
  106      C     -12.4612230000    -7.6590830000    -8.1243060000
  107      H     -13.5205620000    -7.5192590000    -7.9620290000
  108      C     -11.5366690000    -7.1297520000    -7.2262030000
  109      H     -11.8704920000    -6.5772750000    -6.3602510000
  110      C     -10.1944660000    -7.3068870000    -7.4393320000
  111      H      -9.4812200000    -6.8932920000    -6.7441960000
  112      C      -7.8866620000    -8.8818060000    -9.8317020000
  113      C      -8.7460050000    -9.4552960000   -10.7937600000
  114      C      -8.1684600000   -10.1393460000   -11.8500240000
  115      H      -8.8011270000   -10.5872210000   -12.6044630000
  116      C      -6.7952690000   -10.2690620000   -11.9734090000
  117      H      -6.3799510000   -10.8102640000   -12.8117130000
  118      C      -5.9547160000    -9.7024520000   -11.0172040000
  119      H      -4.8827190000    -9.8000280000   -11.1058460000
  120      C      -6.4871000000    -9.0161950000    -9.9569140000
  121      H      -5.8367950000    -8.5769270000    -9.2169510000
  122      C      -6.0413920000    -8.5161380000    -4.4673660000
  123      H      -5.9406350000    -9.5783200000    -4.7072540000
  124      H      -5.0860430000    -8.2030850000    -4.0464460000
  125      C      -7.1450350000    -8.3271950000    -3.4286860000
  126      C      -5.6498280000    -4.3690500000    -7.3704360000
  127      H      -6.3890420000    -3.7958510000    -7.9367710000
  128      H      -5.4857330000    -3.8255720000    -6.4399610000
  129      C      -4.3449210000    -4.4431510000    -8.1597850000
  130      H      -3.5817030000    -4.9812910000    -7.5993600000
  131      H      -4.4849540000    -4.9529980000    -9.1148810000
  132      H      -3.9613960000    -3.4444290000    -8.3675620000
  133      H      -7.2352890000    -7.2797260000    -3.1429130000
  134      H      -6.9301240000    -8.8994760000    -2.5264080000
  135      H      -8.1129760000    -8.6578920000    -3.8104320000
  136      H      -1.6736590000    -1.3457730000    -5.5825350000
  137      H      -1.3215890000    -2.8999620000    -4.8323480000
  138      H      -0.3520690000    -1.4870170000    -4.4222990000
  139      C     -10.7649640000    -8.6074500000   -11.9618680000
  140      C     -10.8573360000   -10.7553070000   -10.6430950000
  141      C       2.5380000000    -0.0235590000     3.7762030000
  142      C       2.1327950000     1.9341400000     2.2429820000
  143      H       1.6408060000     2.2760860000     1.3324880000
  144      H       3.2029650000     2.1143370000     2.1346740000
  145      H       1.7763300000     2.5517550000     3.0682610000
  146      H       2.3231830000    -1.0746480000     3.9683760000
  147      H       2.2074220000     0.5506980000     4.6423120000
  148      H       3.6200820000     0.0901170000     3.7054520000
  149      H     -10.3480410000    -7.6039750000   -12.0365940000
  150      H     -11.8506760000    -8.5214090000   -11.9430850000
  151      H     -10.4985230000    -9.1519040000   -12.8669420000
  152      H     -10.5112140000   -11.2975270000    -9.7643020000
  153      H     -10.5895800000   -11.3356280000   -11.5250220000
  154      H     -11.9447890000   -10.7095090000   -10.6048480000
 ----------------------------------------------------------------
 Nuclear Repulsion Energy = 13748.0058826392 hartrees
 There are      293 alpha and      291 beta electrons
 Requested basis set is def2-mSVP
 There are 738 shells and 1426 basis functions

 Total QAlloc Memory Limit   8000 MB
 Mega-Array Size      1001 MB
 MEM_STATIC part      1024 MB
 Discretize the solute cavity surface with Lebedev spheres
	Using 302 Lebedev grid points for each H atom
	Using 302 Lebedev grid points for other atoms
	Atomic van der Waals radii will be scaled by 1.20
 Remove points where switching function is < 1.0e-08
 Keep 15671 surface tesserae and discard 30837 interior tesserae
 Molecular Surface Area = 1137.235 Angst**2
 A cutoff of  1.0D-11 yielded  70187 shell pairs
 There are    271673 function pairs (    298758 Cartesian)
 
 -------------------------------------------------------
 OpenMP Integral Computing Module                       
 Release: version 1.0, May 2013, Q-Chem Inc. Pittsburgh 
 -------------------------------------------------------
 Integral Job Info:
 Integral job number is                      11
 Integral operator is                         1
 short-range coefficients                     0
 long-range coefficients              100000000
 Omega coefficients                           0
 if combine SR and LR in K                    0
 Integral screening is                        0
 Integral computing path is                   2
 max size of driver memory is            800000
 size of driver memory is                593474
 size of scratch memory is              1809772
 max col of scratch BK array               1296
 max len of scratch array in speh3          155
 max len of scratch index in speh4           18
 max int batch size is                      520
 min int batch size is                       52
 fixed nKL is                                52
 max L of basis functions is                  2
 order of int derivative is                   0
 number of shells is                        738
 number of basis is                        1512
 number of cartesian basis is              1512
 number of contracted shell pairs         70187
 number of primitive shell pairs         144860
 maxK2 (contraction) of shell pair           25
 max number of K2 of shell pair               1
 max number of CS2 of shell pair          17350
 max number of PS2 of shell pair          25530
 mem total for path MDJ                 1196540
 -------------------------------------------------------
 Smallest overlap matrix eigenvalue = 1.94E-04

 Scale SEOQF with 1.000000e-02/1.000000e-02/1.000000e-02

 Standard Electronic Orientation quadrupole field applied
 Nucleus-field energy     =     0.0000000191 hartrees
 Guess from superposition of atomic densities
 Warning:  Energy on first SCF cycle will be non-variational
 SAD guess density has 584.000001 electrons

 -----------------------------------------------------------------------
  General SCF calculation program by
  Eric Jon Sundstrom, Paul Horn, Yuezhi Mao, Dmitri Zuev, Alec White,
  David Stuck, Shaama M.S., Shane Yost, Joonho Lee, David Small,
  Daniel Levine, Susi Lehtola, Hugh Burton, Evgeny Epifanovsky
 -----------------------------------------------------------------------
 Exchange:     0.4200 Hartree-Fock + 0.5800 PBEh-3c
 Correlation:  1.0000 PBEh-3c
 Using SG-1 standard quadrature grid
 Dispersion:   Grimme D3
 using 8 threads for integral computing
 -------------------------------------------------------
 OpenMP Integral computing Module                
 Release: version 2.0, May 2017, Q-Chem Inc. Pleasanton 
 -------------------------------------------------------
 -------------------------------------------------------
 OpenMP BLAS3 based DFT computing Module                
 Release: version 1.0, May 2013, Q-Chem Inc. Pittsburgh 
 -------------------------------------------------------
 A unrestricted SCF calculation will be
 performed using DIIS
 SCF converges when DIIS error is below 1.0e-08
 ---------------------------------------
  Cycle       Energy         DIIS error
 ---------------------------------------
 Using non-symmetric K matrix
    1   -3346.4002724704      1.13e-02  
    2   -3316.9377118047      8.14e-04  
    3   -3316.2652778724      1.05e-03  
    4   -3317.4484631664      4.68e-04  
    5   -3317.7164729617      8.96e-05  
    6   -3317.7233840057      6.81e-05  
    7   -3317.7286998092      2.03e-05  
    8   -3317.7292801579      9.37e-06  
    9   -3317.7295482291      5.02e-06  
   10   -3317.7296608594      3.25e-06  
   11   -3317.7297320413      1.83e-06  
   12   -3317.7297576591      1.27e-06  
   13   -3317.7297694452      8.05e-07  
   14   -3317.7297750865      5.43e-07  
   15   -3317.7297766844      2.72e-07  
   16   -3317.7297773322      1.81e-07  
   17   -3317.7297775956      1.26e-07  
   18   -3317.7297778286      8.48e-08  
   19   -3317.7297779075      5.03e-08  
   20   -3317.7297779350      2.63e-08  
   21   -3317.7297779391      1.42e-08  
   22   -3317.7297779401      7.97e-09  Convergence criterion met
 ---------------------------------------
 SCF time:   CPU 54839.36s  wall 7534.00s 
<S^2> =          2.096034071

************** Final PCM Free Energy Summary **************
 G_electrostatic  =      -0.03466649 hartree =     -21.75354943 kcal/mol
 G_cavitation     =       0.00000000 hartree =       0.00000000 kcal/mol
 G_dispersion     =       0.00000000 hartree =       0.00000000 kcal/mol
 G_repulsion      =       0.00000000 hartree =       0.00000000 kcal/mol
 --------------------------------------------------
 Non-electrostatic Free Energy =       0.00000000 hartree =       0.00000000 kcal/mol
 Total                         =      -0.03466649 hartree =     -21.75354943 kcal/mol
 --------------------------------------------------
 SCF Energy (H0 + V/2)                       =   -3317.72977794 
 Solute Internal Energy (H0)                 =   -3317.69511145 
 Total Free Energy (H0 + V/2 + non-elec)     =   -3317.72977794 hartree
                                             = -2081906.85787616 kcal/mol
***********************************************************

 SCF   energy in the final basis set =    -3317.7297779401
 Total energy in the final basis set =    -3317.7297779401
 
 --------------------------------------------------------------
 
                    Orbital Energies (a.u.)
 --------------------------------------------------------------
 
 Alpha MOs
 -- Occupied --
-14.797 -14.662 -10.556 -10.555 -10.520 -10.520 -10.519 -10.513
-10.501 -10.500 -10.500 -10.500 -10.493 -10.492 -10.490 -10.490
-10.480 -10.479 -10.466 -10.466 -10.465 -10.464 -10.463 -10.462
-10.462 -10.457 -10.447 -10.446 -10.445 -10.444 -10.444 -10.443
-10.442 -10.442 -10.442 -10.441 -10.441 -10.441 -10.441 -10.440
-10.440 -10.440 -10.440 -10.440 -10.439 -10.438 -10.433 -10.433
-10.432 -10.432 -10.431 -10.431 -10.431 -10.431 -10.431 -10.430
-10.430 -10.429 -10.429 -10.428 -10.428 -10.426 -10.426 -10.425
-10.425 -10.424 -10.424 -10.423 -10.423 -10.422 -10.422 -10.419
-10.417 -10.414 -10.414 -10.414 -10.413 -10.405 -10.402 -10.402
-10.398 -10.398 -10.397 -10.397  -6.892  -6.891  -1.182  -1.074
 -1.023  -1.019  -0.993  -0.993  -0.978  -0.963  -0.955  -0.946
 -0.936  -0.933  -0.932  -0.914  -0.914  -0.914  -0.898  -0.897
 -0.895  -0.894  -0.880  -0.873  -0.871  -0.870  -0.850  -0.849
 -0.838  -0.830  -0.829  -0.828  -0.828  -0.823  -0.818  -0.815
 -0.809  -0.805  -0.803  -0.795  -0.791  -0.789  -0.784  -0.776
 -0.775  -0.772  -0.772  -0.759  -0.734  -0.725  -0.724  -0.712
 -0.710  -0.707  -0.707  -0.704  -0.697  -0.696  -0.694  -0.688
 -0.680  -0.676  -0.672  -0.670  -0.667  -0.657  -0.657  -0.652
 -0.644  -0.640  -0.625  -0.620  -0.620  -0.620  -0.613  -0.604
 -0.603  -0.594  -0.591  -0.586  -0.580  -0.577  -0.575  -0.573
 -0.570  -0.569  -0.567  -0.561  -0.553  -0.553  -0.549  -0.547
 -0.543  -0.538  -0.536  -0.532  -0.530  -0.525  -0.524  -0.520
 -0.518  -0.512  -0.512  -0.509  -0.506  -0.505  -0.503  -0.498
 -0.496  -0.495  -0.487  -0.485  -0.485  -0.484  -0.483  -0.482
 -0.479  -0.476  -0.474  -0.474  -0.473  -0.472  -0.471  -0.468
 -0.467  -0.467  -0.466  -0.466  -0.466  -0.464  -0.464  -0.462
 -0.462  -0.458  -0.456  -0.455  -0.454  -0.447  -0.446  -0.443
 -0.441  -0.436  -0.435  -0.434  -0.432  -0.431  -0.431  -0.428
 -0.426  -0.421  -0.416  -0.416  -0.415  -0.415  -0.411  -0.411
 -0.409  -0.407  -0.404  -0.404  -0.402  -0.401  -0.393  -0.393
 -0.388  -0.387  -0.385  -0.385  -0.379  -0.378  -0.378  -0.374
 -0.373  -0.373  -0.372  -0.371  -0.368  -0.366  -0.359  -0.359
 -0.356  -0.354  -0.351  -0.347  -0.346  -0.343  -0.338  -0.337
 -0.325  -0.320  -0.310  -0.300  -0.299  -0.294  -0.292  -0.287
 -0.286  -0.281  -0.279  -0.277  -0.272  -0.262  -0.259  -0.256
 -0.245  -0.235  -0.230  -0.209  -0.140
 -- Virtual --
 -0.049  -0.048  -0.039  -0.027  -0.020  -0.015  -0.002  -0.000
  0.008   0.015   0.022   0.023   0.024   0.032   0.035   0.040
  0.051   0.061   0.072   0.089   0.095   0.104   0.108   0.110
  0.112   0.118   0.125   0.134   0.139   0.139   0.140   0.142
  0.142   0.147   0.157   0.158   0.160   0.161   0.163   0.164
  0.169   0.172   0.172   0.174   0.178   0.180   0.182   0.183
  0.184   0.186   0.188   0.189   0.190   0.191   0.197   0.200
  0.201   0.201   0.203   0.204   0.205   0.206   0.207   0.209
  0.211   0.213   0.214   0.215   0.217   0.218   0.219   0.219
  0.220   0.223   0.224   0.226   0.227   0.228   0.230   0.231
  0.232   0.234   0.234   0.234   0.235   0.236   0.237   0.242
  0.243   0.245   0.245   0.247   0.248   0.249   0.250   0.251
  0.253   0.256   0.257   0.259   0.260   0.262   0.263   0.264
  0.267   0.268   0.269   0.270   0.271   0.272   0.275   0.276
  0.280   0.281   0.282   0.285   0.287   0.288   0.291   0.292
  0.294   0.298   0.298   0.299   0.301   0.302   0.304   0.305
  0.307   0.307   0.311   0.312   0.318   0.319   0.321   0.324
  0.326   0.327   0.329   0.330   0.333   0.336   0.340   0.340
  0.342   0.344   0.349   0.351   0.355   0.358   0.363   0.366
  0.368   0.375   0.376   0.380   0.385   0.385   0.387   0.392
  0.395   0.397   0.401   0.402   0.405   0.409   0.416   0.421
  0.425   0.430   0.434   0.436   0.441   0.445   0.451   0.453
  0.455   0.456   0.457   0.458   0.460   0.463   0.466   0.466
  0.475   0.479   0.480   0.481   0.485   0.488   0.490   0.491
  0.495   0.498   0.500   0.503   0.505   0.508   0.510   0.512
  0.512   0.512   0.515   0.516   0.516   0.520   0.522   0.523
  0.526   0.528   0.529   0.531   0.534   0.538   0.542   0.543
  0.544   0.545   0.546   0.548   0.553   0.553   0.556   0.557
  0.558   0.558   0.559   0.560   0.562   0.564   0.566   0.567
  0.569   0.571   0.573   0.575   0.575   0.577   0.577   0.578
  0.579   0.581   0.581   0.582   0.583   0.584   0.585   0.587
  0.590   0.591   0.594   0.601   0.602   0.603   0.603   0.605
  0.606   0.608   0.608   0.609   0.610   0.611   0.612   0.613
  0.615   0.619   0.619   0.621   0.622   0.622   0.623   0.624
  0.625   0.628   0.630   0.635   0.636   0.637   0.639   0.639
  0.640   0.642   0.644   0.645   0.645   0.646   0.646   0.648
  0.649   0.652   0.655   0.657   0.658   0.660   0.662   0.664
  0.665   0.669   0.671   0.671   0.675   0.676   0.678   0.681
  0.682   0.685   0.686   0.687   0.689   0.690   0.692   0.694
  0.698   0.706   0.707   0.708   0.712   0.713   0.716   0.718
  0.720   0.723   0.724   0.725   0.725   0.728   0.733   0.736
  0.736   0.738   0.745   0.748   0.749   0.754   0.755   0.757
  0.758   0.761   0.763   0.766   0.768   0.768   0.773   0.774
  0.775   0.778   0.780   0.783   0.784   0.787   0.789   0.791
  0.792   0.796   0.797   0.797   0.801   0.804   0.806   0.811
  0.813   0.814   0.814   0.821   0.823   0.825   0.827   0.829
  0.833   0.834   0.837   0.840   0.843   0.847   0.849   0.856
  0.862   0.864   0.867   0.870   0.875   0.877   0.878   0.884
  0.887   0.888   0.898   0.899   0.900   0.908   0.910   0.912
  0.915   0.919   0.921   0.923   0.925   0.928   0.930   0.934
  0.934   0.937   0.938   0.940   0.945   0.950   0.954   0.960
  0.962   0.963   0.964   0.967   0.968   0.970   0.972   0.974
  0.976   0.981   0.982   0.985   0.990   0.991   0.992   0.997
  0.998   1.000   1.000   1.002   1.003   1.005   1.005   1.007
  1.009   1.011   1.011   1.014   1.016   1.020   1.021   1.021
  1.022   1.023   1.025   1.027   1.033   1.036   1.037   1.040
  1.042   1.043   1.047   1.049   1.050   1.050   1.053   1.055
  1.058   1.059   1.060   1.061   1.062   1.063   1.064   1.065
  1.068   1.069   1.071   1.073   1.075   1.079   1.080   1.081
  1.085   1.087   1.088   1.089   1.090   1.094   1.096   1.098
  1.098   1.103   1.106   1.107   1.109   1.111   1.114   1.117
  1.118   1.121   1.123   1.125   1.127   1.128   1.136   1.141
  1.143   1.144   1.146   1.149   1.149   1.152   1.158   1.159
  1.162   1.164   1.165   1.168   1.174   1.175   1.177   1.179
  1.182   1.185   1.190   1.191   1.193   1.194   1.199   1.206
  1.211   1.214   1.218   1.223   1.225   1.234   1.236   1.238
  1.240   1.240   1.246   1.254   1.258   1.259   1.262   1.265
  1.268   1.272   1.275   1.280   1.284   1.285   1.289   1.292
  1.296   1.299   1.301   1.303   1.305   1.306   1.313   1.314
  1.318   1.318   1.320   1.323   1.324   1.329   1.330   1.333
  1.337   1.345   1.347   1.349   1.351   1.352   1.353   1.356
  1.359   1.363   1.366   1.370   1.379   1.383   1.386   1.388
  1.390   1.392   1.398   1.400   1.401   1.404   1.406   1.410
  1.415   1.417   1.418   1.422   1.427   1.429   1.430   1.436
  1.442   1.445   1.447   1.449   1.451   1.459   1.460   1.461
  1.465   1.467   1.468   1.474   1.478   1.480   1.484   1.487
  1.495   1.497   1.505   1.507   1.509   1.510   1.514   1.518
  1.519   1.526   1.527   1.530   1.530   1.533   1.536   1.536
  1.544   1.546   1.548   1.550   1.551   1.553   1.558   1.560
  1.563   1.566   1.567   1.570   1.573   1.577   1.577   1.580
  1.583   1.586   1.587   1.593   1.593   1.596   1.602   1.607
  1.610   1.612   1.614   1.616   1.622   1.630   1.635   1.635
  1.643   1.646   1.650   1.659   1.664   1.665   1.674   1.676
  1.679   1.682   1.689   1.692   1.695   1.709   1.716   1.718
  1.722   1.724   1.741   1.745   1.749   1.753   1.761   1.765
  1.771   1.773   1.774   1.778   1.783   1.784   1.795   1.795
  1.796   1.803   1.812   1.814   1.817   1.822   1.827   1.830
  1.831   1.832   1.833   1.835   1.840   1.842   1.844   1.845
  1.845   1.847   1.856   1.861   1.866   1.870   1.872   1.874
  1.882   1.887   1.889   1.893   1.895   1.903   1.907   1.914
  1.923   1.924   1.929   1.930   1.931   1.934   1.938   1.940
  1.941   1.942   1.943   1.951   1.953   1.955   1.960   1.962
  1.963   1.964   1.968   1.971   1.980   1.990   1.995   1.999
  2.001   2.002   2.002   2.003   2.006   2.010   2.014   2.015
  2.017   2.020   2.024   2.032   2.050   2.052   2.052   2.055
  2.059   2.061   2.063   2.066   2.073   2.078   2.082   2.084
  2.085   2.086   2.089   2.090   2.093   2.095   2.100   2.105
  2.109   2.110   2.114   2.122   2.126   2.129   2.130   2.130
  2.135   2.135   2.145   2.146   2.150   2.153   2.155   2.157
  2.159   2.160   2.161   2.166   2.178   2.180   2.182   2.184
  2.189   2.194   2.196   2.198   2.206   2.208   2.213   2.218
  2.220   2.223   2.224   2.225   2.229   2.229   2.231   2.232
  2.234   2.241   2.250   2.251   2.257   2.259   2.267   2.268
  2.270   2.271   2.278   2.284   2.285   2.286   2.292   2.293
  2.294   2.296   2.299   2.300   2.300   2.303   2.305   2.306
  2.310   2.313   2.318   2.323   2.327   2.330   2.331   2.335
  2.335   2.337   2.340   2.341   2.343   2.350   2.355   2.356
  2.357   2.358   2.360   2.366   2.368   2.368   2.370   2.370
  2.376   2.377   2.378   2.379   2.381   2.383   2.385   2.390
  2.396   2.400   2.403   2.408   2.410   2.410   2.411   2.416
  2.427   2.427   2.429   2.429   2.431   2.432   2.435   2.439
  2.443   2.451   2.453   2.457   2.459   2.462   2.467   2.473
  2.481   2.491   2.492   2.493   2.496   2.501   2.509   2.510
  2.512   2.522   2.523   2.525   2.528   2.536   2.542   2.547
  2.548   2.554   2.558   2.565   2.573   2.578   2.587   2.594
  2.604   2.607   2.621   2.626   2.626   2.635   2.639   2.644
  2.650   2.657   2.663   2.664   2.665   2.670   2.674   2.683
  2.695   2.696   2.703   2.704   2.708   2.710   2.714   2.718
  2.719   2.726   2.731   2.734   2.738   2.739   2.743   2.748
  2.748   2.751   2.755   2.758   2.759   2.764   2.771   2.773
  2.774   2.780   2.783   2.790   2.800   2.804   2.805   2.806
  2.809   2.810   2.811   2.811   2.812   2.817   2.821   2.824
  2.826   2.830   2.830   2.834   2.835   2.838   2.846   2.846
  2.857   2.866   2.868   2.874   2.888   2.891   2.893   2.895
  2.900   2.903   2.914   2.914   2.917   2.930   2.937   2.941
  2.953   2.957   2.965   2.970   2.979   2.982   2.983   2.990
  2.994   3.003   3.019   3.020   3.029   3.030   3.042   3.047
  3.062   3.079   3.093   3.095   3.101   3.105   3.138   3.144
  3.161   3.211   3.215   3.258   3.270   3.281   3.283   3.361
  3.424   3.430   3.462   3.473   3.485   3.508   3.512   3.513
  3.521   3.530   3.547   3.585   3.595   3.689   3.702   9.644
  9.803  13.165  13.194  13.199  13.261  13.285  13.350  13.474
 13.523  13.531  13.544  13.561  13.575  13.596  13.655  13.660
 13.671  13.682  13.699  13.722  13.722  13.752  13.754  13.779
 13.789  13.796  13.814  13.822  13.825  13.831  13.855  13.865
 13.881  13.884  13.894  13.914  13.943  13.949  14.031  14.035
 14.044  14.048  14.058  14.060  14.060  14.068  14.069  14.112
 14.131  14.156  14.177  14.183  14.184  14.186  14.192  14.197
 14.203  14.229  14.236  14.239  14.249  14.259  14.274  14.297
 14.307  14.310  14.325  14.339  14.344  14.369  14.370  14.526
 14.532  14.536  14.542  14.587  14.599  14.600  14.602  14.605
 14.606  14.620  14.641  19.533  19.661
 
 Beta MOs
 -- Occupied --
-14.785 -14.662 -10.557 -10.557 -10.520 -10.516 -10.516 -10.514
-10.498 -10.497 -10.497 -10.496 -10.495 -10.494 -10.492 -10.492
-10.480 -10.479 -10.465 -10.465 -10.464 -10.464 -10.463 -10.462
-10.462 -10.457 -10.447 -10.447 -10.445 -10.444 -10.444 -10.443
-10.442 -10.442 -10.441 -10.441 -10.441 -10.441 -10.441 -10.441
-10.439 -10.439 -10.439 -10.439 -10.439 -10.438 -10.433 -10.432
-10.432 -10.432 -10.431 -10.431 -10.431 -10.431 -10.431 -10.429
-10.429 -10.428 -10.428 -10.428 -10.427 -10.426 -10.426 -10.425
-10.425 -10.424 -10.424 -10.424 -10.424 -10.422 -10.422 -10.419
-10.417 -10.414 -10.414 -10.414 -10.413 -10.405 -10.402 -10.402
-10.398 -10.398 -10.397 -10.396  -6.890  -6.889  -1.163  -1.074
 -1.017  -1.015  -0.993  -0.992  -0.976  -0.960  -0.955  -0.946
 -0.935  -0.932  -0.931  -0.913  -0.913  -0.910  -0.897  -0.897
 -0.893  -0.891  -0.879  -0.872  -0.870  -0.868  -0.849  -0.843
 -0.838  -0.829  -0.828  -0.827  -0.827  -0.823  -0.815  -0.813
 -0.807  -0.804  -0.803  -0.792  -0.790  -0.788  -0.784  -0.775
 -0.772  -0.771  -0.770  -0.759  -0.732  -0.723  -0.721  -0.711
 -0.709  -0.706  -0.705  -0.703  -0.696  -0.696  -0.693  -0.687
 -0.678  -0.674  -0.672  -0.667  -0.666  -0.657  -0.656  -0.648
 -0.640  -0.638  -0.625  -0.620  -0.620  -0.618  -0.613  -0.604
 -0.603  -0.590  -0.584  -0.579  -0.576  -0.574  -0.573  -0.572
 -0.569  -0.567  -0.566  -0.561  -0.552  -0.552  -0.548  -0.542
 -0.537  -0.537  -0.534  -0.531  -0.530  -0.524  -0.524  -0.519
 -0.518  -0.512  -0.509  -0.505  -0.505  -0.502  -0.499  -0.493
 -0.493  -0.492  -0.487  -0.485  -0.484  -0.483  -0.483  -0.482
 -0.478  -0.475  -0.474  -0.473  -0.471  -0.471  -0.469  -0.468
 -0.467  -0.467  -0.466  -0.465  -0.462  -0.462  -0.462  -0.462
 -0.459  -0.457  -0.455  -0.455  -0.454  -0.445  -0.443  -0.441
 -0.437  -0.435  -0.434  -0.433  -0.431  -0.430  -0.426  -0.426
 -0.421  -0.416  -0.415  -0.415  -0.414  -0.414  -0.411  -0.409
 -0.408  -0.405  -0.404  -0.401  -0.400  -0.400  -0.393  -0.393
 -0.387  -0.385  -0.385  -0.384  -0.378  -0.376  -0.376  -0.374
 -0.373  -0.372  -0.372  -0.371  -0.367  -0.365  -0.359  -0.359
 -0.353  -0.348  -0.345  -0.342  -0.338  -0.335  -0.332  -0.332
 -0.324  -0.318  -0.309  -0.293  -0.293  -0.289  -0.287  -0.286
 -0.277  -0.277  -0.277  -0.272  -0.259  -0.257  -0.250  -0.238
 -0.232  -0.223  -0.209
 -- Virtual --
 -0.173  -0.058  -0.037  -0.036  -0.030  -0.020  -0.007  -0.003
  0.001   0.011   0.017   0.021   0.022   0.024   0.025   0.032
  0.035   0.040   0.051   0.072   0.073   0.095   0.096   0.105
  0.113   0.115   0.118   0.121   0.128   0.135   0.142   0.142
  0.145   0.146   0.148   0.151   0.157   0.158   0.160   0.162
  0.163   0.164   0.170   0.173   0.173   0.175   0.178   0.181
  0.182   0.185   0.186   0.188   0.189   0.190   0.192   0.195
  0.198   0.201   0.202   0.203   0.204   0.205   0.206   0.206
  0.208   0.209   0.212   0.214   0.214   0.215   0.218   0.218
  0.219   0.220   0.220   0.223   0.226   0.227   0.228   0.231
  0.231   0.232   0.233   0.234   0.235   0.235   0.235   0.237
  0.238   0.243   0.244   0.245   0.246   0.248   0.249   0.250
  0.251   0.252   0.254   0.256   0.258   0.260   0.261   0.263
  0.265   0.266   0.268   0.269   0.271   0.272   0.272   0.273
  0.275   0.276   0.282   0.282   0.283   0.286   0.288   0.289
  0.292   0.293   0.294   0.299   0.299   0.301   0.301   0.303
  0.304   0.306   0.307   0.308   0.312   0.315   0.318   0.320
  0.322   0.324   0.326   0.327   0.329   0.330   0.334   0.338
  0.341   0.342   0.343   0.347   0.350   0.352   0.355   0.360
  0.365   0.368   0.369   0.375   0.377   0.384   0.386   0.387
  0.389   0.392   0.397   0.399   0.404   0.405   0.408   0.409
  0.418   0.422   0.428   0.431   0.436   0.436   0.443   0.446
  0.453   0.455   0.456   0.457   0.459   0.460   0.462   0.465
  0.467   0.468   0.478   0.480   0.481   0.482   0.487   0.490
  0.492   0.493   0.497   0.499   0.501   0.503   0.508   0.510
  0.511   0.514   0.514   0.515   0.516   0.517   0.520   0.521
  0.523   0.525   0.529   0.530   0.530   0.532   0.534   0.539
  0.543   0.544   0.546   0.546   0.547   0.550   0.554   0.555
  0.557   0.558   0.560   0.560   0.561   0.562   0.565   0.566
  0.567   0.568   0.570   0.572   0.572   0.576   0.577   0.578
  0.579   0.579   0.580   0.582   0.582   0.583   0.584   0.586
  0.587   0.588   0.591   0.595   0.596   0.602   0.604   0.605
  0.606   0.607   0.608   0.609   0.610   0.610   0.611   0.612
  0.613   0.614   0.617   0.620   0.620   0.622   0.623   0.623
  0.624   0.625   0.626   0.628   0.631   0.636   0.637   0.637
  0.639   0.639   0.641   0.643   0.644   0.645   0.646   0.646
  0.647   0.649   0.650   0.653   0.657   0.659   0.659   0.660
  0.663   0.664   0.666   0.670   0.672   0.672   0.676   0.677
  0.679   0.682   0.683   0.686   0.688   0.689   0.690   0.692
  0.693   0.695   0.699   0.707   0.708   0.709   0.713   0.715
  0.718   0.720   0.721   0.724   0.725   0.726   0.726   0.730
  0.734   0.737   0.738   0.739   0.747   0.749   0.750   0.755
  0.756   0.758   0.759   0.762   0.765   0.767   0.769   0.769
  0.773   0.774   0.776   0.778   0.781   0.784   0.786   0.788
  0.790   0.792   0.793   0.796   0.797   0.799   0.803   0.805
  0.808   0.811   0.814   0.815   0.816   0.822   0.823   0.826
  0.829   0.830   0.835   0.837   0.839   0.841   0.843   0.848
  0.851   0.856   0.863   0.865   0.868   0.871   0.876   0.877
  0.879   0.885   0.887   0.889   0.899   0.900   0.901   0.909
  0.911   0.913   0.916   0.919   0.921   0.925   0.926   0.930
  0.932   0.934   0.935   0.938   0.939   0.943   0.945   0.951
  0.955   0.961   0.963   0.964   0.964   0.967   0.968   0.970
  0.972   0.975   0.976   0.981   0.983   0.986   0.990   0.992
  0.993   0.998   1.000   1.000   1.001   1.003   1.005   1.006
  1.007   1.009   1.010   1.012   1.012   1.015   1.017   1.020
  1.021   1.022   1.023   1.023   1.026   1.028   1.033   1.038
  1.040   1.040   1.042   1.044   1.048   1.049   1.050   1.051
  1.054   1.055   1.058   1.059   1.061   1.061   1.063   1.064
  1.064   1.066   1.068   1.069   1.072   1.074   1.076   1.079
  1.080   1.081   1.086   1.087   1.088   1.089   1.091   1.095
  1.096   1.098   1.098   1.103   1.107   1.107   1.109   1.112
  1.115   1.119   1.122   1.123   1.125   1.127   1.129   1.132
  1.138   1.141   1.143   1.144   1.147   1.149   1.150   1.155
  1.158   1.159   1.163   1.165   1.166   1.169   1.175   1.177
  1.178   1.180   1.183   1.186   1.190   1.192   1.194   1.195
  1.200   1.208   1.211   1.215   1.219   1.224   1.226   1.234
  1.237   1.239   1.241   1.246   1.248   1.254   1.260   1.263
  1.263   1.266   1.270   1.273   1.276   1.281   1.285   1.286
  1.290   1.293   1.298   1.300   1.302   1.303   1.305   1.307
  1.314   1.315   1.319   1.319   1.321   1.323   1.325   1.330
  1.331   1.334   1.338   1.346   1.347   1.350   1.353   1.354
  1.357   1.358   1.360   1.364   1.367   1.371   1.379   1.383
  1.387   1.388   1.392   1.394   1.399   1.402   1.403   1.407
  1.409   1.412   1.416   1.418   1.421   1.424   1.428   1.430
  1.430   1.437   1.445   1.446   1.448   1.451   1.455   1.460
  1.461   1.462   1.465   1.468   1.469   1.474   1.478   1.482
  1.486   1.493   1.497   1.500   1.506   1.510   1.510   1.511
  1.515   1.518   1.523   1.527   1.530   1.531   1.531   1.534
  1.537   1.537   1.545   1.547   1.550   1.552   1.552   1.553
  1.558   1.561   1.564   1.567   1.567   1.570   1.574   1.577
  1.579   1.581   1.585   1.586   1.588   1.593   1.594   1.597
  1.602   1.609   1.610   1.613   1.616   1.617   1.623   1.631
  1.635   1.636   1.644   1.646   1.651   1.662   1.665   1.666
  1.676   1.676   1.680   1.686   1.692   1.696   1.697   1.714
  1.718   1.721   1.724   1.729   1.741   1.748   1.751   1.753
  1.762   1.766   1.771   1.774   1.774   1.778   1.784   1.785
  1.795   1.796   1.797   1.803   1.814   1.814   1.818   1.822
  1.829   1.831   1.832   1.833   1.834   1.837   1.841   1.843
  1.845   1.845   1.846   1.852   1.860   1.862   1.868   1.870
  1.873   1.876   1.889   1.891   1.892   1.893   1.896   1.905
  1.910   1.914   1.924   1.925   1.930   1.931   1.932   1.934
  1.940   1.942   1.943   1.943   1.944   1.952   1.956   1.959
  1.962   1.963   1.964   1.966   1.973   1.975   1.981   1.992
  1.997   1.999   2.001   2.003   2.003   2.004   2.007   2.011
  2.015   2.015   2.018   2.023   2.024   2.033   2.051   2.053
  2.053   2.055   2.062   2.063   2.064   2.069   2.075   2.079
  2.083   2.085   2.086   2.089   2.089   2.090   2.094   2.096
  2.100   2.106   2.109   2.111   2.114   2.122   2.127   2.130
  2.131   2.132   2.135   2.137   2.145   2.147   2.151   2.155
  2.156   2.159   2.161   2.162   2.164   2.168   2.179   2.181
  2.183   2.186   2.190   2.194   2.198   2.199   2.207   2.213
  2.214   2.220   2.222   2.223   2.224   2.226   2.229   2.232
  2.233   2.234   2.236   2.245   2.251   2.252   2.259   2.261
  2.267   2.270   2.271   2.272   2.279   2.285   2.286   2.287
  2.294   2.296   2.296   2.299   2.300   2.301   2.303   2.304
  2.308   2.309   2.312   2.313   2.319   2.324   2.328   2.330
  2.334   2.335   2.336   2.337   2.341   2.342   2.344   2.350
  2.356   2.357   2.359   2.359   2.361   2.368   2.369   2.370
  2.370   2.372   2.377   2.378   2.379   2.380   2.382   2.383
  2.386   2.394   2.397   2.400   2.406   2.409   2.410   2.411
  2.412   2.416   2.427   2.429   2.429   2.431   2.431   2.433
  2.437   2.441   2.444   2.452   2.454   2.460   2.461   2.465
  2.469   2.475   2.483   2.492   2.495   2.497   2.498   2.503
  2.510   2.511   2.514   2.523   2.524   2.526   2.529   2.536
  2.543   2.547   2.550   2.555   2.560   2.568   2.576   2.579
  2.589   2.594   2.607   2.609   2.622   2.626   2.628   2.637
  2.640   2.648   2.652   2.659   2.664   2.665   2.666   2.673
  2.676   2.684   2.695   2.696   2.704   2.705   2.709   2.711
  2.714   2.718   2.722   2.728   2.732   2.734   2.738   2.739
  2.743   2.748   2.750   2.752   2.756   2.759   2.760   2.765
  2.774   2.774   2.775   2.780   2.783   2.791   2.800   2.805
  2.806   2.807   2.810   2.811   2.811   2.813   2.814   2.817
  2.823   2.824   2.827   2.830   2.831   2.834   2.835   2.840
  2.846   2.846   2.858   2.868   2.869   2.875   2.888   2.892
  2.893   2.896   2.901   2.905   2.916   2.916   2.918   2.931
  2.938   2.942   2.954   2.958   2.965   2.971   2.979   2.983
  2.983   2.993   2.997   3.004   3.019   3.021   3.030   3.030
  3.044   3.047   3.063   3.080   3.095   3.097   3.101   3.106
  3.138   3.146   3.162   3.212   3.215   3.259   3.271   3.281
  3.283   3.363   3.424   3.431   3.463   3.473   3.486   3.509
  3.512   3.513   3.522   3.531   3.548   3.585   3.595   3.689
  3.702   9.648   9.807  13.165  13.195  13.200  13.261  13.286
 13.350  13.474  13.523  13.531  13.544  13.561  13.575  13.597
 13.657  13.660  13.672  13.682  13.700  13.722  13.725  13.752
 13.754  13.779  13.789  13.796  13.814  13.823  13.825  13.832
 13.855  13.865  13.881  13.885  13.894  13.914  13.943  13.950
 14.032  14.035  14.044  14.048  14.059  14.060  14.061  14.069
 14.070  14.113  14.131  14.157  14.177  14.183  14.184  14.186
 14.192  14.197  14.203  14.229  14.236  14.239  14.249  14.260
 14.274  14.296  14.307  14.310  14.325  14.339  14.344  14.370
 14.371  14.527  14.532  14.536  14.543  14.587  14.600  14.601
 14.602  14.606  14.606  14.620  14.641  19.549  19.661
 --------------------------------------------------------------
 
          Ground-State Mulliken Net Atomic Charges

     Atom                 Charge (a.u.)    Spin (a.u.)
  --------------------------------------------------------
      1 N                    -0.719047      -0.000153
      2 C                     0.310994       0.000048
      3 C                     0.134421      -0.000002
      4 C                    -0.201088       0.000000
      5 C                    -0.304463      -0.000001
      6 H                     0.218006       0.000001
      7 C                    -0.246564      -0.000001
      8 H                     0.220807       0.000000
      9 C                    -0.246438      -0.000004
     10 H                     0.226610       0.000001
     11 C                    -0.318609       0.000017
     12 H                     0.264368      -0.000012
     13 C                     0.311100       0.000048
     14 C                    -0.317871       0.000020
     15 H                     0.265406      -0.000013
     16 C                    -0.247127      -0.000006
     17 H                     0.227448       0.000001
     18 C                    -0.246487       0.000002
     19 H                     0.220788       0.000000
     20 C                    -0.304741      -0.000004
     21 H                     0.217826       0.000001
     22 C                     0.133943       0.000001
     23 C                     0.185694       0.002799
     24 C                    -0.305439      -0.002251
     25 H                     0.226492       0.000440
     26 C                     0.046154       0.005243
     27 C                    -0.307940      -0.002252
     28 H                     0.225599       0.000418
     29 C                     0.043600       0.005387
     30 C                    -0.181629      -0.027859
     31 C                    -0.542812       0.002593
     32 H                     0.225830       0.000386
     33 H                     0.260231      -0.001920
     34 C                    -0.655791       0.000298
     35 C                    -0.541963       0.002526
     36 H                     0.225456       0.000384
     37 H                     0.259761      -0.001749
     38 C                    -0.655465       0.000114
     39 H                     0.250095      -0.000421
     40 H                     0.215804      -0.000016
     41 H                     0.212367      -0.000085
     42 B                     0.540508       0.287463
     43 C                    -0.141357       0.055870
     44 C                    -0.406679      -0.054061
     45 H                     0.222587       0.002011
     46 C                     0.087103       0.085953
     47 C                     0.068905       0.048894
     48 C                    -0.402131      -0.025932
     49 H                     0.195606       0.000427
     50 C                    -0.129011       0.018606
     51 C                     0.187505      -0.055789
     52 C                    -0.405284       0.085770
     53 H                     0.226702      -0.005055
     54 C                    -0.082868       0.024194
     55 C                     0.239744      -0.039697
     56 C                     0.189172      -0.046969
     57 C                    -0.399058       0.075292
     58 H                     0.204250      -0.004526
     59 C                    -0.214690      -0.053612
     60 H                     0.231371       0.002611
     61 C                    -0.359352       0.079077
     62 H                     0.224957      -0.004704
     63 C                    -0.355581       0.071183
     64 H                     0.224709      -0.004208
     65 C                    -0.216388      -0.049019
     66 H                     0.222649       0.002432
     67 C                    -0.139906       0.054626
     68 C                    -0.409193      -0.052816
     69 H                     0.220296       0.001957
     70 C                     0.088997       0.084487
     71 C                     0.067510       0.048488
     72 C                    -0.402580      -0.025058
     73 H                     0.196970       0.000387
     74 C                    -0.127924       0.017586
     75 C                     0.186397      -0.055163
     76 C                    -0.405342       0.084560
     77 H                     0.227312      -0.004978
     78 C                    -0.081668       0.023849
     79 C                     0.240661      -0.039143
     80 C                     0.188301      -0.046715
     81 C                    -0.398897       0.074459
     82 H                     0.208901      -0.004454
     83 C                    -0.215026      -0.052965
     84 H                     0.231440       0.002581
     85 C                    -0.359928       0.078006
     86 H                     0.224864      -0.004639
     87 C                    -0.355574       0.070394
     88 H                     0.224496      -0.004163
     89 C                    -0.217557      -0.048492
     90 H                     0.224222       0.002403
     91 B                     0.507719       0.331343
     92 C                    -0.162529      -0.023218
     93 C                     0.033892       0.002300
     94 C                    -0.289545       0.014390
     95 H                     0.240088      -0.000345
     96 C                     0.121548      -0.029117
     97 C                    -0.287334       0.014359
     98 H                     0.240442      -0.000316
     99 C                     0.037156       0.002052
    100 N                    -0.602100       0.440443
    101 C                     0.293953      -0.102272
    102 C                     0.191483       0.233961
    103 C                    -0.239127      -0.039151
    104 C                    -0.302103      -0.152181
    105 H                     0.255410       0.007197
    106 C                    -0.200685       0.255567
    107 H                     0.269705      -0.013703
    108 C                    -0.240574      -0.133345
    109 H                     0.271343       0.006060
    110 C                    -0.261532       0.185510
    111 H                     0.314613      -0.010018
    112 C                     0.298430      -0.102642
    113 C                     0.190701       0.233926
    114 C                    -0.301893      -0.152210
    115 H                     0.255816       0.007201
    116 C                    -0.201153       0.255763
    117 H                     0.269764      -0.013725
    118 C                    -0.240550      -0.133715
    119 H                     0.272436       0.006072
    120 C                    -0.266170       0.185848
    121 H                     0.313069      -0.010022
    122 C                    -0.543016       0.004562
    123 H                     0.226557       0.000474
    124 H                     0.280643      -0.001980
    125 C                    -0.655417      -0.000344
    126 C                    -0.545984       0.004898
    127 H                     0.226561       0.000496
    128 H                     0.283459      -0.002415
    129 C                    -0.655006      -0.000297
    130 H                     0.259270      -0.000358
    131 H                     0.201663      -0.000095
    132 H                     0.229114       0.000037
    133 H                     0.256542      -0.000290
    134 H                     0.230775       0.000042
    135 H                     0.200864      -0.000087
    136 H                     0.213498      -0.000015
    137 H                     0.251980      -0.000557
    138 H                     0.213179      -0.000096
    139 C                    -0.607062       0.022883
    140 C                    -0.608280       0.022411
    141 C                    -0.611803      -0.000000
    142 C                    -0.607621      -0.000000
    143 H                     0.235027       0.000000
    144 H                     0.219374       0.000000
    145 H                     0.219675       0.000000
    146 H                     0.235874       0.000000
    147 H                     0.219618       0.000000
    148 H                     0.220233       0.000000
    149 H                     0.249526      -0.000852
    150 H                     0.243430       0.000275
    151 H                     0.243233       0.000275
    152 H                     0.249464      -0.000808
    153 H                     0.243370       0.000228
    154 H                     0.243518       0.000221
  --------------------------------------------------------
  Sum of atomic charges =    -0.000000
  Sum of spin   charges =     2.000000

 -----------------------------------------------------------------
                    Cartesian Multipole Moments
 -----------------------------------------------------------------
    Charge (ESU x 10^10)
                -0.0000
    Dipole Moment (Debye)
         X     -21.1553      Y     -15.5387      Z     -23.7412
       Tot      35.3927
    Quadrupole Moments (Debye-Ang)
        XX    -213.8286     XY     239.5900     YY    -298.9034
        XZ     287.1312     YZ     271.0051     ZZ    -184.2829
    Octopole Moments (Debye-Ang^2)
       XXX    2760.5965    XXY    -284.2713    XYY    -292.4157
       YYY    5110.0436    XXZ   -1141.4658    XYZ   -2779.0098
       YYZ    -770.9848    XZZ   -1133.4629    YZZ    -753.8848
       ZZZ    2178.4945
    Hexadecapole Moments (Debye-Ang^3)
      XXXX  -70042.8269   XXXY   -8110.6191   XXYY  -11586.9292
      XYYY  -15734.3944   YYYY  -84355.8670   XXXZ   -4021.6393
      XXYZ   13266.4706   XYYZ   13264.4997   YYYZ  -20079.3305
      XXZZ   -3161.8852   XYZZ   17401.8241   YYZZ   -1846.4009
      XZZZ   -3574.8417   YZZZ  -10173.2589   ZZZZ  -56407.4193
 -----------------------------------------------------------------
 Calculating analytic gradient of the SCF energy
 -1.468246343569332E-003 -1.468246760285221E-003
 -1.468246461237867E-003 -1.468246714273598E-003
 -1.468247380947049E-003 -1.468245756441352E-003
 -1.468211392292615E-003 -1.468281721975390E-003
 -1.468225826841458E-003 -1.468267349306912E-003
 -1.468224085993109E-003 -1.468269059207504E-003
 -1.468262650089281E-003 -1.468230454365639E-003
 -1.468266423826694E-003 -1.468226749513490E-003
 -1.468268665163080E-003 -1.468224485189717E-003
 -1.468254853612038E-003 -1.468238252559863E-003
 -1.468256631637592E-003 -1.468236493477299E-003
 -1.468252948106366E-003 -1.468240167197310E-003
 -1.468229600483576E-003 -1.468263498234564E-003
 -1.468235514597669E-003 -1.468257641869417E-003
 -1.468234920768713E-003 -1.468258213219049E-003
 -1.468265453376690E-003 -1.468227658292238E-003
 -1.468255735506180E-003 -1.468237392771438E-003
 -1.468253748692446E-003 -1.468239372557719E-003
 -1.468277664776244E-003 -1.468215435892037E-003
 -1.468253832832499E-003 -1.468239343756213E-003
 -1.468248898413314E-003 -1.468244252858242E-003
 -1.468244178590419E-003 -1.468248917027175E-003
 -1.468244707445042E-003 -1.468248439924160E-003
 -1.468244495342804E-003 -1.468248645005950E-003
 -1.468219353535752E-003 -1.468273751010458E-003
 -1.468228176244620E-003 -1.468264993268268E-003
 -1.468229507881870E-003 -1.468263633457116E-003
 -1.468254751890197E-003 -1.468238374240102E-003
 -1.468237092891837E-003 -1.468256031830543E-003
 -1.468241412537212E-003 -1.468251689908684E-003
 -1.468255875348997E-003 -1.468237216859881E-003
 -1.468242596087471E-003 -1.468250579210930E-003
 -1.468236070774326E-003 -1.468257077934770E-003
 -1.468235922370476E-003 -1.468257185293274E-003
 -1.468231154707832E-003 -1.468261994989671E-003
 -1.468232401806795E-003 -1.468260744918283E-003
 -1.468230369230870E-003 -1.468262742593870E-003
 -1.468216455069410E-003 -1.468276725470473E-003
 -1.468214737192688E-003 -1.468278407140174E-003
 -1.468234429912456E-003 -1.468258671392484E-003
 -1.468247124090550E-003 -1.468246052099498E-003
 -1.468253244971055E-003 -1.468239895467908E-003
 -1.468230557661171E-003 -1.468262563739130E-003
 -1.468234584518703E-003 -1.468258563972415E-003
 -1.468233064659969E-003 -1.468260071201977E-003
 -1.468232288221193E-003 -1.468260819646766E-003
 -1.468224858429417E-003 -1.468268308928802E-003
 -1.468218828580008E-003 -1.468274311106981E-003
 -1.468234226087324E-003 -1.468258866565458E-003
 -1.468252207703071E-003 -1.468240923086637E-003
 -1.468246721301884E-003 -1.468246406134443E-003
 -1.468241676600914E-003 -1.468251430597637E-003
 -1.468266133983534E-003 -1.468227043908989E-003
 -1.468272508358208E-003 -1.468220635721364E-003
 -1.468244316929843E-003 -1.468248811584261E-003
 -1.468245494506936E-003 -1.468247642248455E-003
 -1.468243455453647E-003 -1.468249666011421E-003
 -1.468238706073535E-003 -1.468254400753269E-003
 -1.468232350781385E-003 -1.468260804078818E-003
 -1.468229537635596E-003 -1.468263587056772E-003
 -1.468250026918469E-003 -1.468243091278767E-003
 -1.468260711295045E-003 -1.468232414044373E-003
 -1.468262743806086E-003 -1.468230372298315E-003
 -1.468268526475035E-003 -1.468224589231630E-003
 -1.468264320539772E-003 -1.468228851355911E-003
 -1.468266011015069E-003 -1.468227129334010E-003
 -1.468222307341398E-003 -1.468270800758140E-003
 -1.468222104114393E-003 -1.468271022829428E-003
 -1.468221312435209E-003 -1.468271795864604E-003
 -1.468277109427846E-003 -1.468216025810712E-003
 -1.468260491395350E-003 -1.468232593475845E-003
 -1.468274000989990E-003 -1.468219111508545E-003
 -1.468246624123956E-003 -1.468246494410112E-003
 -1.468232800615383E-003 -1.468260263776637E-003
 -1.468247209337785E-003 -1.468245900243186E-003
 -1.468219303067927E-003 -1.468273828121327E-003
 -1.468199106307119E-003 -1.468294000371841E-003
 -1.468232444661581E-003 -1.468260661360218E-003
 -1.468263164318675E-003 -1.468229965849259E-003
 -1.468282107718468E-003 -1.468211007375912E-003
 -1.468267857017145E-003 -1.468225232513187E-003
 -1.468236423324979E-003 -1.468256686909434E-003
 -1.468251613264442E-003 -1.468241491920725E-003
 -1.468238105936569E-003 -1.468254969470067E-003
 -1.468214925374193E-003 -1.468278194088559E-003
 -1.468237464178793E-003 -1.468255648674104E-003
 -1.468198176714908E-003 -1.468294938748378E-003
 -1.468262233520724E-003 -1.468230882211401E-003
 -1.468263354257875E-003 -1.468229754886277E-003
 -1.468259651514703E-003 -1.468233464317653E-003
 -1.468256909206249E-003 -1.468236170824514E-003
 -1.468236456217263E-003 -1.468256636436717E-003
 -1.468251374474913E-003 -1.468241760581600E-003
 -1.468234113883595E-003 -1.468258991024224E-003
 -1.468234310881446E-003 -1.468258777782118E-003
 -1.468246244999092E-003 -1.468246874308961E-003
 -1.468224205163413E-003 -1.468268893667185E-003
 -1.468242000551098E-003 -1.468251125227111E-003
 -1.468248694331766E-003 -1.468244442426960E-003
 -1.468221848888384E-003 -1.468271220472578E-003
 -1.468233343719089E-003 -1.468259766051783E-003
 -1.468240026790978E-003 -1.468253112391013E-003
 -1.468238589391217E-003 -1.468254535442819E-003
 -1.468263869558263E-003 -1.468229225219559E-003
 -1.468245548395496E-003 -1.468247548419731E-003
 -1.468245680989346E-003 -1.468247441956986E-003
 -1.468246615697867E-003 -1.468246471108946E-003
 -1.468232880241189E-003 -1.468260227249987E-003
 -1.468249938524119E-003 -1.468243190348754E-003
 -1.468236780197361E-003 -1.468256338641469E-003
 -1.468228824537787E-003 -1.468264293005690E-003
 -1.468243755275546E-003 -1.468249387148370E-003
 -1.468230846763378E-003 -1.468262232210021E-003
 -1.468222688911085E-003 -1.468270414160251E-003
 -1.468235901499099E-003 -1.468257204419145E-003
 -1.468261617448349E-003 -1.468231473914007E-003
 -1.468237437765707E-003 -1.468255673525052E-003
 -1.468248792331032E-003 -1.468244316363742E-003
 -1.468265077492039E-003 -1.468228038780890E-003
 -1.468218518709509E-003 -1.468274572632456E-003
 -1.468235304851215E-003 -1.468257818809620E-003
 -1.468263572757964E-003 -1.468229532199419E-003
 -1.468240715871068E-003 -1.468252400652738E-003
 -1.468240707052651E-003 -1.468252405358907E-003
 -1.468239801056306E-003 -1.468253352708485E-003
 -1.468239513640036E-003 -1.468253636034204E-003
 -1.468262890279260E-003 -1.468230216806636E-003
 -1.468258503267550E-003 -1.468234671317337E-003
 -1.468263396983416E-003 -1.468229769476651E-003
 -1.468255324487110E-003 -1.468237764878775E-003
 -1.468234155465409E-003 -1.468259031221816E-003
 -1.468233713487166E-003 -1.468259460842153E-003
 -1.468268206943823E-003 -1.468224900124548E-003
 -1.468251677427562E-003 -1.468241483413395E-003
 -1.468258067631461E-003 -1.468235077708983E-003
 -1.468282375132014E-003 -1.468210743430450E-003
 -1.468245688651893E-003 -1.468247486927226E-003
 -1.468249543280155E-003 -1.468243623118081E-003
 -1.468257166656272E-003 -1.468235934946082E-003
 -1.468222795804124E-003 -1.468270386408926E-003
 -1.468219123335205E-003 -1.468274053068086E-003
 -1.468264704116081E-003 -1.468228405054084E-003
 -1.468243483913953E-003 -1.468249691293476E-003
 -1.468244317153459E-003 -1.468248845848881E-003
 -1.468242925767684E-003 -1.468250191807027E-003
 -1.468230609269415E-003 -1.468262541365785E-003
 -1.468230121961371E-003 -1.468263019380963E-003
 -1.468232374881052E-003 -1.468260730715128E-003
 -1.468231279573030E-003 -1.468261896542814E-003
 -1.468226852011811E-003 -1.468266315874583E-003
 -1.468267533968693E-003 -1.468225572081283E-003
 -1.468241582945404E-003 -1.468251596324481E-003
 -1.468241977512283E-003 -1.468251184817210E-003
 -1.468286005396627E-003 -1.468207105440228E-003
 -1.468245994956334E-003 -1.468247182649669E-003
 -1.468249433922130E-003 -1.468243727617587E-003
 -1.468261288044599E-003 -1.468231822954813E-003
 -1.468243840703223E-003 -1.468249295865945E-003
 -1.468243719297928E-003 -1.468249405925547E-003
 -1.468263996630583E-003 -1.468229124331905E-003
 -1.468237170522044E-003 -1.468256018565489E-003
 -1.468237868711990E-003 -1.468255313250513E-003
 -1.468221084272124E-003 -1.468272024821088E-003
 -1.468258209959383E-003 -1.468234950853068E-003
 -1.468257585667307E-003 -1.468235555452707E-003
 -1.468258917238766E-003 -1.468234197112919E-003
 -1.468235486331298E-003 -1.468257689211491E-003
 -1.468232849787487E-003 -1.468260309713832E-003
 -1.468260275303379E-003 -1.468232820082889E-003
 -1.468221503356389E-003 -1.468271676520684E-003
 -1.468217310671434E-003 -1.468275863537862E-003
 -1.468256981258955E-003 -1.468236117173412E-003
 -1.468237734019335E-003 -1.468255405800989E-003
 -1.468238183452818E-003 -1.468254955206737E-003
 -1.468233619107796E-003 -1.468259485680002E-003
 -1.468260742806831E-003 -1.468232424219406E-003
 -1.468260257813540E-003 -1.468232884530569E-003
 -1.468257687181309E-003 -1.468235405670426E-003
 -1.468244359844940E-003 -1.468248759472071E-003
 -1.468245925859140E-003 -1.468247180307177E-003
 -1.468263382800849E-003 -1.468229733983610E-003
 -1.468234963816305E-003 -1.468258195268430E-003
 -1.468237818769273E-003 -1.468255323029617E-003
 -1.468229123542729E-003 -1.468263975515254E-003
 -1.468254926824703E-003 -1.468238209537548E-003
 -1.468254872296919E-003 -1.468238260795033E-003
 -1.468267905138067E-003 -1.468225161319763E-003
 -1.468238365782281E-003 -1.468254816084344E-003
 -1.468242146376447E-003 -1.468251024129659E-003
 -1.468228620635894E-003 -1.468264453664766E-003
 -1.468254635031616E-003 -1.468238513300262E-003
 -1.468254529930670E-003 -1.468238617034245E-003
 -1.468223390109637E-003 -1.468269731270751E-003
 -1.468251437554638E-003 -1.468241718412610E-003
 -1.468248295771157E-003 -1.468244841463865E-003
 -1.468251782827475E-003 -1.468241314433951E-003
 -1.468239302613546E-003 -1.468253811515311E-003
 -1.468240143304158E-003 -1.468252960966488E-003
 -1.468259314115028E-003 -1.468233792759768E-003
 -1.468260966469851E-003 -1.468232202899752E-003
 -1.468264924512470E-003 -1.468228243215564E-003
 -1.468228442075116E-003 -1.468264669207869E-003
 -1.468254442335294E-003 -1.468238726699262E-003
 -1.468246376537706E-003 -1.468246789864034E-003
 -1.468250662961038E-003 -1.468242457549666E-003
 -1.468265282986038E-003 -1.468227863915163E-003
 -1.468262865790770E-003 -1.468230276612223E-003
 -1.468236327257871E-003 -1.468256778363861E-003
 -1.468273846756758E-003 -1.468219327356623E-003
 -1.468267839837022E-003 -1.468225336282863E-003
 -1.468212869938540E-003 -1.468280252906392E-003
 -1.468252498562100E-003 -1.468240667303291E-003
 -1.468241653897385E-003 -1.468251515056975E-003
 -1.468234795388749E-003 -1.468258298767222E-003
 -1.468261225250349E-003 -1.468231948782097E-003
 -1.468256704879077E-003 -1.468236475824485E-003
 -1.468225125244583E-003 -1.468267983918766E-003
 -1.468242437830747E-003 -1.468250712984869E-003
 -1.468235632750024E-003 -1.468257516538225E-003
 -1.468228267911328E-003 -1.468264844931222E-003
 -1.468234559292165E-003 -1.468258605336870E-003
 -1.468231133713999E-003 -1.468262034725023E-003
 -1.468238194773186E-003 -1.468254921944333E-003
 -1.468261207418521E-003 -1.468231957633884E-003
 -1.468255396881545E-003 -1.468237760889288E-003
 -1.468233315894181E-003 -1.468259784772404E-003
 -1.468275519009787E-003 -1.468217651529881E-003
 -1.468271745009547E-003 -1.468221429092658E-003
 -1.468240296544914E-003 -1.468252803186261E-003
 -1.468253511445913E-003 -1.468239623238032E-003
 -1.468256602522636E-003 -1.468236531332292E-003
 -1.468229541292142E-003 -1.468263584959295E-003
 -1.468260942411103E-003 -1.468232235996814E-003
 -1.468251938273360E-003 -1.468241242335404E-003
 -1.468272421806999E-003 -1.468220688460311E-003
 -1.468229445944106E-003 -1.468263707377028E-003
 -1.468233147906299E-003 -1.468259997069391E-003
 -1.468228576783386E-003 -1.468264528602723E-003
 -1.468252660253153E-003 -1.468240506923325E-003
 -1.468245772873104E-003 -1.468247393771786E-003
 -1.468206208343507E-003 -1.468286905609012E-003
 -1.468254096494624E-003 -1.468239065328111E-003
 -1.468244306027829E-003 -1.468248861402886E-003
 -1.468231577247111E-003 -1.468261536313099E-003
 -1.468247406646159E-003 -1.468245720885456E-003
 -1.468249598181829E-003 -1.468243528165189E-003
 -1.468271616715400E-003 -1.468221506460718E-003
 -1.468237945211608E-003 -1.468255205698342E-003
 -1.468243973151647E-003 -1.468249163555559E-003
 -1.468239766735529E-003 -1.468253336943176E-003
 -1.468253696122194E-003 -1.468239413471761E-003
 -1.468253463271185E-003 -1.468239642470167E-003
 -1.468225582919572E-003 -1.468267495639138E-003
 -1.468258433064045E-003 -1.468234733868048E-003
 -1.468250959280279E-003 -1.468242205144574E-003
 -1.468262567166129E-003 -1.468230513996191E-003
 -1.468235405965373E-003 -1.468257731340457E-003
 -1.468238998815347E-003 -1.468254149454486E-003
 -1.468231984943007E-003 -1.468261135421375E-003
 -1.468263635236252E-003 -1.468229507889965E-003
 -1.468257353778788E-003 -1.468235795668993E-003
 -1.468262767943107E-003 -1.468230339063144E-003
 -1.468235779622556E-003 -1.468257345191999E-003
 -1.468239128977810E-003 -1.468254007784222E-003
 -1.468259057589964E-003 -1.468234042877580E-003
 -1.468228524005343E-003 -1.468264635745675E-003
 -1.468231412284313E-003 -1.468261735375828E-003
 -1.468235176953899E-003 -1.468257912950070E-003
 -1.468250298015109E-003 -1.468242816673494E-003
 -1.468248901618472E-003 -1.468244208913692E-003
 -1.468250218577807E-003 -1.468242889882458E-003
 -1.468250083500262E-003 -1.468243072607333E-003
 -1.468253450430160E-003 -1.468239694016845E-003
 -1.468233195648126E-003 -1.468259916868519E-003
 -1.468239468005266E-003 -1.468253639250020E-003
 -1.468226633296734E-003 -1.468266482606852E-003
 -1.468278572760657E-003 -1.468214556504930E-003
 -1.468288611687380E-003 -1.468204501713720E-003
 -1.468268887301911E-003 -1.468224215608662E-003
 -1.468217163222495E-003 -1.468275968950952E-003
 -1.468242404304606E-003 -1.468250676461567E-003
 -1.468214300225989E-003 -1.468278817155300E-003
 -1.468247044767612E-003 -1.468246068118262E-003
 -1.468260056473133E-003 -1.468233001598876E-003
 -1.468250481877936E-003 -1.468242636741855E-003
 -1.468273876149544E-003 -1.468219225563625E-003
 -1.468261822005131E-003 -1.468231305456855E-003
 -1.468276260089558E-003 -1.468216847357126E-003
 -1.468226866306080E-003 -1.468266260822163E-003
 -1.468220828408130E-003 -1.468272273807333E-003
 -1.468219314294227E-003 -1.468273782992064E-003
 -1.468252456858098E-003 -1.468240659050347E-003
 -1.468239834936395E-003 -1.468253255253393E-003
 -1.468255951695639E-003 -1.468237133763763E-003
 -1.468273750124123E-003 -1.468219363583481E-003
 -1.468244701696941E-003 -1.468248411970540E-003
 -1.468294599522038E-003 -1.468198511872018E-003
 -1.468245963828518E-003 -1.468247135671169E-003
 -1.468248567848793E-003 -1.468244613288383E-003
 -1.468250254759024E-003 -1.468242879240067E-003
 -1.468267851014460E-003 -1.468225254173404E-003
 -1.468268983515410E-003 -1.468224209387562E-003
 -1.468280932558408E-003 -1.468212205467985E-003
 -1.468220643556879E-003 -1.468272471167343E-003
 -1.468236833048477E-003 -1.468256341542921E-003
 -1.468228562531344E-003 -1.468264573675059E-003
 -1.468240034149005E-003 -1.468253078467501E-003
 -1.468240917808997E-003 -1.468252195478925E-003
 -1.468234713903476E-003 -1.468258406739755E-003
 -1.468262009361925E-003 -1.468231088936409E-003
 -1.468256751423922E-003 -1.468236424192236E-003
 -1.468262900751480E-003 -1.468230224572872E-003
 -1.468239015899894E-003 -1.468254093479644E-003
 -1.468235870524649E-003 -1.468257275392787E-003
 -1.468228050606413E-003 -1.468265064224183E-003
 -1.468247181049111E-003 -1.468245929146114E-003
 -1.468230890729236E-003 -1.468262290016751E-003
 -1.468221339363153E-003 -1.468271798968356E-003
 -1.468249428105267E-003 -1.468243699299791E-003
 -1.468248312016693E-003 -1.468244821833771E-003
 -1.468249597612898E-003 -1.468243519787690E-003
 -1.468265677881906E-003 -1.468227428824305E-003
 -1.468261912034763E-003 -1.468231269708645E-003
 -1.468274827333845E-003 -1.468218305112581E-003
 -1.468257849273113E-003 -1.468235244121425E-003
 -1.468239144113386E-003 -1.468253995183196E-003
 -1.468245761541229E-003 -1.468247368148872E-003
 -1.468257968534135E-003 -1.468235127237364E-003
 -1.468245559127694E-003 -1.468247633012952E-003
 -1.468242166768695E-003 -1.468250963015241E-003
 -1.468263454616332E-003 -1.468229660162553E-003
 -1.468252061692081E-003 -1.468241102832734E-003
 -1.468260893852056E-003 -1.468232231035165E-003
 -1.468284640420693E-003 -1.468208465876151E-003
 -1.468258779563165E-003 -1.468234409488470E-003
 -1.468270599973311E-003 -1.468222543296708E-003
 -1.468225145818755E-003 -1.468267957372757E-003
 -1.468232612231982E-003 -1.468260563545664E-003
 -1.468223234398751E-003 -1.468269913111195E-003
 -1.468266628354118E-003 -1.468226463226264E-003
 -1.468252892466968E-003 -1.468240276067232E-003
 -1.468257555989555E-003 -1.468235570812083E-003
 -1.468227004269543E-003 -1.468266100232788E-003
 -1.468242590543944E-003 -1.468250551127851E-003
 -1.468238082615583E-003 -1.468255031188038E-003
 -1.468213188031775E-003 -1.468279914534961E-003
 -1.468246170802481E-003 -1.468247007954669E-003
 -1.468242878636797E-003 -1.468250270037721E-003
 -1.468248895444754E-003 -1.468244203072212E-003
 -1.468248480587464E-003 -1.468244666267733E-003
 -1.468248228702075E-003 -1.468244913117888E-003
 -1.468276701735951E-003 -1.468216400031973E-003
 -1.468257958521107E-003 -1.468235220941239E-003
 -1.468263373234404E-003 -1.468229761350949E-003
 -1.468239606693485E-003 -1.468253518199060E-003
 -1.468256508933051E-003 -1.468236616402996E-003
 -1.468252934760379E-003 -1.468240165612236E-003
 -1.468236515702524E-003 -1.468256575176479E-003
 -1.468253332836943E-003 -1.468239854876287E-003
 -1.468258521475059E-003 -1.468234620455563E-003
 -1.468259312556578E-003 -1.468233792224502E-003
 -1.468258615863077E-003 -1.468234545440201E-003
 -1.468263859740646E-003 -1.468229279462822E-003
 -1.468233991450162E-003 -1.468259092502296E-003
 -1.468258294840028E-003 -1.468234798800173E-003
 -1.468238547685022E-003 -1.468254591342877E-003
 -1.468255703540526E-003 -1.468237401200993E-003
 -1.468257520896873E-003 -1.468235565952684E-003
 -1.468244291446592E-003 -1.468248830611931E-003
 -1.468267390618805E-003 -1.468225714787026E-003
 -1.468253258804597E-003 -1.468239868851587E-003
 -1.468250163424951E-003 -1.468242972900785E-003
 -1.468272865719495E-003 -1.468220212704544E-003
 -1.468259736116742E-003 -1.468233372292445E-003
 -1.468256871908221E-003 -1.468236263770349E-003
 -1.468247360815731E-003 -1.468245768415142E-003
 -1.468233534780502E-003 -1.468259552601392E-003
 -1.468244914384543E-003 -1.468248174243925E-003
 -1.468249162254034E-003 -1.468243963792628E-003
 -1.468246837850829E-003 -1.468246238122638E-003
 -1.468264729801182E-003 -1.468228376591818E-003
 -1.468240210023058E-003 -1.468252921268196E-003
 -1.468255897457892E-003 -1.468237222313001E-003
 -1.468268549896857E-003 -1.468224558561196E-003
 -1.468253751812837E-003 -1.468239404763238E-003
 -1.468255789293651E-003 -1.468237287388264E-003
 -1.468275236256291E-003 -1.468217850534485E-003
 -1.468252074687609E-003 -1.468241037212853E-003
 -1.468230099398779E-003 -1.468262975579037E-003
 -1.468254650485210E-003 -1.468238453790969E-003
 -1.468255241515981E-003 -1.468237885501108E-003
 -1.468229636064126E-003 -1.468263472835758E-003
 -1.468253388467544E-003 -1.468239723419133E-003
 -1.468239797008065E-003 -1.468253321200110E-003
 -1.468228614372625E-003 -1.468264497687404E-003
 -1.468271516003065E-003 -1.468221570961442E-003
 -1.468242097606401E-003 -1.468250998934952E-003
 -1.468264271569388E-003 -1.468228818166455E-003
 -1.468242696380446E-003 -1.468250415272653E-003
 -1.468258048581793E-003 -1.468235047274922E-003
 -1.468273080270733E-003 -1.468220013186619E-003
 -1.468229014407784E-003 -1.468264116645071E-003
 -1.468236193503835E-003 -1.468256912109852E-003
 -1.468263155304012E-003 -1.468229971746417E-003
 -1.468240186883932E-003 -1.468252931044177E-003
 -1.468236597769527E-003 -1.468256498276202E-003
 -1.468224456362118E-003 -1.468268628665618E-003
 -1.468267391390934E-003 -1.468225742020677E-003
 -1.468252666455838E-003 -1.468240430532483E-003
 -1.468226831169667E-003 -1.468266257389960E-003
 -1.468253343379579E-003 -1.468239766458322E-003
 -1.468253270116748E-003 -1.468239829353051E-003
 -1.468226332896290E-003 -1.468266794341327E-003
 -1.468249064848684E-003 -1.468244050117659E-003
 -1.468249827150705E-003 -1.468243275032188E-003
 -1.468265703632618E-003 -1.468227418554344E-003
 -1.468242127280506E-003 -1.468250967021613E-003
 -1.468248213986273E-003 -1.468244884120325E-003
 -1.468232623136446E-003 -1.468260464329239E-003
 -1.468262261247332E-003 -1.468230871516612E-003
 -1.468246427717168E-003 -1.468246658515628E-003
 -1.468227700463124E-003 -1.468265442005090E-003
 -1.468255173477650E-003 -1.468237917005206E-003
 -1.468239971250251E-003 -1.468253122703133E-003
 -1.468256082385539E-003 -1.468237016273007E-003
 -1.468233178061129E-003 -1.468259948802755E-003
 -1.468240450039878E-003 -1.468252658460415E-003
 -1.468252794919695E-003 -1.468240265824175E-003
 -1.468233946231806E-003 -1.468259152697600E-003
 -1.468239280894037E-003 -1.468253827602637E-003
 -1.468236115135765E-003 -1.468256987575701E-003
 -1.468231845044989E-003 -1.468261264292032E-003
 -1.468232385045145E-003 -1.468260705652854E-003
 -1.468238205325627E-003 -1.468254906291231E-003
 -1.468236278754837E-003 -1.468256840156305E-003
 -1.468243460831227E-003 -1.468249638704760E-003
 -1.468233448159443E-003 -1.468259643731072E-003
 -1.468248208565138E-003 -1.468244865934430E-003
 -1.468233253999935E-003 -1.468259833016775E-003
 -1.468236811320807E-003 -1.468256309002627E-003
 -1.468238673150757E-003 -1.468254440439468E-003
 -1.468239688304244E-003 -1.468253421843285E-003
 -1.468234671624491E-003 -1.468258446324095E-003
 -1.468234466215525E-003 -1.468258626746688E-003
 -1.468251946864819E-003 -1.468241159886949E-003
 -1.468259356017154E-003 -1.468233724027749E-003
 -1.468245452247133E-003 -1.468247627043730E-003
 -1.468256173505946E-003 -1.468236942537959E-003
 -1.468256671260941E-003 -1.468236439954555E-003
 -1.468260393010688E-003 -1.468232700317584E-003
 -1.468262172406065E-003 -1.468230920975119E-003
 -1.468253040572774E-003 -1.468240072499967E-003
 -1.468255312945418E-003 -1.468237801703986E-003
 -1.468251349614653E-003 -1.468241754568753E-003
 -1.468240551407850E-003 -1.468252503348533E-003
 -1.468257333705116E-003 -1.468235772980111E-003
 -1.468261600444401E-003 -1.468231491474716E-003
 -1.468250831120466E-003 -1.468242279240360E-003
 -1.468256469198609E-003 -1.468236650304435E-003
 -1.468255783920651E-003 -1.468237330810974E-003
 -1.468254044392010E-003 -1.468239051163613E-003
 -1.468261684686751E-003 -1.468231424942832E-003
 Gradient of SCF Energy
            1           2           3           4           5           6
    1   0.0018493  -0.0005230  -0.0062941   0.0006842  -0.0021548  -0.0006695
    2   0.0017259  -0.0004089  -0.0012144   0.0008189  -0.0013541  -0.0008916
    3   0.0018337  -0.0001229   0.0000439   0.0008760  -0.0014086  -0.0010052
            7           8           9          10          11          12
    1   0.0008173   0.0009233   0.0033840   0.0023065  -0.0013440   0.0021800
    2  -0.0011864  -0.0009194  -0.0001183   0.0003251   0.0007871   0.0025767
    3  -0.0018248  -0.0014823  -0.0008875  -0.0001092   0.0010595   0.0030219
           13          14          15          16          17          18
    1  -0.0002398   0.0014536   0.0029712  -0.0019333  -0.0007229  -0.0022739
    2  -0.0004335  -0.0003137   0.0023021   0.0016154   0.0013361  -0.0002443
    3  -0.0007476  -0.0005711   0.0024910   0.0024816   0.0018773   0.0003119
           19          20          21          22          23          24
    1  -0.0019576  -0.0010587  -0.0010701   0.0013774  -0.0027724   0.0006188
    2  -0.0000386  -0.0016689  -0.0008377  -0.0038785  -0.0026745   0.0002300
    3   0.0004424  -0.0021950  -0.0008720  -0.0052568  -0.0032999   0.0002100
           25          26          27          28          29          30
    1  -0.0013754   0.0021294   0.0003077  -0.0008662   0.0021466   0.0011273
    2   0.0014729   0.0057581   0.0003460  -0.0035112  -0.0022238   0.0014054
    3  -0.0031389  -0.0014643   0.0005685   0.0007580   0.0059129   0.0014369
           31          32          33          34          35          36
    1  -0.0060362   0.0001182   0.0036405   0.0038779   0.0031324  -0.0018565
    2   0.0020713  -0.0024280   0.0014340  -0.0030964  -0.0046490   0.0010181
[...]
 -1.468082689835365E-003 -1.468124595078735E-003
 -1.468092884312753E-003 -1.468114454036409E-003
 -1.468089729507287E-003 -1.468117608941709E-003
 -1.468096742421997E-003 -1.468110546045208E-003
 -1.468117036954066E-003 -1.468090302234748E-003
 -1.468112528027688E-003 -1.468094797572975E-003
 -1.468090969560801E-003 -1.468116302194076E-003
 -1.468132837117341E-003 -1.468074509485199E-003
 -1.468128812863959E-003 -1.468078528805630E-003
 -1.468099519390190E-003 -1.468107751741414E-003
 -1.468110120447252E-003 -1.468097187958377E-003
 -1.468112616318899E-003 -1.468094685247031E-003
 -1.468086344388602E-003 -1.468120957197803E-003
 -1.468118241127268E-003 -1.468089108498337E-003
 -1.468109560544222E-003 -1.468097785593129E-003
 -1.468128515032784E-003 -1.468078767183546E-003
 -1.468085399664102E-003 -1.468121928437000E-003
 -1.468087331198905E-003 -1.468119983376860E-003
 -1.468086216229934E-003 -1.468121061580858E-003
 -1.468108629354760E-003 -1.468098712715428E-003
 -1.468102250802885E-003 -1.468105084022032E-003
 -1.468063035225480E-003 -1.468144252247130E-003
 -1.468112880293897E-003 -1.468094456997972E-003
 -1.468103114823591E-003 -1.468104219974108E-003
 -1.468088542596336E-003 -1.468118744850753E-003
 -1.468104694427027E-003 -1.468102606942043E-003
 -1.468107036372739E-003 -1.468100260268393E-003
 -1.468129205685360E-003 -1.468078087181005E-003
 -1.468093737873954E-003 -1.468113588922356E-003
 -1.468098165819645E-003 -1.468109138828102E-003
 -1.468096518099737E-003 -1.468110760039070E-003
 -1.468111367485081E-003 -1.468095915872903E-003
 -1.468109913379839E-003 -1.468097364375407E-003
 -1.468083853990838E-003 -1.468123400646613E-003
 -1.468117119586906E-003 -1.468090216788144E-003
 -1.468109702034197E-003 -1.468097626013643E-003
 -1.468118657142418E-003 -1.468088600653625E-003
 -1.468092414872929E-003 -1.468114893668373E-003
 -1.468094648482956E-003 -1.468112668267668E-003
 -1.468090332617441E-003 -1.468116962608705E-003
 -1.468122119760425E-003 -1.468085199352175E-003
 -1.468116244075754E-003 -1.468091072603826E-003
 -1.468119283457081E-003 -1.468087999465487E-003
 -1.468092966681671E-003 -1.468114331556909E-003
 -1.468095062804418E-003 -1.468112242173660E-003
 -1.468115073587617E-003 -1.468092197022161E-003
 -1.468085501326976E-003 -1.468121835164525E-003
 -1.468086972331646E-003 -1.468120345050314E-003
 -1.468092429159890E-003 -1.468114831528032E-003
 -1.468107984536994E-003 -1.468099304819810E-003
 -1.468106364451138E-003 -1.468100917530160E-003
 -1.468109679900369E-003 -1.468097600380437E-003
 -1.468105638350050E-003 -1.468101691145211E-003
 -1.468109439591467E-003 -1.468097877070201E-003
 -1.468090043498154E-003 -1.468117241554415E-003
 -1.468097978137133E-003 -1.468109301227229E-003
 -1.468082954907718E-003 -1.468124333446537E-003
 -1.468136603353065E-003 -1.468070698299267E-003
 -1.468144676543711E-003 -1.468062609399128E-003
 -1.468127194116762E-003 -1.468080080806216E-003
 -1.468072888973634E-003 -1.468134415459342E-003
 -1.468101661404748E-003 -1.468105591655457E-003
 -1.468072028731861E-003 -1.468135262377500E-003
 -1.468104011881624E-003 -1.468103272920863E-003
 -1.468117289698778E-003 -1.468089940069418E-003
 -1.468108297268901E-003 -1.468098994285583E-003
 -1.468131007801803E-003 -1.468076266563924E-003
 -1.468117316760462E-003 -1.468089984930218E-003
 -1.468134000822700E-003 -1.468073277779458E-003
 -1.468084266946227E-003 -1.468123031845582E-003
 -1.468079163479031E-003 -1.468128110208906E-003
 -1.468075346702991E-003 -1.468131924488338E-003
 -1.468110527121328E-003 -1.468096762160491E-003
 -1.468095737076608E-003 -1.468111523228569E-003
 -1.468112146643413E-003 -1.468095113669258E-003
 -1.468131307518149E-003 -1.468075977967080E-003
 -1.468099611475809E-003 -1.468107675374897E-003
 -1.468150731408697E-003 -1.468056552419285E-003
 -1.468103742069745E-003 -1.468103530447359E-003
 -1.468105620972079E-003 -1.468101735946310E-003
 -1.468106795735792E-003 -1.468100506173677E-003
 -1.468124942061412E-003 -1.468082337375906E-003
 -1.468126523024641E-003 -1.468080844530084E-003
 -1.468138149712674E-003 -1.468069157317369E-003
 -1.468078221761791E-003 -1.468129066572539E-003
 -1.468093617720457E-003 -1.468113732297399E-003
 -1.468084981410285E-003 -1.468122324251357E-003
 -1.468096425454557E-003 -1.468110859780702E-003
 -1.468097291243541E-003 -1.468109996230059E-003
 -1.468092967532528E-003 -1.468114323766864E-003
 -1.468118107851595E-003 -1.468089163654030E-003
 -1.468113802674154E-003 -1.468093546197929E-003
 -1.468120481355874E-003 -1.468086812886402E-003
 -1.468096383823138E-003 -1.468110898260815E-003
 -1.468092786032830E-003 -1.468114531688844E-003
 -1.468085272565225E-003 -1.468122013486356E-003
 -1.468104628472967E-003 -1.468102654397892E-003
 -1.468088102906523E-003 -1.468119252495832E-003
 -1.468077658263084E-003 -1.468129649524095E-003
 -1.468106385813890E-003 -1.468100914193272E-003
 -1.468104882943515E-003 -1.468102425116132E-003
 -1.468106904580989E-003 -1.468100384011634E-003
 -1.468121894022226E-003 -1.468085385148445E-003
 -1.468119024071702E-003 -1.468088331115799E-003
 -1.468132029829775E-003 -1.468075272320103E-003
 -1.468115074731880E-003 -1.468092190660706E-003
 -1.468096320234789E-003 -1.468110990378772E-003
 -1.468102638947661E-003 -1.468104662166370E-003
 -1.468115878459488E-003 -1.468091391145432E-003
 -1.468103222668874E-003 -1.468104143685576E-003
 -1.468098018176988E-003 -1.468109281058078E-003
 -1.468120751111766E-003 -1.468086537161413E-003
 -1.468110155175357E-003 -1.468097181684935E-003
 -1.468117559174367E-003 -1.468089737287133E-003
 -1.468141912874535E-003 -1.468065366643459E-003
 -1.468115483933720E-003 -1.468091880798463E-003
 -1.468128042565216E-003 -1.468079269038123E-003
 -1.468082848394277E-003 -1.468124427860670E-003
 -1.468090126974079E-003 -1.468117224614477E-003
 -1.468079891870931E-003 -1.468127424924236E-003
 -1.468123477541964E-003 -1.468083787647688E-003
 -1.468110446993255E-003 -1.468096896984144E-003
 -1.468115168301254E-003 -1.468092127976633E-003
 -1.468084029053290E-003 -1.468123248388655E-003
 -1.468099485357211E-003 -1.468107830192464E-003
 -1.468095185141907E-003 -1.468112100404467E-003
 -1.468070789011973E-003 -1.468136485763183E-003
 -1.468102840325786E-003 -1.468104513990110E-003
 -1.468100337458286E-003 -1.468106980158215E-003
 -1.468106109410237E-003 -1.468101161289969E-003
 -1.468105776467536E-003 -1.468101543333150E-003
 -1.468105584656037E-003 -1.468101728399879E-003
 -1.468133976610718E-003 -1.468073297638785E-003
 -1.468115135433793E-003 -1.468092219699162E-003
 -1.468121063123455E-003 -1.468086240073265E-003
 -1.468097082913786E-003 -1.468110214491654E-003
 -1.468113751935949E-003 -1.468093547511920E-003
 -1.468110406123474E-003 -1.468096865020466E-003
 -1.468094245553300E-003 -1.468113017873004E-003
 -1.468108957210675E-003 -1.468098406815823E-003
 -1.468115877518492E-003 -1.468091431653532E-003
 -1.468116718274462E-003 -1.468090559158560E-003
 -1.468114370844081E-003 -1.468092964304006E-003
 -1.468121299715090E-003 -1.468086009574830E-003
 -1.468091641181597E-003 -1.468115616570419E-003
 -1.468116333344008E-003 -1.468090931102323E-003
 -1.468095308306356E-003 -1.468112004316704E-003
 -1.468113220843183E-003 -1.468094057214669E-003
 -1.468113747958618E-003 -1.468093509042191E-003
 -1.468100634560531E-003 -1.468106661413605E-003
 -1.468124351607519E-003 -1.468082926739903E-003
 -1.468109247050004E-003 -1.468098053019827E-003
 -1.468106728228049E-003 -1.468100580449193E-003
 -1.468130011848403E-003 -1.468077239663415E-003
 -1.468114344054001E-003 -1.468092934006186E-003
 -1.468113511571996E-003 -1.468093798194155E-003
 -1.468103196703927E-003 -1.468104106807282E-003
 -1.468091229490885E-003 -1.468116029831283E-003
 -1.468100512407761E-003 -1.468106746059102E-003
 -1.468107360511404E-003 -1.468099938525198E-003
 -1.468102966807267E-003 -1.468104279673533E-003
 -1.468122061689761E-003 -1.468085216847431E-003
 -1.468098616199315E-003 -1.468108689358501E-003
 -1.468112621098937E-003 -1.468094673088477E-003
 -1.468125910543816E-003 -1.468081369077227E-003
 -1.468112992555555E-003 -1.468094337035625E-003
 -1.468111886937799E-003 -1.468095362583747E-003
 -1.468133056531927E-003 -1.468074199495957E-003
 -1.468108739892228E-003 -1.468098544280578E-003
 -1.468087582500540E-003 -1.468119663161026E-003
 -1.468111741386702E-003 -1.468095533243047E-003
 -1.468112187669300E-003 -1.468095111934087E-003
 -1.468087224076083E-003 -1.468120058160782E-003
 -1.468110089128980E-003 -1.468097194245985E-003
 -1.468097010935966E-003 -1.468110280929578E-003
 -1.468085269593063E-003 -1.468122013579820E-003
 -1.468128222369769E-003 -1.468079036807441E-003
 -1.468098941570611E-003 -1.468108329657127E-003
 -1.468122047783118E-003 -1.468085212488005E-003
 -1.468100253854050E-003 -1.468107032034162E-003
 -1.468115722202186E-003 -1.468091545760258E-003
 -1.468130348430027E-003 -1.468076918971064E-003
 -1.468086290571834E-003 -1.468121012707703E-003
 -1.468093647798003E-003 -1.468113629797233E-003
 -1.468120839897530E-003 -1.468086459855515E-003
 -1.468097689878454E-003 -1.468109600211786E-003
 -1.468092346576326E-003 -1.468114920243043E-003
 -1.468083394883374E-003 -1.468123860372513E-003
 -1.468124485373275E-003 -1.468082821733122E-003
 -1.468108648415786E-003 -1.468098619870235E-003
 -1.468085688535236E-003 -1.468121572983357E-003
 -1.468111438866885E-003 -1.468095843510778E-003
 -1.468109563049039E-003 -1.468097708110078E-003
 -1.468083503533394E-003 -1.468123796086804E-003
 -1.468107515924030E-003 -1.468099771871072E-003
 -1.468106456363511E-003 -1.468100817681809E-003
 -1.468123612392353E-003 -1.468083684427126E-003
 -1.468098912339112E-003 -1.468108352553331E-003
 -1.468106369986406E-003 -1.468100902810083E-003
 -1.468090100737881E-003 -1.468117160281694E-003
 -1.468118453767921E-003 -1.468088848098354E-003
 -1.468101533941399E-003 -1.468105711012492E-003
 -1.468085562833615E-003 -1.468121760659463E-003
 -1.468116586111797E-003 -1.468090681671218E-003
 -1.468095880203477E-003 -1.468111374385836E-003
 -1.468110745557489E-003 -1.468096532807333E-003
 -1.468090541045274E-003 -1.468116763835384E-003
 -1.468098727722792E-003 -1.468108552832239E-003
 -1.468109110479776E-003 -1.468098128963144E-003
 -1.468089473723901E-003 -1.468117792244007E-003
 -1.468098842792738E-003 -1.468108430797293E-003
 -1.468091716837997E-003 -1.468115561216008E-003
 -1.468088776239863E-003 -1.468118510227382E-003
 -1.468090700336746E-003 -1.468116558755471E-003
 -1.468093187010662E-003 -1.468114098834039E-003
 -1.468091994004220E-003 -1.468115299486214E-003
 -1.468100916608912E-003 -1.468106353242834E-003
 -1.468091226302808E-003 -1.468116044870689E-003
 -1.468105567268122E-003 -1.468101675099966E-003
 -1.468092491251766E-003 -1.468114764139163E-003
 -1.468092138293724E-003 -1.468115156709775E-003
 -1.468094888404803E-003 -1.468112398621398E-003
 -1.468099766517602E-003 -1.468107508036685E-003
 -1.468091442472258E-003 -1.468115851229603E-003
 -1.468092074124502E-003 -1.468115196485298E-003
 -1.468108857664536E-003 -1.468098420285871E-003
 -1.468116133227964E-003 -1.468091118825550E-003
 -1.468103232560314E-003 -1.468104020155946E-003
 -1.468113113016784E-003 -1.468094175618661E-003
 -1.468113350633269E-003 -1.468093934285818E-003
 -1.468117279358201E-003 -1.468089985130654E-003
 -1.468119086757244E-003 -1.468088178815405E-003
 -1.468110065514830E-003 -1.468097220457105E-003
 -1.468112272722474E-003 -1.468095014202510E-003
 -1.468108526821323E-003 -1.468098751754868E-003
 -1.468096795803984E-003 -1.468110429965579E-003
 -1.468114447888051E-003 -1.468092831252441E-003
 -1.468118899854134E-003 -1.468088365252335E-003
 -1.468108034633133E-003 -1.468099247933424E-003
 -1.468113617207576E-003 -1.468093674464254E-003
 -1.468113038941795E-003 -1.468094248229735E-003
 -1.468110898395243E-003 -1.468096371026744E-003
 -1.468119169850996E-003 -1.468088110683025E-003
 Gradient of SCF Energy
            1           2           3           4           5           6
    1   0.0014657  -0.0002854  -0.0062450   0.0009181  -0.0013159  -0.0006539
    2   0.0018374  -0.0007567  -0.0014045   0.0010175  -0.0012307  -0.0009912
    3   0.0018059  -0.0003111  -0.0005387   0.0011898  -0.0010717  -0.0010303
            7           8           9          10          11          12
    1   0.0006575   0.0010243   0.0028187   0.0021721  -0.0013035   0.0015387
    2  -0.0010508  -0.0009784  -0.0002337   0.0003898   0.0004243   0.0029862
    3  -0.0013301  -0.0012336  -0.0006190  -0.0000065   0.0006123   0.0029630
           13          14          15          16          17          18
    1  -0.0001730   0.0010737   0.0026855  -0.0017616  -0.0008607  -0.0019679
    2  -0.0002725  -0.0006566   0.0026000   0.0013077   0.0013454  -0.0003025
    3  -0.0003931  -0.0005442   0.0023871   0.0015709   0.0016312   0.0000014
           19          20          21          22          23          24
    1  -0.0018702  -0.0006853  -0.0008764   0.0015385  -0.0026573   0.0006153
    2  -0.0000593  -0.0013987  -0.0008947  -0.0039420  -0.0029658   0.0004301
    3   0.0002330  -0.0014555  -0.0008091  -0.0045390  -0.0034368   0.0008589
           25          26          27          28          29          30
    1  -0.0011655   0.0018875   0.0003461  -0.0008383   0.0023802   0.0009131
    2   0.0011132   0.0059133   0.0007087  -0.0033845  -0.0021041   0.0012643
    3  -0.0030916  -0.0015003   0.0003749   0.0006896   0.0057984   0.0012712
           31          32          33          34          35          36
    1  -0.0062219   0.0003004   0.0035013   0.0039900   0.0036288  -0.0019845
    2   0.0022316  -0.0024603   0.0013713  -0.0031373  -0.0047510   0.0009593
    3   0.0001167  -0.0003343   0.0008488  -0.0038563  -0.0031632  -0.0012504
           37          38          39          40          41          42
    1   0.0004174  -0.0061733   0.0033461   0.0005632  -0.0000978  -0.0019078
    2   0.0021991   0.0006987  -0.0016418   0.0023853  -0.0019979  -0.0014231
    3   0.0032992   0.0017899   0.0028722  -0.0006446  -0.0023692  -0.0017746
           43          44          45          46          47          48
    1  -0.0003077   0.0001268  -0.0032199   0.0030970   0.0043449  -0.0000586
    2   0.0003052   0.0010736  -0.0019463  -0.0035754  -0.0007640   0.0010686
    3   0.0001010   0.0014143  -0.0028507  -0.0034545  -0.0002672   0.0015358
           49          50          51          52          53          54
    1   0.0004702   0.0007033  -0.0021571  -0.0003098  -0.0026455   0.0009086
    2   0.0005434   0.0012291   0.0030926  -0.0013144  -0.0003474  -0.0005601
    3   0.0006814   0.0013328   0.0030731  -0.0015285  -0.0008024  -0.0004506
           55          56          57          58          59          60
    1  -0.0009722  -0.0031787   0.0019846  -0.0005026  -0.0010108  -0.0003019
    2   0.0005942   0.0009788   0.0020773  -0.0004946  -0.0007719  -0.0008306
    3   0.0004857   0.0005173   0.0027573  -0.0006393  -0.0010958  -0.0009781
           61          62          63          64          65          66
    1   0.0030865   0.0006524   0.0016097   0.0001422   0.0021327  -0.0007708
    2  -0.0004237  -0.0005064  -0.0013304  -0.0002469   0.0013168  -0.0003446
    3   0.0000478  -0.0004555  -0.0012376  -0.0002547   0.0017976  -0.0005143
           67          68          69          70          71          72
    1   0.0003634   0.0015616  -0.0024635  -0.0056021  -0.0016710   0.0016297
    2  -0.0002018   0.0005445  -0.0024485   0.0016753   0.0030075   0.0001209
    3  -0.0000578   0.0006838  -0.0030680   0.0006064   0.0029313   0.0001795
           73          74          75          76          77          78
    1   0.0007830   0.0015456   0.0047075  -0.0019208  -0.0001387  -0.0008798
    2   0.0004557   0.0005904  -0.0013685  -0.0003819  -0.0018136   0.0006000
    3   0.0006896   0.0013644  -0.0002149  -0.0008215  -0.0019547   0.0004542
           79          80          81          82          83          84
    1   0.0009933   0.0017420   0.0025022  -0.0002582  -0.0010618  -0.0011139
    2  -0.0006192  -0.0023207   0.0014657  -0.0002850  -0.0007843  -0.0002452
    3  -0.0004489  -0.0018976   0.0022789  -0.0004421  -0.0011099  -0.0005585
           85          86          87          88          89          90
    1  -0.0009513  -0.0008169  -0.0021922  -0.0004227   0.0016424  -0.0002983
    2   0.0021621   0.0004756   0.0009851   0.0001808   0.0015103  -0.0003723
    3   0.0019833   0.0002655   0.0004546   0.0000599   0.0019403  -0.0004936
           91          92          93          94          95          96
    1  -0.0003043   0.0005988   0.0011464   0.0029184  -0.0019052  -0.0025816
    2  -0.0003811   0.0005365   0.0003280   0.0000169   0.0024379  -0.0018766
    3  -0.0007463   0.0007362   0.0013030   0.0040879  -0.0047830  -0.0032233
           97          98          99         100         101         102
    1   0.0028222  -0.0023927   0.0008462   0.0044262  -0.0020954   0.0002213
    2   0.0035713  -0.0052210   0.0010326   0.0026607   0.0001598  -0.0056294
    3   0.0020459   0.0000867   0.0010670   0.0045307  -0.0001165  -0.0095201
          103         104         105         106         107         108
    1   0.0028587   0.0042937  -0.0074546   0.0043054  -0.0089064   0.0003960
    2   0.0017205   0.0015478  -0.0035515   0.0001916   0.0008469  -0.0009337
    3   0.0029998   0.0025727  -0.0062471   0.0004830   0.0013328  -0.0016489
          109         110         111         112         113         114
    1  -0.0026521   0.0011330   0.0031237   0.0002992  -0.0108417   0.0023256
    2   0.0036160  -0.0016046   0.0020183  -0.0011217  -0.0008700   0.0023405
    3   0.0060254  -0.0022990   0.0034886  -0.0017396  -0.0013779   0.0040819
          115         116         117         118         119         120
    1  -0.0055420  -0.0003861   0.0032948  -0.0020586   0.0076657  -0.0033505
    2  -0.0042475   0.0021323  -0.0042566   0.0000198  -0.0007242   0.0004443
    3  -0.0074003   0.0037227  -0.0074263   0.0000516  -0.0010573   0.0004260
          121         122         123         124         125         126
    1   0.0036142   0.0021671  -0.0003880  -0.0018530   0.0015262   0.0015518
    2   0.0020541   0.0023106  -0.0015384  -0.0009225   0.0027645   0.0004450
    3   0.0036130   0.0014048  -0.0007084  -0.0009112   0.0017860   0.0031122
          127         128         129         130         131         132
    1  -0.0011432  -0.0006835   0.0027962  -0.0016832  -0.0005943  -0.0004548
    2   0.0003970  -0.0009302  -0.0002311   0.0009300  -0.0004900  -0.0002915
    3  -0.0011206  -0.0020979   0.0025840  -0.0014212  -0.0011052  -0.0002477
          133         134         135         136         137         138
    1  -0.0002709  -0.0001761  -0.0012224   0.0007173  -0.0000820  -0.0029227
    2  -0.0020128  -0.0002963  -0.0006426  -0.0009066   0.0046176  -0.0008202
    3  -0.0007509  -0.0002879  -0.0008386   0.0020483   0.0003689  -0.0009065
          139         140         141         142         143         144
    1   0.0059678   0.0060239   0.0011383   0.0000476   0.0012548  -0.0013705
    2  -0.0066771   0.0140807  -0.0023517   0.0039820  -0.0001890  -0.0001926
    3   0.0122750   0.0001797   0.0036749  -0.0023407   0.0025475   0.0003068
          145         146         147         148         149         150
    1   0.0007266   0.0006788   0.0007093  -0.0013462   0.0027863  -0.0081718
    2  -0.0008569   0.0027264  -0.0005860  -0.0000286   0.0068003   0.0002038
    3  -0.0007778  -0.0003080  -0.0010263  -0.0000350  -0.0002634   0.0003821
          151         152         153         154
    1   0.0016584   0.0027430   0.0018313  -0.0080198
    2  -0.0040368  -0.0035127  -0.0040551   0.0001519
    3  -0.0069392   0.0057935  -0.0068879   0.0003914
 Max gradient component =       1.408E-02
 RMS gradient           =       2.601E-03
 Computing fast IEFPCM-SWIG gradient.
