mFile = /cm/shared/apps/q-chem/intel/QCHEM_5.1.0_Trunk/bin/mpi/machines
Process 0 of 1 is on ctcp014 - thread support 0
initial socket setup ...start
initial socket setup ...done 
now start server 0 ... 
Q-Chem Developer Version!
                  Welcome to Q-Chem
     A Quantum Leap Into The Future Of Chemistry


 Q-Chem 5.1, Q-Chem, Inc., Pleasanton, CA (2018)

 Yihan Shao,  Zhengting Gan,  E. Epifanovsky,  A. T. B. Gilbert,  M. Wormit,  
 J. Kussmann,  A. W. Lange,  A. Behn,  Jia Deng,  Xintian Feng,  D. Ghosh,  
 M. Goldey,  P. R. Horn,  L. D. Jacobson,  I. Kaliman,  T. Kus,  A. Landau,  
 Jie Liu,  E. I. Proynov,  R. M. Richard,  R. P. Steele,  E. J. Sundstrom,  
 H. L. Woodcock III,  P. M. Zimmerman,  D. Zuev,  B. Albrecht,  E. Alguire,  
 S. A. Baeppler,  D. Barton,  Z. Benda,  Y. A. Bernard,  E. J. Berquist,  
 K. B. Bravaya,  H. Burton,  D. Casanova,  Chun-Min Chang,  Yunqing Chen,  
 A. Chien,  K. D. Closser,  M. P. Coons,  S. Coriani,  S. Dasgupta,  
 A. L. Dempwolff,  M. Diedenhofen,  Hainam Do,  R. G. Edgar,  Po-Tung Fang,  
 S. Faraji,  S. Fatehi,  Qingguo Feng,  K. D. Fenk,  J. Fosso-Tande,  
 Qinghui Ge,  A. Ghysels,  G. Gidofalvi,  J. Gomes,  J. Gonthier,  A. Gunina,  
 D. Hait,  M. W. D. Hanson-Heine,  P. H. P. Harbach,  A. W. Hauser,  
 J. E. Herr,  E. G. Hohenstein,  Z. C. Holden,  Kerwin Hui,  B. C. Huynh,  
 T.-C. Jagau,  Hyunjun Ji,  B. Kaduk,  K. Khistyaev,  Jaehoon Kim,  
 P. Klunzinger,  K. Koh,  D. Kosenkov,  L. Koulias,  T. Kowalczyk,  
 C. M. Krauter,  A. Kunitsa,  Ka Un Lao,  A. Laurent,  K. V. Lawler,  
 Joonho Lee,  D. Lefrancois,  S. Lehtola,  D. S. Levine,  Yi-Pei Li,  
 You-Sheng Lin,  Fenglai Liu,  E. Livshits,  A. Luenser,  P. Manohar,  
 E. Mansoor,  S. F. Manzer,  Shan-Ping Mao,  Yuezhi Mao,  N. Mardirossian,  
 A. V. Marenich,  T. Markovich,  L. A. Martinez-Martinez,  S. A. Maurer,  
 N. J. Mayhall,  S. C. McKenzie,  J.-M. Mewes,  A. F. Morrison,  
 J. W. Mullinax,  K. Nanda,  T. S. Nguyen-Beck,  R. Olivares-Amaya,  
 J. A. Parkhill,  T. M. Perrine,  F. Plasser,  P. Pokhilko,  S. Prager,  
 A. Prociuk,  E. Ramos,  D. R. Rehn,  F. Rob,  M. Schneider,  N. Sergueev,  
 S. M. Sharada,  S. Sharma,  D. W. Small,  T. Stauch,  T. Stein,  
 Yu-Chuan Su,  A. J. W. Thom,  A. Tkatchenko,  T. Tsuchimochi,  N. M. Tubman,  
 L. Vogt,  M. L. Vidal,  O. Vydrov,  M. A. Watson,  J. Wenzel,  
 M. de Wergifosse,  T. A. Wesolowski,  A. White,  J. Witte,  A. Yamada,  
 Jun Yang,  K. Yao,  S. Yeganeh,  S. R. Yost,  Zhi-Qiang You,  A. Zech,  
 Igor Ying Zhang,  Xing Zhang,  Yan Zhao,  Ying Zhu,  B. R. Brooks,  
 G. K. L. Chan,  C. J. Cramer,  M. S. Gordon,  W. J. Hehre,  A. Klamt,  
 M. W. Schmidt,  C. D. Sherrill,  D. G. Truhlar,  A. Aspuru-Guzik,  R. Baer,  
 A. T. Bell,  N. A. Besley,  Jeng-Da Chai,  A. E. DePrince, III,  
 R. A. DiStasio Jr.,  A. Dreuw,  B. D. Dunietz,  T. R. Furlani,  
 Chao-Ping Hsu,  Yousung Jung,  Jing Kong,  D. S. Lambrecht,  WanZhen Liang,  
 C. Ochsenfeld,  V. A. Rassolov,  L. V. Slipchenko,  J. E. Subotnik,  
 T. Van Voorhis,  J. M. Herbert,  A. I. Krylov,  P. M. W. Gill,  M. Head-Gordon

 Contributors to earlier versions of Q-Chem not listed above: 
 R. D. Adamson,  B. Austin,  J. Baker,  G. J. O. Beran,  K. Brandhorst,  
 S. T. Brown,  E. F. C. Byrd,  A. K. Chakraborty,  C.-L. Cheng,  
 Siu Hung Chien,  D. M. Chipman,  D. L. Crittenden,  H. Dachsel,  
 R. J. Doerksen,  A. D. Dutoi,  L. Fusti-Molnar,  W. A. Goddard III,  
 A. Golubeva-Zadorozhnaya,  S. R. Gwaltney,  G. Hawkins,  A. Heyden,  
 S. Hirata,  G. Kedziora,  F. J. Keil,  C. Kelley,  Jihan Kim,  R. A. King,  
 R. Z. Khaliullin,  P. P. Korambath,  W. Kurlancheek,  A. M. Lee,  M. S. Lee,  
 S. V. Levchenko,  Ching Yeh Lin,  D. Liotard,  R. C. Lochan,  I. Lotan,  
 P. E. Maslen,  N. Nair,  D. P. O'Neill,  D. Neuhauser,  E. Neuscamman,  
 C. M. Oana,  R. Olson,  B. Peters,  R. Peverati,  P. A. Pieniazek,  
 Y. M. Rhee,  J. Ritchie,  M. A. Rohrdanz,  E. Rosta,  N. J. Russ,  
 H. F. Schaefer III,  N. E. Schultz,  N. Shenvi,  A. C. Simmonett,  A. Sodt,  
 D. Stuck,  K. S. Thanthiriwatte,  V. Vanovschi,  Tao Wang,  A. Warshel,  
 C. F. Williams,  Q. Wu,  X. Xu,  W. Zhang

 Please cite Q-Chem as follows:
 Y. Shao et al., Mol. Phys. 113, 184-215 (2015)
 DOI: 10.1080/00268976.2014.952696

 Q-Chem 5.1.1 for Intel X86 EM64T Linux

 Parts of Q-Chem use Armadillo 8.300.2 (Tropical Shenanigans).
 http://arma.sourceforge.net/

 Q-Chem begins on Tue Oct 23 17:21:39 2018  

Host: ctcp014
0

     Scratch files written to /scratch/mewes1/138165/plot_triplets.out.plots//
 Parallel job on  1  processors
Input Ideriv = 1
Curr. Ideriv = -1
Max.  Ideriv = 1

Checking the input file for inconsistencies... 	...done.

--------------------------------------------------------------
User input:
--------------------------------------------------------------
$rem
threads 8
jobtype	sp
method PBEh-3c
basis def2-mSVP
mem_static	1024
mem_total	14000
sym_ignore	true
cis_n_roots             6
cis_singlets            false
cis_triplets		true
rpa                     false
state_analysis 		true
make_cube_files		true
cis_moments		true
sym_ignore              true
$end


$plots
att. det. elec. hole and diff. dens for gsopt.out
146 -14.83 3.83
169 -13.07 7.89
200 -12.77 11.23
0 0 0 2
1 2
$end


$molecule
0 1
C        -4.7521522544   -0.1710542294    4.4263450821
C        -5.4082626041   -0.7702771433    3.3614815748
C        -4.7075371224   -1.0741851724    2.1863029664
C        -3.3453336227   -0.7647934094    2.1052090714
C        -2.7093853255   -0.1409398424    3.1710313021
C        -3.4032374244    0.1553597765    4.3366023709
N        -2.7444710869    0.7601847121    5.4251073598
C        -6.8624055210   -1.1367410492    3.4805221188
C        -2.5667315591   -1.0568228612    0.8477699908
C        -1.5306243957    0.2257058032    5.8802510206
C        -0.5176276008    1.0596154428    6.3524680964
C        -4.0423789774    2.8048661638    5.3882477043
C        -3.3746922668    1.8127380225    6.1058429332
C        -4.6973621109    3.8272959341    6.0523569248
C        -4.6831256247    3.8919793241    7.4382703368
C        -4.0112038992    2.9115393227    8.1532623761
C        -3.3696972241    1.8731806323    7.4985261053
C        -1.3156219519   -1.1525321562    5.8573391268
C        -0.1097956147   -1.6793857552    6.2866281511
C         0.8934613451   -0.8496692662    6.7648485234
C         0.6770470177    0.5202592278    6.7988991995
C        -6.8778749469   -1.6831564950   -1.1237585027
C        -6.2882787874   -1.0054558877   -0.0298824444
B        -5.4467480607   -1.8044817369    1.0081880679
C        -5.3483493808   -3.3546019070    0.8920575309
C        -5.9310815272   -4.0214232475   -0.2110909765
B        -6.7008672517   -3.2202682178   -1.2933194849
C        -4.6830196179   -4.0926442056    1.8757908773
C        -4.5951758550   -5.4686632519    1.7674784364
C        -5.1703893867   -6.1284212624    0.6592805927
C        -5.8281232065   -5.4092078393   -0.3193924319
C        -7.6258438936   -0.9686285222   -2.0599775259
C        -7.8018691185    0.3925053351   -1.9081973797
C        -7.2170521209    1.0762140393   -0.8205513830
C        -6.4607830667    0.3766068239    0.1041754107
C        -3.2793595612   -6.4754739439    3.8027740159
C        -2.8249770124   -7.7075530416    4.3309401304
C        -3.0561083321   -8.9101468904    3.7058845530
C        -3.7728323536   -8.9483236187    2.4865264961
C        -4.2055661562   -7.7218666756    1.9941767297
C        -3.9762508375   -6.4842512859    2.6237755595
C        -4.0983826006  -10.0854316870    1.7076370284
C        -4.8030313262   -9.9405710647    0.5358945343
C        -5.2284411381   -8.6783817265    0.0589313609
C        -4.9260275815   -7.5637591239    0.7966606500
C        -7.8877125875    4.8498478566   -0.6586723454
C        -7.3336255387    3.6266241491   -0.2102077358
C        -7.5810064097    2.4918360373   -0.9348828942
C        -8.3772228644    2.6011400734   -2.0911873943
C        -8.9385056017    3.7836282248   -2.5567002998
C        -8.6650704851    4.9410676878   -1.7894896766
C        -8.5420786958    1.3535433406   -2.7186815461
C        -9.2985402942    1.2783603719   -3.8580363485
C        -9.8820639380    2.4664063171   -4.3559432214
C        -9.7154509768    3.6832542129   -3.7369255188
C        -9.1585133558   -4.8775197675   -3.7817684365
C        -8.6349750047   -4.3272719924   -2.6172100126
C        -7.2944592626   -3.9381779778   -2.5594171755
C        -6.4828780162   -4.1539715427   -3.6843900658
C        -7.0111342625   -4.7300227272   -4.8283764750
C        -8.3582567185   -5.0794340753   -4.8970517742
N        -8.8915468697   -5.6113663561   -6.0843915339
C        -9.5446986511   -4.1952705009   -1.4235199625
C        -5.0308769626   -3.7654333391   -3.6514924931
C        -8.5174588806   -5.0725092737   -7.3275553433
C        -8.3791328701   -3.6966822607   -7.5006126426
C       -11.0024192168   -6.5184125267   -6.8728682782
C        -9.8877327969   -6.6003760769   -6.0391624736
C       -11.9756021221   -7.5029801923   -6.8385968231
C       -11.8677505430   -8.5719922963   -5.9618394684
C       -10.7650389687   -8.6501684269   -5.1235321115
C        -9.7762403069   -7.6816077065   -5.1655606438
C        -8.2912367013   -5.9172952234   -8.4138932634
C        -7.9478079277   -5.3930153638   -9.6482195999
C        -7.8023991596   -4.0236244614   -9.8164674183
C        -8.0148334979   -3.1823510037   -8.7343233322
H        -5.2929057776    0.0388592707    5.3415069865
H        -1.6559121020    0.1048654638    3.0997614672
H        -7.0213727507   -2.2013169545    3.2930837966
H        -7.4756455884   -0.5933630197    2.7585202377
H        -7.2545777477   -0.9178782580    4.4730351611
H        -2.9218597639   -1.9876549232    0.3953723070
H        -1.5181679195   -1.2321133755    1.1006190330
C        -2.6550066956    0.0706669978   -0.1786097507
H        -0.6679480435    2.1313303901    6.3660835037
H        -4.0511221687    2.7659220663    4.3064950441
H        -5.2134386963    4.5864861214    5.4789350345
H        -5.1912350897    4.6951651669    7.9545481514
H        -3.9995265418    2.9417430458    9.2350926722
H        -2.8680841410    1.1015139977    8.0681001930
H        -2.0960296979   -1.8112325698    5.4987271621
H         0.0397015747   -2.7511319144    6.2583757678
H         1.8321764964   -1.2650647392    7.1056498966
H         1.4527154996    1.1819146112    7.1620695180
H        -4.2380850809   -3.5794893109    2.7202500221
H        -6.2684202870   -5.9159431568   -1.1720260743
H        -8.0712768796   -1.4891863192   -2.9005770139
H        -5.9978703329    0.8933392785    0.9378418471
H        -3.0695361414   -5.5568960601    4.3357859737
H        -2.2747525822   -7.6987248913    5.2625283217
H        -2.6881651763   -9.8284528938    4.1470305600
H        -3.7925222730  -11.0722538370    2.0331698658
H        -5.0421219591  -10.8208952821   -0.0466690533
H        -5.7783993644   -8.6186566898   -0.8723155367
H        -7.6901238199    5.7455872987   -0.0848826820
H        -6.7314042270    3.6097829159    0.6893637118
H        -9.0679372289    5.8999366635   -2.0913156583
H        -9.4594259602    0.3419785958   -4.3784109386
H       -10.4811990403    2.4116784151   -5.2555523916
H       -10.1825049587    4.5666038066   -4.1546440319
H       -10.2099799525   -5.1403688761   -3.8208789812
H        -6.3739382788   -4.8953663846   -5.6892341956
H       -10.5238243964   -3.8297540227   -1.7447558077
H        -9.1623095401   -3.4447460237   -0.7262859263
C        -9.7179730817   -5.5249000834   -0.6928079056
H        -4.5469980474   -3.9397016184   -4.6118888600
H        -4.4812451832   -4.3333397572   -2.8980389182
H        -4.9043570513   -2.7076598202   -3.4095426598
H        -8.5579541771   -3.0312657285   -6.6663130731
H       -11.1046540285   -5.6827303350   -7.5530335639
H       -12.8329133884   -7.4240631788   -7.4946388395
H       -12.6332843665   -9.3357379342   -5.9323460855
H       -10.6631276703   -9.4829487335   -4.4396756853
H        -8.9116768365   -7.7607217287   -4.5192314286
H        -8.3909083754   -6.9879400054   -8.2884375576
H        -7.7786653583   -6.0631593872  -10.4812119607
H        -7.5256561316   -3.6169301914  -10.7798892203
H        -7.9104063536   -2.1116155514   -8.8526459884
H       -10.1391683036   -6.2832436984   -1.3542023550
H       -10.3852056905   -5.4198657276    0.1632213513
H        -8.7618257591   -5.8984859502   -0.3251127582
H        -2.0636270088   -0.1625213900   -1.0647293477
H        -2.2824168980    1.0077276922    0.2361056809
H        -3.6824792257    0.2364853002   -0.5020268896
$end

--------------------------------------------------------------
 Adding empirical dispersion correction 
 ----------------------------------------------------------------
 Doing -D3(BJ) with
 s6 =   1.00000
 s8 =   0.00000
 a1 =   0.48600
 a2 =   4.50000
 -D3 energy including 3body term =     -0.1279806498 hartrees
 ----------------------------------------------------------------
 Adding gCP correction 
 ----------------------------------------------------------------
 gCP energy =      0.1809100616 hartrees
 ----------------------------------------------------------------
             Standard Nuclear Orientation (Angstroms)
    I     Atom           X                Y                Z
 ----------------------------------------------------------------
    1      C      -4.7521522544    -0.1710542294     4.4263450821
    2      C      -5.4082626041    -0.7702771433     3.3614815748
    3      C      -4.7075371224    -1.0741851724     2.1863029664
    4      C      -3.3453336227    -0.7647934094     2.1052090714
    5      C      -2.7093853255    -0.1409398424     3.1710313021
    6      C      -3.4032374244     0.1553597765     4.3366023709
    7      N      -2.7444710869     0.7601847121     5.4251073598
    8      C      -6.8624055210    -1.1367410492     3.4805221188
    9      C      -2.5667315591    -1.0568228612     0.8477699908
   10      C      -1.5306243957     0.2257058032     5.8802510206
   11      C      -0.5176276008     1.0596154428     6.3524680964
   12      C      -4.0423789774     2.8048661638     5.3882477043
   13      C      -3.3746922668     1.8127380225     6.1058429332
   14      C      -4.6973621109     3.8272959341     6.0523569248
   15      C      -4.6831256247     3.8919793241     7.4382703368
   16      C      -4.0112038992     2.9115393227     8.1532623761
   17      C      -3.3696972241     1.8731806323     7.4985261053
   18      C      -1.3156219519    -1.1525321562     5.8573391268
   19      C      -0.1097956147    -1.6793857552     6.2866281511
   20      C       0.8934613451    -0.8496692662     6.7648485234
   21      C       0.6770470177     0.5202592278     6.7988991995
   22      C      -6.8778749469    -1.6831564950    -1.1237585027
   23      C      -6.2882787874    -1.0054558877    -0.0298824444
   24      B      -5.4467480607    -1.8044817369     1.0081880679
   25      C      -5.3483493808    -3.3546019070     0.8920575309
   26      C      -5.9310815272    -4.0214232475    -0.2110909765
   27      B      -6.7008672517    -3.2202682178    -1.2933194849
   28      C      -4.6830196179    -4.0926442056     1.8757908773
   29      C      -4.5951758550    -5.4686632519     1.7674784364
   30      C      -5.1703893867    -6.1284212624     0.6592805927
   31      C      -5.8281232065    -5.4092078393    -0.3193924319
   32      C      -7.6258438936    -0.9686285222    -2.0599775259
   33      C      -7.8018691185     0.3925053351    -1.9081973797
   34      C      -7.2170521209     1.0762140393    -0.8205513830
   35      C      -6.4607830667     0.3766068239     0.1041754107
   36      C      -3.2793595612    -6.4754739439     3.8027740159
   37      C      -2.8249770124    -7.7075530416     4.3309401304
   38      C      -3.0561083321    -8.9101468904     3.7058845530
   39      C      -3.7728323536    -8.9483236187     2.4865264961
   40      C      -4.2055661562    -7.7218666756     1.9941767297
   41      C      -3.9762508375    -6.4842512859     2.6237755595
   42      C      -4.0983826006   -10.0854316870     1.7076370284
   43      C      -4.8030313262    -9.9405710647     0.5358945343
   44      C      -5.2284411381    -8.6783817265     0.0589313609
   45      C      -4.9260275815    -7.5637591239     0.7966606500
   46      C      -7.8877125875     4.8498478566    -0.6586723454
   47      C      -7.3336255387     3.6266241491    -0.2102077358
   48      C      -7.5810064097     2.4918360373    -0.9348828942
   49      C      -8.3772228644     2.6011400734    -2.0911873943
   50      C      -8.9385056017     3.7836282248    -2.5567002998
   51      C      -8.6650704851     4.9410676878    -1.7894896766
   52      C      -8.5420786958     1.3535433406    -2.7186815461
   53      C      -9.2985402942     1.2783603719    -3.8580363485
   54      C      -9.8820639380     2.4664063171    -4.3559432214
   55      C      -9.7154509768     3.6832542129    -3.7369255188
   56      C      -9.1585133558    -4.8775197675    -3.7817684365
   57      C      -8.6349750047    -4.3272719924    -2.6172100126
   58      C      -7.2944592626    -3.9381779778    -2.5594171755
   59      C      -6.4828780162    -4.1539715427    -3.6843900658
   60      C      -7.0111342625    -4.7300227272    -4.8283764750
   61      C      -8.3582567185    -5.0794340753    -4.8970517742
   62      N      -8.8915468697    -5.6113663561    -6.0843915339
   63      C      -9.5446986511    -4.1952705009    -1.4235199625
   64      C      -5.0308769626    -3.7654333391    -3.6514924931
   65      C      -8.5174588806    -5.0725092737    -7.3275553433
   66      C      -8.3791328701    -3.6966822607    -7.5006126426
   67      C     -11.0024192168    -6.5184125267    -6.8728682782
   68      C      -9.8877327969    -6.6003760769    -6.0391624736
   69      C     -11.9756021221    -7.5029801923    -6.8385968231
   70      C     -11.8677505430    -8.5719922963    -5.9618394684
   71      C     -10.7650389687    -8.6501684269    -5.1235321115
   72      C      -9.7762403069    -7.6816077065    -5.1655606438
   73      C      -8.2912367013    -5.9172952234    -8.4138932634
   74      C      -7.9478079277    -5.3930153638    -9.6482195999
   75      C      -7.8023991596    -4.0236244614    -9.8164674183
   76      C      -8.0148334979    -3.1823510037    -8.7343233322
   77      H      -5.2929057776     0.0388592707     5.3415069865
   78      H      -1.6559121020     0.1048654638     3.0997614672
   79      H      -7.0213727507    -2.2013169545     3.2930837966
   80      H      -7.4756455884    -0.5933630197     2.7585202377
   81      H      -7.2545777477    -0.9178782580     4.4730351611
   82      H      -2.9218597639    -1.9876549232     0.3953723070
   83      H      -1.5181679195    -1.2321133755     1.1006190330
   84      C      -2.6550066956     0.0706669978    -0.1786097507
   85      H      -0.6679480435     2.1313303901     6.3660835037
   86      H      -4.0511221687     2.7659220663     4.3064950441
   87      H      -5.2134386963     4.5864861214     5.4789350345
   88      H      -5.1912350897     4.6951651669     7.9545481514
   89      H      -3.9995265418     2.9417430458     9.2350926722
   90      H      -2.8680841410     1.1015139977     8.0681001930
   91      H      -2.0960296979    -1.8112325698     5.4987271621
   92      H       0.0397015747    -2.7511319144     6.2583757678
   93      H       1.8321764964    -1.2650647392     7.1056498966
   94      H       1.4527154996     1.1819146112     7.1620695180
   95      H      -4.2380850809    -3.5794893109     2.7202500221
   96      H      -6.2684202870    -5.9159431568    -1.1720260743
   97      H      -8.0712768796    -1.4891863192    -2.9005770139
   98      H      -5.9978703329     0.8933392785     0.9378418471
   99      H      -3.0695361414    -5.5568960601     4.3357859737
  100      H      -2.2747525822    -7.6987248913     5.2625283217
  101      H      -2.6881651763    -9.8284528938     4.1470305600
  102      H      -3.7925222730   -11.0722538370     2.0331698658
  103      H      -5.0421219591   -10.8208952821    -0.0466690533
  104      H      -5.7783993644    -8.6186566898    -0.8723155367
  105      H      -7.6901238199     5.7455872987    -0.0848826820
  106      H      -6.7314042270     3.6097829159     0.6893637118
  107      H      -9.0679372289     5.8999366635    -2.0913156583
  108      H      -9.4594259602     0.3419785958    -4.3784109386
  109      H     -10.4811990403     2.4116784151    -5.2555523916
  110      H     -10.1825049587     4.5666038066    -4.1546440319
  111      H     -10.2099799525    -5.1403688761    -3.8208789812
  112      H      -6.3739382788    -4.8953663846    -5.6892341956
  113      H     -10.5238243964    -3.8297540227    -1.7447558077
  114      H      -9.1623095401    -3.4447460237    -0.7262859263
  115      C      -9.7179730817    -5.5249000834    -0.6928079056
  116      H      -4.5469980474    -3.9397016184    -4.6118888600
  117      H      -4.4812451832    -4.3333397572    -2.8980389182
  118      H      -4.9043570513    -2.7076598202    -3.4095426598
  119      H      -8.5579541771    -3.0312657285    -6.6663130731
  120      H     -11.1046540285    -5.6827303350    -7.5530335639
  121      H     -12.8329133884    -7.4240631788    -7.4946388395
  122      H     -12.6332843665    -9.3357379342    -5.9323460855
  123      H     -10.6631276703    -9.4829487335    -4.4396756853
  124      H      -8.9116768365    -7.7607217287    -4.5192314286
  125      H      -8.3909083754    -6.9879400054    -8.2884375576
  126      H      -7.7786653583    -6.0631593872   -10.4812119607
  127      H      -7.5256561316    -3.6169301914   -10.7798892203
  128      H      -7.9104063536    -2.1116155514    -8.8526459884
  129      H     -10.1391683036    -6.2832436984    -1.3542023550
  130      H     -10.3852056905    -5.4198657276     0.1632213513
  131      H      -8.7618257591    -5.8984859502    -0.3251127582
  132      H      -2.0636270088    -0.1625213900    -1.0647293477
  133      H      -2.2824168980     1.0077276922     0.2361056809
  134      H      -3.6824792257     0.2364853002    -0.5020268896
 ----------------------------------------------------------------
 Nuclear Repulsion Energy = 11430.5063166679 hartrees
 There are      262 alpha and      262 beta electrons
 Requested basis set is def2-mSVP
 There are 658 shells and 1282 basis functions

 Total QAlloc Memory Limit  14000 MB
 Mega-Array Size      1001 MB
 MEM_STATIC part      1024 MB
 A cutoff of  1.0D-11 yielded  58328 shell pairs
 There are    228568 function pairs (    251578 Cartesian)
 
 -------------------------------------------------------
 OpenMP Integral Computing Module                       
 Release: version 1.0, May 2013, Q-Chem Inc. Pittsburgh 
 -------------------------------------------------------
 Integral Job Info:
 Integral job number is                      11
 Integral operator is                         1
 short-range coefficients                     0
 long-range coefficients              100000000
 Omega coefficients                           0
 if combine SR and LR in K                    0
 Integral screening is                        0
 Integral computing path is                   2
 max size of driver memory is            800000
 size of driver memory is                593474
 size of scratch memory is              1809772
 max col of scratch BK array               1296
 max len of scratch array in speh3          155
 max len of scratch index in speh4           18
 max int batch size is                      520
 min int batch size is                       52
 fixed nKL is                                52
 max L of basis functions is                  2
 order of int derivative is                   0
 number of shells is                        658
 number of basis is                        1360
 number of cartesian basis is              1360
 number of contracted shell pairs         58328
 number of primitive shell pairs         121205
 maxK2 (contraction) of shell pair           25
 max number of K2 of shell pair               1
 max number of CS2 of shell pair          14273
 max number of PS2 of shell pair          21345
 mem total for path MDJ                 1089836
 -------------------------------------------------------
 Smallest overlap matrix eigenvalue = 1.95E-04

 Scale SEOQF with 1.000000e-02/1.000000e-02/1.000000e-02

 Standard Electronic Orientation quadrupole field applied
 Nucleus-field energy     =     0.0000000508 hartrees
 Guess from superposition of atomic densities
 Warning:  Energy on first SCF cycle will be non-variational
 SAD guess density has 524.000001 electrons

 -----------------------------------------------------------------------
  General SCF calculation program by
  Eric Jon Sundstrom, Paul Horn, Yuezhi Mao, Dmitri Zuev, Alec White,
  David Stuck, Shaama M.S., Shane Yost, Joonho Lee, David Small,
  Daniel Levine, Susi Lehtola, Hugh Burton, Evgeny Epifanovsky
 -----------------------------------------------------------------------
 Exchange:     0.4200 Hartree-Fock + 0.5800 PBEh-3c
 Correlation:  1.0000 PBEh-3c
 Using SG-1 standard quadrature grid
 Dispersion:   Grimme D3
 using 8 threads for integral computing
 -------------------------------------------------------
 OpenMP Integral computing Module                
 Release: version 2.0, May 2017, Q-Chem Inc. Pleasanton 
 -------------------------------------------------------
 -------------------------------------------------------
 OpenMP BLAS3 based DFT computing Module                
 Release: version 1.0, May 2013, Q-Chem Inc. Pittsburgh 
 -------------------------------------------------------
 A restricted SCF calculation will be
 performed using DIIS
 SCF converges when DIIS error is below 1.0e-08
 ---------------------------------------
  Cycle       Energy         DIIS error
 ---------------------------------------
    1   -3032.3295763400      2.39e-02  
    2   -3005.6799716890      1.64e-03  
    3   -3005.8409925627      1.50e-03  
    4   -3006.2530066135      5.64e-04  
    5   -3006.3194616514      1.73e-04  
    6   -3006.3257559616      5.90e-05  
    7   -3006.3264377774      1.62e-05  
    8   -3006.3264900581      6.17e-06  
    9   -3006.3264986702      1.44e-06  
   10   -3006.3264991817      5.52e-07  
   11   -3006.3264992634      2.08e-07  
   12   -3006.3264992756      7.63e-08  
   13   -3006.3264992773      2.45e-08  
   14   -3006.3264992775      1.06e-08  
   15   -3006.3264992775      6.48e-09  Convergence criterion met
 ---------------------------------------
 SCF time:   CPU 10963.03s  wall 1377.00s 
 SCF   energy in the final basis set =    -3006.3264992775
 Total energy in the final basis set =    -3006.3264992775
 
 Direct TDDFT/TDA calculation will be performed
 Exchange:     0.4200 Hartree-Fock + 0.5800 PBEh-3c
 Correlation:  1.0000 PBEh-3c
 Using SG-1 standard quadrature grid
 Dispersion:   Grimme D3
 Triplet excitation energies requested
 CIS energy converged when residual is below 10e- 6
 ---------------------------------------------------
 Iter    Rts Conv    Rts Left    Ttl Dev     Max Dev
 ---------------------------------------------------
   1         0           6      0.000171    0.000058
   2         0           6      0.000069    0.000025
   3         0           6      0.000068    0.000020
   4         0           6      0.000103    0.000046
   5         1           5      0.000074    0.000048
   6         2           4      0.000038    0.000023
   7         3           3      0.000022    0.000015
   8         4           2      0.000008    0.000005
   9         5           1      0.000003    0.000002
  10         6           0      0.000002    0.000001    Roots Converged
 ---------------------------------------------------
 
 ---------------------------------------------------
         TDDFT/TDA Excitation Energies              
 ---------------------------------------------------

 Excited state   1: excitation energy (eV) =    2.3484
 Total energy for state  1:                 -3006.24019579 au
    Multiplicity: Triplet
    Trans. Mom.:  0.0000 X   0.0000 Y   0.0000 Z
    Strength   :     0.0000000000
    D(255) --> V(  2) amplitude =  0.2682
    D(259) --> V(  1) amplitude =  0.8299
    D(260) --> V(  1) amplitude =  0.3681

 Excited state   2: excitation energy (eV) =    2.4816
 Total energy for state  2:                 -3006.23530205 au
    Multiplicity: Triplet
    Trans. Mom.:  0.0000 X   0.0000 Y   0.0000 Z
    Strength   :     0.0000000000
    D(261) --> V(  1) amplitude =  0.4067
    D(262) --> V(  1) amplitude =  0.8047

 Excited state   3: excitation energy (eV) =    2.5058
 Total energy for state  3:                 -3006.23441149 au
    Multiplicity: Triplet
    Trans. Mom.:  0.0000 X   0.0000 Y   0.0000 Z
    Strength   :     0.0000000000
    D(258) --> V(  2) amplitude = -0.4832
    D(259) --> V(  1) amplitude = -0.3124
    D(260) --> V(  1) amplitude =  0.6687
    D(261) --> V(  1) amplitude = -0.2656

 Excited state   4: excitation energy (eV) =    2.5414
 Total energy for state  4:                 -3006.23310597 au
    Multiplicity: Triplet
    Trans. Mom.:  0.0000 X   0.0000 Y   0.0000 Z
    Strength   :     0.0000000000
    D(258) --> V(  1) amplitude = -0.3114
    D(260) --> V(  2) amplitude =  0.2471
    D(261) --> V(  1) amplitude =  0.7869
    D(262) --> V(  1) amplitude = -0.3298

 Excited state   5: excitation energy (eV) =    2.5608
 Total energy for state  5:                 -3006.23239168 au
    Multiplicity: Triplet
    Trans. Mom.:  0.0000 X   0.0000 Y   0.0000 Z
    Strength   :     0.0000000000
    D(258) --> V(  1) amplitude = -0.6177
    D(258) --> V(  4) amplitude =  0.2203
    D(260) --> V(  2) amplitude =  0.4632
    D(261) --> V(  1) amplitude = -0.2739
    D(262) --> V(  1) amplitude =  0.3786

 Excited state   6: excitation energy (eV) =    2.7726
 Total energy for state  6:                 -3006.22460635 au
    Multiplicity: Triplet
    Trans. Mom.:  0.0000 X   0.0000 Y   0.0000 Z
    Strength   :     0.0000000000
    D(255) --> V(  1) amplitude =  0.6717
    D(259) --> V(  2) amplitude =  0.5414
 
 ---------------------------------------------------
  SETman timing summary (seconds)
  CPU time             10602.24s
  System time              0.00s
  Wall time             1517.95s
================================================================================
                             Excited State Analysis
================================================================================

Created directory /scratch/mewes1/138165/plot_triplets.out.plots/plots
  ----------------------------------------------------------------------------
                            Density Matrix Analysis
  ----------------------------------------------------------------------------

  Excited state   1:
  ------------------
    NOs
      Occupation of frontier NOs:
         0.8495   1.1505
      Number of electrons: 524.000000
      Number of unpaired electrons: n_u =  2.00000, n_u,nl =  1.98194
      NO participation ratio (PR_NO):  2.734045
    
    
    Mulliken Population Analysis
     Atom      Charge (e)              h+              e-           Del q
    ---------------------------------------------------------------------
      1 C       -0.350290        0.000069       -0.000436       -0.000367
      2 C        0.057162        0.000191       -0.001192       -0.001000
      3 C       -0.221064        0.000070       -0.002825       -0.002756
      4 C        0.076975        0.000110       -0.001346       -0.001236
      5 C       -0.350082        0.000044       -0.000266       -0.000222
      6 C        0.287964        0.000076       -0.000224       -0.000148
      7 N       -0.673093        0.000115       -0.000032        0.000083
      8 C       -0.762784        0.000359       -0.001552       -0.001193
      9 C       -0.553852        0.000420       -0.001723       -0.001303
     10 C        0.302427        0.000010       -0.000004        0.000006
     11 C       -0.280427        0.000023       -0.000013        0.000010
     12 C       -0.274754        0.000028       -0.000016        0.000012
     13 C        0.297428        0.000011       -0.000002        0.000009
     14 C       -0.212256        0.000001       -0.000003       -0.000002
     15 C       -0.238274        0.000031       -0.000020        0.000012
     16 C       -0.214318        0.000002       -0.000001        0.000001
     17 C       -0.282674        0.000023       -0.000017        0.000007
     18 C       -0.280138        0.000025       -0.000016        0.000009
     19 C       -0.211840        0.000001       -0.000001        0.000000
     20 C       -0.238897        0.000029       -0.000015        0.000013
     21 C       -0.214133        0.000002       -0.000000        0.000001
     22 C       -0.126343        0.089945       -0.057987        0.031959
     23 C       -0.102385        0.105570       -0.059485        0.046086
     24 B        0.573579        0.005455       -0.114539       -0.109084
     25 C       -0.113302        0.099310       -0.058676        0.040634
     26 C       -0.112871        0.092806       -0.056780        0.036025
     27 B        0.576540        0.004541       -0.111743       -0.107202
     28 C       -0.389312        0.006777       -0.012672       -0.005895
     29 C        0.135104        0.082079       -0.054231        0.027848
     30 C        0.121121        0.084422       -0.055145        0.029278
     31 C       -0.399661        0.007084       -0.011820       -0.004737
     32 C       -0.383396        0.007688       -0.011606       -0.003918
     33 C        0.120727        0.085819       -0.057223        0.028596
     34 C        0.138452        0.083239       -0.053399        0.029840
     35 C       -0.405366        0.006911       -0.013086       -0.006175
     36 C       -0.401926        0.008278       -0.027452       -0.019174
     37 C       -0.202966        0.002455       -0.002142        0.000313
     38 C       -0.344661        0.013053       -0.022002       -0.008949
     39 C        0.252038        0.001090       -0.001302       -0.000213
     40 C       -0.024739        0.039459       -0.000412        0.039047
     41 C        0.198489        0.007499       -0.006660        0.000839
     42 C       -0.339659        0.017643       -0.023858       -0.006216
     43 C       -0.202948        0.003619       -0.002277        0.001342
     44 C       -0.398494        0.011247       -0.029075       -0.017829
     45 C        0.202497        0.010937       -0.007644        0.003293
     46 C       -0.202785        0.002160       -0.002214       -0.000053
     47 C       -0.404684        0.007624       -0.027229       -0.019605
     48 C        0.197753        0.006678       -0.006546        0.000132
     49 C       -0.023765        0.040293       -0.000449        0.039844
     50 C        0.253483        0.001141       -0.001355       -0.000215
     51 C       -0.347050        0.012017       -0.021717       -0.009700
     52 C        0.200420        0.012659       -0.008389        0.004270
     53 C       -0.394826        0.012663       -0.030525       -0.017863
     54 C       -0.203879        0.004200       -0.002462        0.001737
     55 C       -0.338668        0.019951       -0.025450       -0.005499
     56 C       -0.359920        0.000030       -0.000259       -0.000229
     57 C        0.076231        0.000076       -0.001662       -0.001586
     58 C       -0.230759       -0.000108       -0.002467       -0.002574
     59 C        0.058919        0.000060       -0.001045       -0.000985
     60 C       -0.364867        0.000017       -0.000353       -0.000336
     61 C        0.316081        0.000026       -0.000178       -0.000152
     62 N       -0.674352        0.000035       -0.000046       -0.000011
     63 C       -0.548652        0.000224       -0.001729       -0.001505
     64 C       -0.762218        0.000253       -0.001430       -0.001177
     65 C        0.284263        0.000003       -0.000007       -0.000004
     66 C       -0.271994        0.000006       -0.000003        0.000003
     67 C       -0.279020        0.000006       -0.000003        0.000004
     68 C        0.289974        0.000003       -0.000007       -0.000004
     69 C       -0.213706        0.000001       -0.000000        0.000000
     70 C       -0.237387        0.000008       -0.000002        0.000006
     71 C       -0.214468        0.000000       -0.000001       -0.000000
     72 C       -0.273155        0.000007       -0.000003        0.000003
     73 C       -0.272949        0.000006       -0.000002        0.000004
     74 C       -0.214380        0.000000        0.000000        0.000000
     75 C       -0.236601        0.000008       -0.000002        0.000005
     76 C       -0.214506        0.000000       -0.000000       -0.000000
     77 H        0.232496        0.000009       -0.000172       -0.000163
     78 H        0.230367        0.000007       -0.000129       -0.000122
     79 H        0.245221        0.000077        0.000028        0.000104
     80 H        0.246192        0.000083        0.000051        0.000134
     81 H        0.239049        0.000031       -0.000724       -0.000694
     82 H        0.252382        0.000158       -0.000153        0.000006
     83 H        0.233159        0.000053       -0.000292       -0.000238
     84 C       -0.645864        0.000351       -0.000161        0.000191
     85 H        0.245352        0.000000       -0.000000        0.000000
     86 H        0.240135        0.000000        0.000000        0.000001
     87 H        0.216784        0.000000       -0.000000        0.000000
     88 H        0.216950        0.000000        0.000000        0.000000
     89 H        0.219907        0.000000        0.000000        0.000000
     90 H        0.245884        0.000000       -0.000000        0.000000
     91 H        0.240217        0.000000       -0.000000       -0.000000
     92 H        0.216222        0.000000       -0.000000        0.000000
     93 H        0.216590       -0.000000       -0.000000       -0.000000
     94 H        0.219579        0.000000       -0.000000        0.000000
     95 H        0.230464        0.000001       -0.000005       -0.000004
     96 H        0.232205        0.000001       -0.000004       -0.000003
     97 H        0.230301        0.000002       -0.000002       -0.000000
     98 H        0.233247        0.000003       -0.000004       -0.000002
     99 H        0.216713        0.000001       -0.000001       -0.000001
    100 H        0.226258        0.000000       -0.000000       -0.000000
    101 H        0.220745        0.000001       -0.000002       -0.000001
    102 H        0.220586        0.000002       -0.000003       -0.000001
    103 H        0.226748        0.000000       -0.000000       -0.000000
    104 H        0.218445        0.000001       -0.000002       -0.000001
    105 H        0.226154        0.000000       -0.000000        0.000000
    106 H        0.217610        0.000001       -0.000001       -0.000000
    107 H        0.220714        0.000001       -0.000002       -0.000001
    108 H        0.218149        0.000001       -0.000002       -0.000001
    109 H        0.226781        0.000000       -0.000000       -0.000000
    110 H        0.220382        0.000002       -0.000003       -0.000002
    111 H        0.235043        0.000005       -0.000138       -0.000133
    112 H        0.234742        0.000005       -0.000149       -0.000144
    113 H        0.231336        0.000006       -0.000228       -0.000222
    114 H        0.251444        0.000071       -0.000555       -0.000484
    115 C       -0.638951        0.000066       -0.000109       -0.000043
    116 H        0.239188        0.000027       -0.000652       -0.000626
    117 H        0.244884        0.000059        0.000055        0.000115
    118 H        0.244850        0.000073       -0.000001        0.000072
    119 H        0.239686        0.000000       -0.000001       -0.000001
    120 H        0.245771        0.000000       -0.000000       -0.000000
    121 H        0.220412        0.000000       -0.000000        0.000000
    122 H        0.217824        0.000000       -0.000000       -0.000000
    123 H        0.219032        0.000000       -0.000000       -0.000000
    124 H        0.240636        0.000000        0.000000        0.000000
    125 H        0.244589        0.000000       -0.000000       -0.000000
    126 H        0.220566        0.000000        0.000000        0.000000
    127 H        0.218120       -0.000000       -0.000000       -0.000000
    128 H        0.219616        0.000000       -0.000000       -0.000000
    129 H        0.218201        0.000047       -0.000060       -0.000013
    130 H        0.220039        0.000000       -0.000001       -0.000001
    131 H        0.231265        0.000015       -0.000034       -0.000019
    132 H        0.218676        0.000007       -0.000013       -0.000005
    133 H        0.217161        0.000139       -0.000008        0.000131
    134 H        0.243615        0.000081       -0.000068        0.000013
    ---------------------------------------------------------------------
     Sum:       -0.000000        1.000000       -1.000000       -0.000000
    
    Exciton analysis of the difference density matrix
      <r_h> [Ang]:                  [ -6.215727,  -2.513834,  -0.129962]
      <r_e> [Ang]:                  [ -6.192076,  -2.513778,  -0.117922]
      |<r_e - r_h>| [Ang]:            0.026539
      Hole size [Ang]:                4.193772
        Cartesian components [Ang]: [  1.624268,   3.496016,   1.651467]
      Electron size [Ang]:            4.285569
        Cartesian components [Ang]: [  1.694290,   3.465261,   1.867471]

  Excited state   2:
  ------------------
    NOs
      Occupation of frontier NOs:
         0.9381   1.0619
      Number of electrons: 524.000000
      Number of unpaired electrons: n_u =  2.00000, n_u,nl =  2.00022
      NO participation ratio (PR_NO):  2.267528
    
    
    Mulliken Population Analysis
     Atom      Charge (e)              h+              e-           Del q
    ---------------------------------------------------------------------
      1 C       -0.333591        0.016945       -0.000611        0.016333
      2 C        0.066496        0.009941       -0.001607        0.008334
      3 C       -0.175583        0.049297       -0.006571        0.042726
      4 C        0.085944        0.009423       -0.001691        0.007732
      5 C       -0.332984        0.017464       -0.000588        0.016876
      6 C        0.312815        0.025473       -0.000770        0.024703
      7 N       -0.610725        0.062509       -0.000059        0.062451
      8 C       -0.762996        0.000819       -0.002224       -0.001405
      9 C       -0.554371        0.000486       -0.002308       -0.001822
     10 C        0.308610        0.006219       -0.000031        0.006189
     11 C       -0.267756        0.012716       -0.000036        0.012681
     12 C       -0.261171        0.013635       -0.000039        0.013596
     13 C        0.303437        0.006038       -0.000019        0.006018
     14 C       -0.211613        0.000657       -0.000016        0.000641
     15 C       -0.222276        0.016071       -0.000061        0.016009
     16 C       -0.213142        0.001181       -0.000004        0.001177
     17 C       -0.270278        0.012456       -0.000053        0.012403
     18 C       -0.265981        0.014212       -0.000046        0.014166
     19 C       -0.211093        0.000752       -0.000004        0.000748
     20 C       -0.222268        0.016692       -0.000050        0.016643
     21 C       -0.213030        0.001109       -0.000005        0.001104
     22 C       -0.194916        0.015292       -0.051906       -0.036614
     23 C       -0.188965        0.011804       -0.052299       -0.040495
     24 B        0.541913        0.004765       -0.145515       -0.140750
     25 C       -0.192918        0.007256       -0.046237       -0.038982
     26 C       -0.182034        0.011235       -0.044372       -0.033137
     27 B        0.525462        0.006030       -0.164310       -0.158280
     28 C       -0.391408        0.002102       -0.010094       -0.007991
     29 C        0.069310        0.000600       -0.038547       -0.037947
     30 C        0.056511        0.000583       -0.035915       -0.035332
     31 C       -0.404712        0.002329       -0.012117       -0.009788
     32 C       -0.377997        0.013206       -0.011725        0.001482
     33 C        0.049060        0.001118       -0.044189       -0.043071
     34 C        0.064809        0.001192       -0.044994       -0.043802
     35 C       -0.397015        0.012349       -0.010174        0.002176
     36 C       -0.403704        0.000067       -0.021019       -0.020952
     37 C       -0.204520        0.000018       -0.001260       -0.001241
     38 C       -0.353171        0.000083       -0.017542       -0.017459
     39 C        0.251914        0.000015       -0.000352       -0.000336
     40 C       -0.063740        0.000145       -0.000099        0.000046
     41 C        0.194156        0.000104       -0.003597       -0.003493
     42 C       -0.350515        0.000039       -0.017111       -0.017072
     43 C       -0.205536        0.000006       -0.001253       -0.001246
     44 C       -0.401149        0.000039       -0.020523       -0.020484
     45 C        0.195934        0.000150       -0.003420       -0.003270
     46 C       -0.201567        0.006063       -0.004899        0.001165
     47 C       -0.408173        0.008335       -0.031429       -0.023095
     48 C        0.200030        0.013833       -0.011425        0.002408
     49 C       -0.063575        0.000617       -0.000582        0.000034
     50 C        0.253154        0.000749       -0.001292       -0.000543
     51 C       -0.353484        0.014391       -0.030525       -0.016134
     52 C        0.198990        0.014371       -0.011531        0.002840
     53 C       -0.400168        0.008868       -0.032073       -0.023205
     54 C       -0.204493        0.005943       -0.004820        0.001123
     55 C       -0.349261        0.015062       -0.031154       -0.016092
     56 C       -0.322153        0.038131       -0.000593        0.037538
     57 C        0.092486        0.017213       -0.002545        0.014669
     58 C       -0.141786        0.094480       -0.008082        0.086398
     59 C        0.074528        0.016213       -0.001589        0.014624
     60 C       -0.333563        0.031598       -0.000629        0.030969
     61 C        0.360871        0.045533       -0.000895        0.044638
     62 N       -0.562911        0.111565       -0.000134        0.111431
     63 C       -0.548946        0.000673       -0.002472       -0.001799
     64 C       -0.762580        0.000796       -0.002335       -0.001538
     65 C        0.294094        0.009869       -0.000042        0.009826
     66 C       -0.249852        0.022167       -0.000021        0.022146
     67 C       -0.258111        0.020926       -0.000013        0.020912
     68 C        0.299757        0.009818       -0.000040        0.009778
     69 C       -0.211849        0.001862       -0.000005        0.001857
     70 C       -0.211231        0.026178       -0.000016        0.026162
     71 C       -0.213369        0.001100       -0.000002        0.001098
     72 C       -0.250829        0.022355       -0.000025        0.022330
     73 C       -0.252788        0.020183       -0.000017        0.020166
     74 C       -0.212764        0.001617       -0.000001        0.001616
     75 C       -0.211142        0.025483       -0.000019        0.025464
     76 C       -0.213255        0.001254       -0.000003        0.001251
     77 H        0.232471        0.000036       -0.000224       -0.000188
     78 H        0.230341        0.000027       -0.000175       -0.000148
     79 H        0.245487        0.000297        0.000072        0.000369
     80 H        0.246763        0.000627        0.000079        0.000705
     81 H        0.238642        0.000022       -0.001122       -0.001100
     82 H        0.252450        0.000319       -0.000245        0.000074
     83 H        0.233100        0.000195       -0.000492       -0.000297
     84 C       -0.645634        0.000561       -0.000140        0.000421
     85 H        0.245377        0.000025       -0.000000        0.000025
     86 H        0.240200        0.000065        0.000002        0.000066
     87 H        0.216869        0.000085       -0.000000        0.000084
     88 H        0.216950        0.000000        0.000000        0.000000
     89 H        0.219968        0.000061       -0.000000        0.000061
     90 H        0.245918        0.000034        0.000000        0.000034
     91 H        0.240311        0.000094       -0.000001        0.000094
     92 H        0.216326        0.000104       -0.000000        0.000104
     93 H        0.216590        0.000000       -0.000000        0.000000
     94 H        0.219620        0.000041       -0.000000        0.000041
     95 H        0.230572        0.000106       -0.000001        0.000105
     96 H        0.232467        0.000256        0.000003        0.000259
     97 H        0.230403        0.000103       -0.000001        0.000102
     98 H        0.233376        0.000129       -0.000001        0.000128
     99 H        0.216715        0.000002       -0.000000        0.000002
    100 H        0.226258        0.000000       -0.000000        0.000000
    101 H        0.220746        0.000001       -0.000000        0.000001
    102 H        0.220588        0.000000       -0.000000        0.000000
    103 H        0.226748        0.000001       -0.000000        0.000001
    104 H        0.218449        0.000003       -0.000000        0.000003
    105 H        0.226153        0.000001       -0.000001       -0.000000
    106 H        0.217611        0.000002       -0.000002        0.000000
    107 H        0.220714        0.000003       -0.000004       -0.000001
    108 H        0.218156        0.000008       -0.000002        0.000005
    109 H        0.226781        0.000001       -0.000001       -0.000000
    110 H        0.220382        0.000002       -0.000004       -0.000002
    111 H        0.235047        0.000085       -0.000215       -0.000129
    112 H        0.234719        0.000054       -0.000222       -0.000167
    113 H        0.231674        0.000525       -0.000410        0.000116
    114 H        0.251007        0.000050       -0.000972       -0.000922
    115 C       -0.637652        0.001377       -0.000120        0.001256
    116 H        0.238678        0.000017       -0.001153       -0.001136
    117 H        0.245420        0.000528        0.000123        0.000651
    118 H        0.245822        0.001014        0.000031        0.001044
    119 H        0.239828        0.000141       -0.000001        0.000141
    120 H        0.245823        0.000052       -0.000000        0.000052
    121 H        0.220529        0.000117       -0.000000        0.000117
    122 H        0.217824        0.000001       -0.000000        0.000001
    123 H        0.219187        0.000156       -0.000001        0.000155
    124 H        0.240752        0.000116        0.000000        0.000116
    125 H        0.244618        0.000029       -0.000001        0.000028
    126 H        0.220656        0.000091       -0.000000        0.000091
    127 H        0.218121        0.000001       -0.000000        0.000000
    128 H        0.219815        0.000199       -0.000001        0.000199
    129 H        0.218180        0.000044       -0.000078       -0.000034
    130 H        0.220272        0.000229        0.000003        0.000232
    131 H        0.231300        0.000030       -0.000014        0.000016
    132 H        0.218714        0.000043       -0.000010        0.000033
    133 H        0.217037        0.000009       -0.000002        0.000007
    134 H        0.243488        0.000012       -0.000126       -0.000114
    ---------------------------------------------------------------------
     Sum:       -0.000000        1.000000       -1.000000        0.000000
    
    Exciton analysis of the difference density matrix
      <r_h> [Ang]:                  [ -6.767318,  -2.530261,  -1.574480]
      <r_e> [Ang]:                  [ -6.378022,  -2.065309,  -0.322735]
      |<r_e - r_h>| [Ang]:            1.390897
      Hole size [Ang]:                6.469769
        Cartesian components [Ang]: [  2.816827,   3.348420,   4.765656]
      Electron size [Ang]:            4.197629
        Cartesian components [Ang]: [  1.697873,   3.345585,   1.882652]

  Excited state   3:
  ------------------
    NOs
      Occupation of frontier NOs:
         0.6763   1.3237
      Number of electrons: 524.000000
      Number of unpaired electrons: n_u =  2.00000, n_u,nl =  1.96988
      NO participation ratio (PR_NO):  3.874424
    
    
    Mulliken Population Analysis
     Atom      Charge (e)              h+              e-           Del q
    ---------------------------------------------------------------------
      1 C       -0.350098        0.000055       -0.000229       -0.000174
      2 C        0.057674        0.000078       -0.000566       -0.000488
      3 C       -0.220297        0.000189       -0.002178       -0.001989
      4 C        0.077615        0.000063       -0.000659       -0.000596
      5 C       -0.349961        0.000041       -0.000142       -0.000101
      6 C        0.288001        0.000022       -0.000133       -0.000111
      7 N       -0.673177        0.000017       -0.000018       -0.000001
      8 C       -0.762201        0.000295       -0.000905       -0.000610
      9 C       -0.553289        0.000253       -0.000993       -0.000740
     10 C        0.302421        0.000001       -0.000002       -0.000000
     11 C       -0.280441        0.000004       -0.000008       -0.000004
     12 C       -0.274772        0.000005       -0.000010       -0.000005
     13 C        0.297419        0.000001       -0.000001        0.000001
     14 C       -0.212256        0.000000       -0.000002       -0.000001
     15 C       -0.238292        0.000005       -0.000012       -0.000007
     16 C       -0.214319        0.000001       -0.000001       -0.000000
     17 C       -0.282687        0.000004       -0.000010       -0.000006
     18 C       -0.280152        0.000005       -0.000010       -0.000005
     19 C       -0.211841        0.000000       -0.000000       -0.000000
     20 C       -0.238915        0.000005       -0.000010       -0.000005
     21 C       -0.214134        0.000000       -0.000000        0.000000
     22 C       -0.169723        0.019502       -0.030923       -0.011422
     23 C       -0.165942        0.012868       -0.030340       -0.017472
     24 B        0.629157        0.002269       -0.055775       -0.053506
     25 C       -0.175518        0.012105       -0.033686       -0.021581
     26 C       -0.158417        0.025184       -0.034704       -0.009521
     27 B        0.621116        0.003603       -0.066228       -0.062626
     28 C       -0.346607        0.041156       -0.004346        0.036810
     29 C        0.073286        0.004514       -0.038486       -0.033971
     30 C        0.058700        0.002404       -0.035547       -0.033143
     31 C       -0.361490        0.039194       -0.005760        0.033434
     32 C       -0.349826        0.035358       -0.005705        0.029653
     33 C        0.062040        0.002091       -0.032182       -0.030091
     34 C        0.078617        0.003145       -0.033140       -0.029995
     35 C       -0.369036        0.034573       -0.004418        0.030155
     36 C       -0.394707        0.036580       -0.048536       -0.011956
     37 C       -0.191515        0.026607       -0.014844        0.011764
     38 C       -0.329825        0.064232       -0.058345        0.005887
     39 C        0.251363        0.003012       -0.003899       -0.000887
     40 C       -0.063084        0.002741       -0.002038        0.000702
     41 C        0.225941        0.061674       -0.033382        0.028292
     42 C       -0.333134        0.054993       -0.054684        0.000309
     43 C       -0.195278        0.023260       -0.014249        0.009011
     44 C       -0.394791        0.031603       -0.045730       -0.014126
     45 C        0.222478        0.054136       -0.030862        0.023274
     46 C       -0.193196        0.022381       -0.012846        0.009535
     47 C       -0.396416        0.029738       -0.041076       -0.011338
     48 C        0.220373        0.050814       -0.028063        0.022752
     49 C       -0.063213        0.002163       -0.001767        0.000397
     50 C        0.252927        0.002601       -0.003372       -0.000771
     51 C       -0.334141        0.052577       -0.049368        0.003209
     52 C        0.217844        0.049128       -0.027435        0.021693
     53 C       -0.388805        0.029057       -0.040899       -0.011842
     54 C       -0.197287        0.020813       -0.012484        0.008329
     55 C       -0.331407        0.050717       -0.048954        0.001763
     56 C       -0.354732        0.005156       -0.000197        0.004959
     57 C        0.079849        0.003014       -0.000982        0.002031
     58 C       -0.214091        0.016911       -0.002817        0.014094
     59 C        0.061878        0.002545       -0.000571        0.001974
     60 C       -0.357851        0.006920       -0.000240        0.006680
     61 C        0.323386        0.007373       -0.000220        0.007154
     62 N       -0.655300        0.019082       -0.000041        0.019041
     63 C       -0.548016        0.000247       -0.001116       -0.000869
     64 C       -0.761338        0.000704       -0.001001       -0.000296
     65 C        0.286023        0.001766       -0.000010        0.001756
     66 C       -0.268139        0.003863       -0.000005        0.003858
     67 C       -0.275432        0.003595       -0.000003        0.003592
     68 C        0.291671        0.001701       -0.000009        0.001692
     69 C       -0.213400        0.000308       -0.000001        0.000307
     70 C       -0.232908        0.004488       -0.000003        0.004485
     71 C       -0.214265        0.000203       -0.000000        0.000202
     72 C       -0.269360        0.003804       -0.000005        0.003799
     73 C       -0.269489        0.003468       -0.000004        0.003464
     74 C       -0.214078        0.000302       -0.000000        0.000302
     75 C       -0.232172        0.004438       -0.000004        0.004434
     76 C       -0.214296        0.000211       -0.000001        0.000210
     77 H        0.232576        0.000007       -0.000090       -0.000083
     78 H        0.230427        0.000005       -0.000068       -0.000062
     79 H        0.245114        0.000070       -0.000073       -0.000003
     80 H        0.246142        0.000088       -0.000003        0.000084
     81 H        0.239343        0.000039       -0.000438       -0.000399
     82 H        0.252248        0.000079       -0.000207       -0.000128
     83 H        0.233267        0.000028       -0.000159       -0.000130
     84 C       -0.645874        0.000324       -0.000144        0.000180
     85 H        0.245352        0.000000       -0.000000       -0.000000
     86 H        0.240134        0.000000        0.000000        0.000000
     87 H        0.216784        0.000000       -0.000000       -0.000000
     88 H        0.216950        0.000000        0.000000        0.000000
     89 H        0.219907        0.000000        0.000000        0.000000
     90 H        0.245884        0.000000        0.000000        0.000000
     91 H        0.240217        0.000000       -0.000000       -0.000000
     92 H        0.216222        0.000000       -0.000000       -0.000000
     93 H        0.216590        0.000000       -0.000000       -0.000000
     94 H        0.219579        0.000000       -0.000000       -0.000000
     95 H        0.230467        0.000001       -0.000002       -0.000000
     96 H        0.232262        0.000055       -0.000000        0.000055
     97 H        0.230301       -0.000000        0.000000       -0.000000
     98 H        0.233257        0.000009       -0.000001        0.000008
     99 H        0.216709        0.000005       -0.000010       -0.000005
    100 H        0.226255        0.000002       -0.000004       -0.000002
    101 H        0.220737        0.000008       -0.000017       -0.000008
    102 H        0.220580        0.000007       -0.000015       -0.000008
    103 H        0.226746        0.000002       -0.000004       -0.000002
    104 H        0.218442        0.000004       -0.000009       -0.000004
    105 H        0.226152        0.000002       -0.000004       -0.000002
    106 H        0.217607        0.000004       -0.000008       -0.000004
    107 H        0.220708        0.000007       -0.000014       -0.000007
    108 H        0.218147        0.000005       -0.000008       -0.000003
    109 H        0.226779        0.000002       -0.000003       -0.000002
    110 H        0.220377        0.000007       -0.000014       -0.000007
    111 H        0.235111        0.000021       -0.000086       -0.000065
    112 H        0.234810        0.000016       -0.000092       -0.000076
    113 H        0.231513        0.000115       -0.000160       -0.000045
    114 H        0.251588        0.000075       -0.000415       -0.000340
    115 C       -0.638749        0.000236       -0.000076        0.000159
    116 H        0.239402        0.000055       -0.000467       -0.000412
    117 H        0.244978        0.000207        0.000002        0.000209
    118 H        0.244928        0.000181       -0.000030        0.000151
    119 H        0.239711        0.000025       -0.000001        0.000024
    120 H        0.245780        0.000009       -0.000000        0.000009
    121 H        0.220432        0.000020       -0.000000        0.000020
    122 H        0.217824        0.000000       -0.000000        0.000000
    123 H        0.219059        0.000027       -0.000000        0.000027
    124 H        0.240654        0.000018        0.000000        0.000018
    125 H        0.244595        0.000005       -0.000000        0.000005
    126 H        0.220582        0.000016       -0.000000        0.000016
    127 H        0.218120        0.000000       -0.000000        0.000000
    128 H        0.219649        0.000033       -0.000000        0.000033
    129 H        0.218214        0.000038       -0.000038       -0.000000
    130 H        0.220058        0.000020       -0.000001        0.000019
    131 H        0.231292        0.000044       -0.000036        0.000008
    132 H        0.218689        0.000022       -0.000014        0.000008
    133 H        0.217064        0.000045       -0.000010        0.000035
    134 H        0.243587        0.000081       -0.000096       -0.000015
    ---------------------------------------------------------------------
     Sum:       -0.000000        1.000000       -1.000000       -0.000000
    
    Exciton analysis of the difference density matrix
      <r_h> [Ang]:                  [ -6.331813,  -3.086959,  -0.373305]
      <r_e> [Ang]:                  [ -6.133386,  -2.820246,   0.030645]
      |<r_e - r_h>| [Ang]:            0.523149
      Hole size [Ang]:                6.143599
        Cartesian components [Ang]: [  2.313133,   4.923353,   2.855490]
      Electron size [Ang]:            5.636633
        Cartesian components [Ang]: [  2.124996,   4.680155,   2.313475]

  Excited state   4:
  ------------------
    NOs
      Occupation of frontier NOs:
         0.8813   1.1187
      Number of electrons: 524.000000
      Number of unpaired electrons: n_u =  2.00000, n_u,nl =  1.99696
      NO participation ratio (PR_NO):  2.551670
    
    
    Mulliken Population Analysis
     Atom      Charge (e)              h+              e-           Del q
    ---------------------------------------------------------------------
      1 C       -0.326745        0.023778       -0.000599        0.023179
      2 C        0.067399        0.010852       -0.001615        0.009237
      3 C       -0.160330        0.065144       -0.007166        0.057979
      4 C        0.086844        0.010292       -0.001660        0.008633
      5 C       -0.324799        0.025734       -0.000672        0.025062
      6 C        0.319594        0.032440       -0.000958        0.031482
      7 N       -0.580143        0.093098       -0.000065        0.093033
      8 C       -0.762942        0.000810       -0.002161       -0.001351
      9 C       -0.553622        0.001246       -0.002319       -0.001073
     10 C        0.312214        0.009837       -0.000044        0.009793
     11 C       -0.261251        0.019231       -0.000045        0.019186
     12 C       -0.254421        0.020393       -0.000047        0.020346
     13 C        0.306888        0.009501       -0.000031        0.009470
     14 C       -0.211199        0.001076       -0.000021        0.001055
     15 C       -0.213962        0.024402       -0.000078        0.024323
     16 C       -0.212518        0.001807       -0.000006        0.001801
     17 C       -0.263941        0.018806       -0.000066        0.018740
     18 C       -0.258828        0.021376       -0.000057        0.021319
     19 C       -0.210623        0.001224       -0.000006        0.001218
     20 C       -0.213503        0.025472       -0.000064        0.025408
     21 C       -0.212411        0.001731       -0.000008        0.001724
     22 C       -0.196674        0.003487       -0.041860       -0.038373
     23 C       -0.182200        0.008041       -0.041771       -0.033730
     24 B        0.544992        0.003084       -0.140755       -0.137671
     25 C       -0.187346        0.017219       -0.050629       -0.033410
     26 C       -0.191034        0.005600       -0.047738       -0.042138
     27 B        0.551689        0.001575       -0.133628       -0.132053
     28 C       -0.382603        0.011205       -0.010391        0.000814
     29 C        0.065865        0.002235       -0.043627       -0.041392
     30 C        0.048415        0.002601       -0.046029       -0.043428
     31 C       -0.390594        0.013762       -0.009432        0.004330
     32 C       -0.385599        0.002955       -0.009075       -0.006121
     33 C        0.056037        0.001034       -0.037128       -0.036094
     34 C        0.075398        0.000912       -0.034126       -0.033214
     35 C       -0.407673        0.001965       -0.010448       -0.008483
     36 C       -0.407579        0.009883       -0.034711       -0.024827
     37 C       -0.201587        0.008856       -0.007165        0.001692
     38 C       -0.353086        0.018350       -0.035724       -0.017374
     39 C        0.251575        0.001293       -0.001968       -0.000675
     40 C       -0.062943        0.001823       -0.000981        0.000842
     41 C        0.201405        0.019161       -0.015405        0.003756
     42 C       -0.344542        0.029863       -0.040963       -0.011099
     43 C       -0.200058        0.011875       -0.007644        0.004231
     44 C       -0.402948        0.016565       -0.038848       -0.022283
     45 C        0.208840        0.028288       -0.018652        0.009636
     46 C       -0.203624        0.001437       -0.002329       -0.000892
     47 C       -0.404984        0.001442       -0.021347       -0.019905
     48 C        0.195185        0.003015       -0.005451       -0.002436
     49 C       -0.063314        0.000574       -0.000278        0.000296
     50 C        0.253310        0.000253       -0.000641       -0.000388
     51 C       -0.353679        0.002720       -0.019049       -0.016329
     52 C        0.195289        0.005700       -0.006561       -0.000861
     53 C       -0.397048        0.003438       -0.023523       -0.020085
     54 C       -0.205765        0.002314       -0.002463       -0.000149
     55 C       -0.348583        0.006150       -0.021564       -0.015414
     56 C       -0.336183        0.023973       -0.000465        0.023508
     57 C        0.084352        0.008576       -0.002041        0.006534
     58 C       -0.178063        0.056247       -0.006126        0.050121
     59 C        0.066688        0.008063       -0.001280        0.006784
     60 C       -0.344495        0.020551       -0.000514        0.020037
     61 C        0.341610        0.026025       -0.000648        0.025377
     62 N       -0.601655        0.072787       -0.000101        0.072686
     63 C       -0.548874        0.000344       -0.002071       -0.001727
     64 C       -0.762462        0.000557       -0.001977       -0.001420
     65 C        0.291091        0.006855       -0.000031        0.006823
     66 C       -0.257359        0.014653       -0.000015        0.014638
     67 C       -0.265135        0.013899       -0.000010        0.013889
     68 C        0.296782        0.006833       -0.000030        0.006804
     69 C       -0.212445        0.001265       -0.000004        0.001262
     70 C       -0.219873        0.017532       -0.000012        0.017519
     71 C       -0.213683        0.000785       -0.000001        0.000784
     72 C       -0.258408        0.014769       -0.000018        0.014751
     73 C       -0.259555        0.013410       -0.000013        0.013398
     74 C       -0.213271        0.001110       -0.000001        0.001109
     75 C       -0.219538        0.017082       -0.000014        0.017068
     76 C       -0.213619        0.000890       -0.000002        0.000887
     77 H        0.232515        0.000073       -0.000217       -0.000144
     78 H        0.230379        0.000061       -0.000171       -0.000110
     79 H        0.245461        0.000316        0.000027        0.000344
     80 H        0.246861        0.000725        0.000078        0.000803
     81 H        0.238687        0.000043       -0.001098       -0.001055
     82 H        0.252575        0.000489       -0.000290        0.000198
     83 H        0.233024        0.000138       -0.000511       -0.000373
     84 C       -0.645420        0.000743       -0.000109        0.000634
     85 H        0.245391        0.000039       -0.000000        0.000039
     86 H        0.240220        0.000084        0.000002        0.000086
     87 H        0.216907        0.000123       -0.000000        0.000123
     88 H        0.216950        0.000000        0.000000        0.000000
     89 H        0.220004        0.000098       -0.000000        0.000097
     90 H        0.245938        0.000054        0.000000        0.000055
     91 H        0.240338        0.000122       -0.000001        0.000121
     92 H        0.216373        0.000152       -0.000000        0.000151
     93 H        0.216590        0.000000       -0.000000        0.000000
     94 H        0.219646        0.000067       -0.000000        0.000067
     95 H        0.230616        0.000148        0.000001        0.000149
     96 H        0.232401        0.000193        0.000000        0.000193
     97 H        0.230362        0.000061       -0.000000        0.000061
     98 H        0.233516        0.000268       -0.000001        0.000267
     99 H        0.216713        0.000002       -0.000003       -0.000001
    100 H        0.226258        0.000002       -0.000001        0.000001
    101 H        0.220743        0.000003       -0.000005       -0.000002
    102 H        0.220584        0.000005       -0.000008       -0.000003
    103 H        0.226748        0.000002       -0.000002        0.000000
    104 H        0.218444        0.000003       -0.000005       -0.000002
    105 H        0.226155        0.000002       -0.000000        0.000001
    106 H        0.217611        0.000001       -0.000000        0.000001
    107 H        0.220715        0.000001       -0.000001        0.000000
    108 H        0.218151        0.000002       -0.000001        0.000001
    109 H        0.226782        0.000001       -0.000000        0.000001
    110 H        0.220384        0.000002       -0.000002       -0.000000
    111 H        0.235067        0.000068       -0.000178       -0.000109
    112 H        0.234754        0.000053       -0.000185       -0.000132
    113 H        0.231516        0.000301       -0.000343       -0.000043
    114 H        0.251123        0.000015       -0.000820       -0.000806
    115 C       -0.638354        0.000661       -0.000106        0.000555
    116 H        0.238847        0.000008       -0.000974       -0.000967
    117 H        0.245148        0.000307        0.000072        0.000379
    118 H        0.245272        0.000471        0.000023        0.000495
    119 H        0.239769        0.000083       -0.000001        0.000082
    120 H        0.245807        0.000037       -0.000000        0.000037
    121 H        0.220493        0.000081       -0.000000        0.000080
    122 H        0.217824        0.000000       -0.000000        0.000000
    123 H        0.219131        0.000100       -0.000000        0.000099
    124 H        0.240705        0.000069        0.000000        0.000069
    125 H        0.244610        0.000021       -0.000001        0.000020
    126 H        0.220629        0.000063       -0.000000        0.000063
    127 H        0.218120        0.000000       -0.000000        0.000000
    128 H        0.219743        0.000128       -0.000001        0.000127
    129 H        0.218176        0.000021       -0.000059       -0.000038
    130 H        0.220207        0.000166        0.000001        0.000168
    131 H        0.231317        0.000065       -0.000033        0.000032
    132 H        0.218730        0.000055       -0.000005        0.000049
    133 H        0.217090        0.000064       -0.000004        0.000060
    134 H        0.243509        0.000011       -0.000104       -0.000093
    ---------------------------------------------------------------------
     Sum:       -0.000000        1.000000       -1.000000        0.000000
    
    Exciton analysis of the difference density matrix
      <r_h> [Ang]:                  [ -5.417674,  -2.959233,   0.532084]
      <r_e> [Ang]:                  [ -5.921528,  -3.184693,   0.151025]
      |<r_e - r_h>| [Ang]:            0.670750
      Hole size [Ang]:                6.747130
        Cartesian components [Ang]: [  2.890008,   3.739986,   4.814988]
      Electron size [Ang]:            4.467298
        Cartesian components [Ang]: [  1.739743,   3.616516,   1.962360]

  Excited state   5:
  ------------------
    NOs
      Occupation of frontier NOs:
         0.6439   1.3561
      Number of electrons: 524.000000
      Number of unpaired electrons: n_u =  2.00000, n_u,nl =  1.95358
      NO participation ratio (PR_NO):  4.126425
    
    
    Mulliken Population Analysis
     Atom      Charge (e)              h+              e-           Del q
    ---------------------------------------------------------------------
      1 C       -0.337487        0.012776       -0.000340        0.012437
      2 C        0.062959        0.005724       -0.000927        0.004797
      3 C       -0.186954        0.035491       -0.004136        0.031355
      4 C        0.082301        0.004965       -0.000875        0.004090
      5 C       -0.336086        0.014154       -0.000379        0.013775
      6 C        0.304958        0.017403       -0.000558        0.016846
      7 N       -0.621882        0.051333       -0.000039        0.051294
      8 C       -0.762332        0.000496       -0.001236       -0.000741
      9 C       -0.553605        0.000237       -0.001294       -0.001056
     10 C        0.307875        0.005481       -0.000027        0.005454
     11 C       -0.269907        0.010554       -0.000024        0.010530
     12 C       -0.263669        0.011122       -0.000025        0.011097
     13 C        0.302654        0.005252       -0.000017        0.005235
     14 C       -0.211654        0.000614       -0.000014        0.000600
     15 C       -0.224956        0.013373       -0.000044        0.013330
     16 C       -0.213337        0.000985       -0.000003        0.000982
     17 C       -0.272431        0.010291       -0.000041        0.010250
     18 C       -0.268465        0.011719       -0.000038        0.011682
     19 C       -0.211155        0.000688       -0.000003        0.000685
     20 C       -0.224934        0.014015       -0.000038        0.013977
     21 C       -0.213178        0.000963       -0.000006        0.000957
     22 C       -0.175244        0.017771       -0.034713       -0.016942
     23 C       -0.166454        0.014892       -0.032876       -0.017984
     24 B        0.613246        0.007609       -0.077026       -0.069417
     25 C       -0.170160        0.013699       -0.029923       -0.016224
     26 C       -0.166025        0.013334       -0.030462       -0.017128
     27 B        0.628456        0.006678       -0.061964       -0.055286
     28 C       -0.370897        0.019467       -0.006947        0.012520
     29 C        0.078280        0.001524       -0.030501       -0.028976
     30 C        0.060937        0.001558       -0.032464       -0.030906
     31 C       -0.380846        0.019100       -0.005022        0.014078
     32 C       -0.360070        0.024611       -0.005202        0.019409
     33 C        0.056779        0.001932       -0.037285       -0.035353
     34 C        0.075922        0.001902       -0.034591       -0.032690
     35 C       -0.381459        0.024934       -0.007203        0.017731
     36 C       -0.397370        0.023435       -0.038053       -0.014619
     37 C       -0.195627        0.019570       -0.011919        0.007652
     38 C       -0.337489        0.043950       -0.045727       -0.001777
     39 C        0.251488        0.002308       -0.003069       -0.000762
     40 C       -0.063515        0.001951       -0.001680        0.000271
     41 C        0.215074        0.043583       -0.026159        0.017425
     42 C       -0.336974        0.042125       -0.045656       -0.003531
     43 C       -0.197455        0.018494       -0.011660        0.006834
     44 C       -0.396204        0.022696       -0.038235       -0.015538
     45 C        0.215444        0.041876       -0.025636        0.016240
     46 C       -0.192758        0.025237       -0.015263        0.009974
     47 C       -0.401301        0.029768       -0.045990       -0.016222
     48 C        0.220053        0.055486       -0.033055        0.022431
     49 C       -0.063258        0.002506       -0.002155        0.000351
     50 C        0.252761        0.002950       -0.003886       -0.000937
     51 C       -0.337559        0.056183       -0.056393       -0.000209
     52 C        0.217530        0.053701       -0.032321        0.021380
     53 C       -0.394285        0.029214       -0.046536       -0.017322
     54 C       -0.196840        0.023575       -0.014798        0.008776
     55 C       -0.335392        0.054367       -0.056590       -0.002223
     56 C       -0.359346        0.000511       -0.000166        0.000345
     57 C        0.077147        0.000288       -0.000959       -0.000671
     58 C       -0.228623        0.001501       -0.001939       -0.000438
     59 C        0.059584        0.000241       -0.000561       -0.000320
     60 C       -0.364410        0.000340       -0.000218        0.000122
     61 C        0.316619        0.000512       -0.000126        0.000386
     62 N       -0.673055        0.001316       -0.000030        0.001286
     63 C       -0.547856        0.000357       -0.001066       -0.000709
     64 C       -0.761694        0.000243       -0.000895       -0.000652
     65 C        0.284378        0.000116       -0.000005        0.000111
     66 C       -0.271751        0.000249       -0.000002        0.000246
     67 C       -0.278787        0.000239       -0.000002        0.000237
     68 C        0.290088        0.000114       -0.000005        0.000109
     69 C       -0.213686        0.000021       -0.000000        0.000021
     70 C       -0.237095        0.000299       -0.000002        0.000297
     71 C       -0.214454        0.000014       -0.000000        0.000014
     72 C       -0.272912        0.000250       -0.000002        0.000247
     73 C       -0.272725        0.000230       -0.000002        0.000229
     74 C       -0.214362        0.000018       -0.000000        0.000018
     75 C       -0.236317        0.000291       -0.000002        0.000289
     76 C       -0.214490        0.000017       -0.000000        0.000016
     77 H        0.232561        0.000019       -0.000117       -0.000098
     78 H        0.230403        0.000008       -0.000094       -0.000087
     79 H        0.245325        0.000217       -0.000010        0.000207
     80 H        0.246525        0.000472       -0.000005        0.000468
     81 H        0.239211        0.000082       -0.000613       -0.000531
     82 H        0.252468        0.000256       -0.000165        0.000092
     83 H        0.233270        0.000137       -0.000264       -0.000127
     84 C       -0.645688        0.000490       -0.000124        0.000366
     85 H        0.245374        0.000021       -0.000000        0.000021
     86 H        0.240181        0.000046        0.000001        0.000047
     87 H        0.216852        0.000068       -0.000000        0.000068
     88 H        0.216950        0.000000        0.000000        0.000000
     89 H        0.219961        0.000054       -0.000000        0.000054
     90 H        0.245914        0.000030        0.000000        0.000030
     91 H        0.240284        0.000068       -0.000000        0.000067
     92 H        0.216306        0.000084       -0.000000        0.000084
     93 H        0.216590        0.000000       -0.000000        0.000000
     94 H        0.219617        0.000038       -0.000000        0.000037
     95 H        0.230520        0.000052        0.000000        0.000052
     96 H        0.232233        0.000027       -0.000002        0.000025
     97 H        0.230314        0.000013        0.000000        0.000013
     98 H        0.233338        0.000090       -0.000001        0.000089
     99 H        0.216710        0.000004       -0.000007       -0.000003
    100 H        0.226256        0.000002       -0.000003       -0.000001
    101 H        0.220739        0.000006       -0.000012       -0.000006
    102 H        0.220582        0.000006       -0.000012       -0.000006
    103 H        0.226746        0.000001       -0.000003       -0.000002
    104 H        0.218443        0.000003       -0.000007       -0.000004
    105 H        0.226152        0.000002       -0.000004       -0.000002
    106 H        0.217607        0.000005       -0.000009       -0.000004
    107 H        0.220706        0.000008       -0.000016       -0.000008
    108 H        0.218146        0.000004       -0.000009       -0.000005
    109 H        0.226779        0.000002       -0.000004       -0.000002
    110 H        0.220376        0.000008       -0.000016       -0.000008
    111 H        0.235111        0.000017       -0.000082       -0.000065
    112 H        0.234813        0.000014       -0.000087       -0.000073
    113 H        0.231419        0.000001       -0.000140       -0.000139
    114 H        0.251622        0.000134       -0.000440       -0.000306
    115 C       -0.638826        0.000166       -0.000083        0.000083
    116 H        0.239480        0.000086       -0.000421       -0.000334
    117 H        0.244847        0.000068        0.000009        0.000078
    118 H        0.244796        0.000066       -0.000048        0.000018
    119 H        0.239687        0.000001       -0.000001        0.000000
    120 H        0.245771        0.000001       -0.000000        0.000001
    121 H        0.220413        0.000001       -0.000000        0.000001
    122 H        0.217824        0.000000       -0.000000       -0.000000
    123 H        0.219034        0.000002       -0.000000        0.000002
    124 H        0.240637        0.000001       -0.000000        0.000001
    125 H        0.244590        0.000000       -0.000000        0.000000
    126 H        0.220567        0.000001        0.000000        0.000001
    127 H        0.218120        0.000000       -0.000000       -0.000000
    128 H        0.219619        0.000003       -0.000000        0.000002
    129 H        0.218196        0.000023       -0.000042       -0.000018
    130 H        0.220041        0.000003       -0.000001        0.000001
    131 H        0.231281        0.000028       -0.000031       -0.000003
    132 H        0.218813        0.000143       -0.000012        0.000131
    133 H        0.217036        0.000016       -0.000010        0.000006
    134 H        0.243601        0.000105       -0.000106       -0.000001
    ---------------------------------------------------------------------
     Sum:       -0.000000        1.000000       -1.000000       -0.000000
    
    Exciton analysis of the difference density matrix
      <r_h> [Ang]:                  [ -5.731528,  -1.438532,   0.882472]
      <r_e> [Ang]:                  [ -6.370893,  -2.152763,  -0.193095]
      |<r_e - r_h>| [Ang]:            1.440749
      Hole size [Ang]:                6.275445
        Cartesian components [Ang]: [  2.615505,   4.717916,   3.206495]
      Electron size [Ang]:            5.557172
        Cartesian components [Ang]: [  2.108504,   4.608082,   2.280779]

