mFile = /cm/shared/apps/q-chem/intel/QCHEM_5.0.1_Trunk/bin/mpi/machines
Process 0 of 1 is on ctcp033 - thread support 0
initial socket setup ...start
initial socket setup ...done 
now start server 0 ... 
ctcp033.cm.cluster 10.141.0
Q-Chem Developer Version! Running on 10.141.0.*
                  Welcome to Q-Chem
     A Quantum Leap Into The Future Of Chemistry


 Q-Chem 5.0, Q-Chem, Inc., Pleasanton, CA (2017)

 Yihan Shao,  Zhengting Gan,  E. Epifanovsky,  A. T. B. Gilbert,  M. Wormit,  
 J. Kussmann,  A. W. Lange,  A. Behn,  Jia Deng,  Xintian Feng,  D. Ghosh,  
 M. Goldey,  P. R. Horn,  L. D. Jacobson,  I. Kaliman,  T. Kus,  A. Landau,  
 Jie Liu,  E. I. Proynov,  R. M. Richard,  R. P. Steele,  E. J. Sundstrom,  
 H. L. Woodcock III,  P. M. Zimmerman,  D. Zuev,  B. Albrecht,  E. Alguire,  
 S. A. Baeppler,  Z. Benda,  Y. A. Bernard,  E. J. Berquist,  K. B. Bravaya,  
 D. Casanova,  Chun-Min Chang,  Yunqing Chen,  A. Chien,  K. D. Closser,  
 M. P. Coons,  S. Dasgupta,  M. Diedenhofen,  Hainam Do,  R. G. Edgar,  
 Po-Tung Fang,  S. Fatehi,  Qingguo Feng,  Qinghui Ge,  A. Ghysels,  
 J. Gomes,  J. Gonthier,  A. Gunina,  M. W. D. Hanson-Heine,  
 P. H. P. Harbach,  A. W. Hauser,  J. E. Herr,  E. G. Hohenstein,  
 Z. C. Holden,  Kerwin Hui,  T.-C. Jagau,  Hyunjun Ji,  B. Kaduk,  
 K. Khistyaev,  Jaehoon Kim,  P. Klunzinger,  K. Koh,  D. Kosenkov,  
 T. Kowalczyk,  C. M. Krauter,  A. Kunitsa,  Ka Un Lao,  A. Laurent,  
 K. V. Lawler,  Joonho Lee,  D. Lefrancois,  S. Lehtola,  D. S. Levine,  
 Yi-Pei Li,  You-Sheng Lin,  Fenglai Liu,  E. Livshits,  A. Luenser,  
 P. Manohar,  E. Mansoor,  S. F. Manzer,  Shan-Ping Mao,  Yuezhi Mao,  
 N. Mardirossian,  A. V. Marenich,  L. A. Martinez-Martinez,  S. A. Maurer,  
 N. J. Mayhall,  S. C. McKenzie,  J.-M. Mewes,  A. F. Morrison,  K. Nanda,  
 T. S. Nguyen-Beck,  R. Olivares-Amaya,  J. A. Parkhill,  T. M. Perrine,  
 F. Plasser,  S. Prager,  A. Prociuk,  D. R. Rehn,  F. Rob,  M. Schneider,  
 N. Sergueev,  S. M. Sharada,  S. Sharma,  D. W. Small,  T. Stauch,  
 T. Stein,  Yu-Chuan Su,  A. J. W. Thom,  T. Tsuchimochi,  L. Vogt,  
 O. Vydrov,  M. A. Watson,  J. Wenzel,  M. de Wergifosse,  T. A. Wesolowski,  
 A. White,  J. Witte,  A. Yamada,  Jun Yang,  K. Yao,  S. Yeganeh,  
 S. R. Yost,  Zhi-Qiang You,  A. Zech,  Igor Ying Zhang,  Xing Zhang,  
 Yan Zhao,  Ying Zhu,  B. R. Brooks,  G. K. L. Chan,  C. J. Cramer,  
 M. S. Gordon,  W. J. Hehre,  A. Klamt,  M. W. Schmidt,  C. D. Sherrill,  
 D. G. Truhlar,  A. Aspuru-Guzik,  R. Baer,  A. T. Bell,  N. A. Besley,  
 Jeng-Da Chai,  A. Dreuw,  B. D. Dunietz,  T. R. Furlani,  Chao-Ping Hsu,  
 Yousung Jung,  Jing Kong,  D. S. Lambrecht,  WanZhen Liang,  C. Ochsenfeld,  
 V. A. Rassolov,  L. V. Slipchenko,  J. E. Subotnik,  T. Van Voorhis,  
 J. M. Herbert,  A. I. Krylov,  P. M. W. Gill,  M. Head-Gordon

 Contributors to earlier versions of Q-Chem not listed above: 
 R. D. Adamson,  B. Austin,  J. Baker,  G. J. O. Beran,  K. Brandhorst,  
 S. T. Brown,  E. F. C. Byrd,  A. K. Chakraborty,  C.-L. Cheng,  
 Siu Hung Chien,  D. M. Chipman,  D. L. Crittenden,  H. Dachsel,  
 R. A. DiStasio Jr.,  R. J. Doerksen,  A. D. Dutoi,  L. Fusti-Molnar,  
 W. A. Goddard III,  A. Golubeva-Zadorozhnaya,  S. R. Gwaltney,  G. Hawkins,  
 A. Heyden,  S. Hirata,  G. Kedziora,  F. J. Keil,  C. Kelley,  Jihan Kim,  
 R. A. King,  R. Z. Khaliullin,  P. P. Korambath,  W. Kurlancheek,  
 A. M. Lee,  M. S. Lee,  S. V. Levchenko,  Ching Yeh Lin,  D. Liotard,  
 R. C. Lochan,  I. Lotan,  P. E. Maslen,  N. Nair,  D. P. O'Neill,  
 D. Neuhauser,  E. Neuscamman,  C. M. Oana,  R. Olson,  B. Peters,  
 R. Peverati,  P. A. Pieniazek,  Y. M. Rhee,  J. Ritchie,  M. A. Rohrdanz,  
 E. Rosta,  N. J. Russ,  H. F. Schaefer III,  N. E. Schultz,  N. Shenvi,  
 A. C. Simmonett,  A. Sodt,  D. Stuck,  K. S. Thanthiriwatte,  V. Vanovschi,  
 Tao Wang,  A. Warshel,  C. F. Williams,  Q. Wu,  X. Xu,  W. Zhang

 Please cite Q-Chem as follows:
 Y. Shao et al., Mol. Phys. 113, 184-215 (2015)
 DOI: 10.1080/00268976.2014.952696

 Q-Chem 5.0.1 for Intel X86 EM64T Linux

 Parts of Q-Chem use Armadillo 5.200.1 (Boston Tea Smuggler).
 http://arma.sourceforge.net/

 Q-Chem begins on Tue Oct 16 14:09:40 2018  

Host: ctcp033
0

     Scratch files written to /scratch/mewes/137339/qchem17818//
 Parallel job on  1  processors
The previous job contains 0 fragments, simply inherited here

Checking the input file for inconsistencies... 	...done.

--------------------------------------------------------------
User input:
--------------------------------------------------------------
$rem
threads 8
jobtype	sp
method PBEh-3c
basis def2-mSVP
mem_static	1024
mem_total	14000
sym_ignore	true
cis_n_roots             6
cis_singlets            true
cis_triplets		true
rpa                     false
calc_soc 		true
cis_moments             true
cis_relaxed_density	true
$end


$molecule
read gsopt.mol
$end

--------------------------------------------------------------
 Adding empirical dispersion correction 
 ----------------------------------------------------------------
 Doing -D3(BJ) with
 s6 =   1.00000
 s8 =   0.00000
 a1 =   0.48600
 a2 =   4.50000
 -D3 energy including 3body term =     -0.1184721535 hartrees
 ----------------------------------------------------------------
 Adding gCP correction 
 ----------------------------------------------------------------
 gCP energy =      0.1606997271 hartrees
 ----------------------------------------------------------------
             Standard Nuclear Orientation (Angstroms)
    I     Atom           X                Y                Z
 ----------------------------------------------------------------
    1      N       0.0000000000     0.0000000000     0.0000000000
    2      C       0.0000000000     0.0000000000     1.3796530000
    3      C       1.3077930540     0.0000000000    -0.4410367706
    4      C      -1.0795684048    -0.0083891840     2.2522003141
    5      H      -2.0989821284    -0.0118281111     1.8896228873
    6      C      -0.8021764402    -0.0152947899     3.6065804087
    7      H      -1.6223589634    -0.0273892443     4.3121485609
    8      C       1.7938096454    -0.0654256452    -1.7430846914
    9      H       1.1273424101    -0.1068684009    -2.5944872700
   10      C       3.1654766419    -0.0880661225    -1.9154678685
   11      H       3.5702699015    -0.1395141213    -2.9180223996
   12      C       4.0366659130    -0.0515699644    -0.8237254759
   13      H       5.1048878888    -0.0708099804    -0.9931859675
   14      C       3.5443148352    -0.0012576171     0.4671287004
   15      H       4.2245811482     0.0108091929     1.3092671537
   16      C       2.1677628922     0.0214826300     0.6696108770
   17      C       0.5118014827    -0.0079959211     4.0828780310
   18      H       0.6916699368    -0.0181169008     5.1492931616
   19      C       1.5799372821     0.0135474855     3.2055848867
   20      H       2.5971282842     0.0223921816     3.5764222348
   21      C       1.3284688644     0.0183665147     1.8389504574
   22      C      -1.1281395553    -0.1408973346    -0.8303082973
   23      C      -1.3776686976     0.7933732558    -1.8239521066
   24      H      -0.7289734847     1.6557330776    -1.9234235509
   25      C      -1.9660247899    -1.2373085878    -0.6835269531
   26      H      -1.7524466868    -1.9753803634     0.0804571493
   27      C      -3.0509101242    -1.4099392386    -1.5322920716
   28      C      -2.4414096903     0.6181205837    -2.7005215792
   29      C      -3.2868478097    -0.4867053043    -2.5579800825
   30      C      -3.9414998332    -2.6124638523    -1.3894081727
   31      H      -3.6990114079    -3.1931146647    -0.5001967701
   32      H      -4.9934040749    -2.3277326641    -1.3189069230
   33      H      -3.8493504567    -3.2790391719    -2.2502343933
   34      C      -2.6700981175     1.5950200654    -3.8207732944
   35      H      -1.9623279851     2.4223232904    -3.7886298601
   36      H      -3.6756179875     2.0188183843    -3.7886633515
   37      H      -2.5616287759     1.1093500131    -4.7938301716
   38      B      -4.4312609153    -0.7544556253    -3.6015067400
   39      C      -5.8461565498    -0.1328351226    -3.4412398128
   40      C      -6.1227904177     0.7428937821    -2.3876448225
   41      H      -5.3419781836     0.9796711678    -1.6731064066
   42      C      -7.3843503709     1.3015928707    -2.2628798104
   43      C      -8.3935100062     0.9725221172    -3.1936849218
   44      C      -8.1320408592     0.1032989855    -4.2362758808
   45      H      -8.9095605132    -0.1485866780    -4.9498603121
   46      C      -6.8609418459    -0.4542291445    -4.3751679899
   47      C      -9.6115535949     1.6850560994    -2.8259113977
   48      C     -10.8801373349     1.7559594156    -3.3358121471
   49      H     -11.1762471869     1.1987091274    -4.2161951984
   50      C      -9.2957919155     2.4338439665    -1.6785337737
   51      C     -10.1949790868     3.2589262281    -1.0161848134
   52      C      -7.9553746231     2.2395242251    -1.2941820377
   53      C      -7.4909905124     2.9073994678    -0.1930150233
   54      H      -6.4700541254     2.8007615500     0.1517861771
   55      C     -11.8195362623     2.5855162595    -2.6810157895
   56      H     -12.8239514782     2.6439600374    -3.0793042395
   57      C     -11.5012882198     3.3172676692    -1.5604706287
   58      H     -12.2549472245     3.9396670232    -1.0943784580
   59      C      -8.3812251561     3.7586986739     0.5039546854
   60      H      -8.0137598543     4.2872342086     1.3734941735
   61      C      -9.6895824166     3.9371085890     0.1187574203
   62      H     -10.3320464246     4.5990876633     0.6858426524
   63      B      -6.5679613718    -1.4289404832    -5.5495123280
   64      C      -5.1429940525    -2.0117846210    -5.7330864690
   65      C      -4.8678735283    -2.8665578489    -6.8034352239
   66      H      -5.6553280817    -3.1299169901    -7.5016131898
   67      C      -3.5940540355    -3.3753943696    -6.9687677056
   68      C      -2.5686135902    -3.0342904265    -6.0591878199
   69      C      -2.8349146212    -2.1970638874    -4.9918619106
   70      H      -2.0491189592    -1.9449159561    -4.2891244035
   71      C      -4.1204276274    -1.6786107600    -4.8144233293
   72      C      -1.3431849799    -3.7162572911    -6.4802652390
   73      C      -0.0552925575    -3.7851615440    -6.0176752411
   74      H       0.2657864767    -3.2488272860    -5.1338061257
   75      C      -1.6798654029    -4.4483728306    -7.6331315512
   76      C      -0.7894961061    -5.2476644402    -8.3428764025
   77      C      -3.0334476378    -4.2792413735    -7.9752773664
   78      C      -3.5180239602    -4.9373142705    -9.0760017224
   79      H      -4.5504740387    -4.8473958961    -9.3905376199
   80      C       0.5339019136    -5.3000118691    -7.8451555411
   81      H       1.2788058366    -5.9034694264    -8.3495305840
   82      C       0.8750948349    -4.5873492466    -6.7199522773
   83      H       1.8915376276    -4.6413019850    -6.3530104139
   84      C      -2.6358539889    -5.7577190702    -9.8181158320
   85      H      -3.0203226274    -6.2771801458   -10.6862561211
   86      C      -1.3140411517    -5.9167555530    -9.4749125581
   87      H      -0.6753295031    -6.5562953939   -10.0720044948
   88      C      -7.7048427868    -1.8374071033    -6.5549474089
   89      C      -7.8538677304    -1.1579479032    -7.7698067296
   90      C      -8.8393156648    -1.5498968470    -8.6666920469
   91      H      -8.9384399647    -1.0464001649    -9.6216954546
   92      C      -9.6918839799    -2.5988929602    -8.3573573526
   93      C      -9.5532695805    -3.2707056648    -7.1523540845
   94      H     -10.2326755132    -4.0814940005    -6.9165661790
   95      C      -8.5572178147    -2.9070619680    -6.2550209049
   96      N     -10.6821075136    -2.9984572545    -9.2767981371
   97      C     -10.7617967278    -4.2459929496    -9.8655404605
   98      C     -11.6551347321    -2.1865150336    -9.8279065635
   99      C     -11.9530991931    -0.8543945033    -9.5679457264
  100      H     -11.3973046860    -0.2830385361    -8.8369282336
  101      C     -12.9871246152    -0.2766346099   -10.2833101281
  102      H     -13.2357222839     0.7609286711   -10.1024503494
  103      C      -9.9561705473    -5.3652949642    -9.6884577049
  104      H      -9.1329286965    -5.3657308047    -8.9868969670
  105      C     -10.2331729205    -6.4847236317   -10.4532810302
  106      H      -9.6185783910    -7.3675060232   -10.3343022280
  107      C     -11.2800042379    -6.5000235886   -11.3786994833
  108      H     -11.4662160696    -7.3925199613   -11.9609974703
  109      C     -12.0699954678    -5.3808370707   -11.5578914030
  110      H     -12.8728268416    -5.3860967658   -12.2849017629
  111      C     -11.8106763246    -4.2433468781   -10.7999048630
  112      C     -13.7151193633    -0.9981938211   -11.2331436722
  113      H     -14.5141442691    -0.5117225468   -11.7764174308
  114      C     -13.4191919200    -2.3247349269   -11.4806804793
  115      H     -13.9817417237    -2.8863499315   -12.2163091906
  116      C     -12.3839410602    -2.9265183092   -10.7739038925
  117      C      -8.3928602732    -3.6649381488    -4.9683758522
  118      H      -9.1525896489    -4.4376572920    -4.8559406620
  119      H      -8.4635541253    -3.0051760748    -4.1015798400
  120      H      -7.4178948229    -4.1553006825    -4.9197544274
  121      C      -6.9231657484    -0.0323001224    -8.1246479367
  122      H      -7.2452361955     0.4895440407    -9.0251409354
  123      H      -6.8591842906     0.7059283864    -7.3228484557
  124      H      -5.9099961063    -0.3990967157    -8.3031151885
 ----------------------------------------------------------------
 Nuclear Repulsion Energy = 10607.5887056444 hartrees
 There are      252 alpha and      252 beta electrons
 Requested basis set is def2-mSVP
 There are 628 shells and 1236 basis functions

 Total QAlloc Memory Limit  14000 MB
 Mega-Array Size      1001 MB
 MEM_STATIC part      1024 MB
 A cutoff of  1.0D-11 yielded  52869 shell pairs
 There are    212189 function pairs (    234189 Cartesian)
 
 -------------------------------------------------------
 OpenMP Integral Computing Module                       
 Release: version 1.0, May 2013, Q-Chem Inc. Pittsburgh 
 -------------------------------------------------------
 Integral Job Info:
 Integral job number is                      11
 Integral operator is                         1
 short-range coefficients                     0
 long-range coefficients              100000000
 Omega coefficients                           0
 if combine SR and LR in K                    0
 Integral screening is                        0
 Integral computing path is                   2
 max size of driver memory is            800000
 size of driver memory is                593474
 size of scratch memory is              1809772
 max col of scratch BK array               1296
 max len of scratch array in speh3          155
 max len of scratch index in speh4           18
 max int batch size is                      520
 min int batch size is                       52
 fixed nKL is                                52
 max L of basis functions is                  2
 order of int derivative is                   0
 number of shells is                        628
 number of basis is                        1312
 number of cartesian basis is              1312
 number of contracted shell pairs         52869
 number of primitive shell pairs         110573
 maxK2 (contraction) of shell pair           25
 max number of K2 of shell pair               1
 max number of CS2 of shell pair          12654
 max number of PS2 of shell pair          19610
 mem total for path MDJ                  558056
 -------------------------------------------------------
 Smallest overlap matrix eigenvalue = 1.96E-04

 Scale SEOQF with 1.000000e-02/1.000000e-02/1.000000e-02

 Standard Electronic Orientation quadrupole field applied
 Nucleus-field energy     =    -0.0000000875 hartrees
 Guess from superposition of atomic densities
 Warning:  Energy on first SCF cycle will be non-variational
 A restricted hybrid HF-DFT SCF calculation will be
 performed using Pulay DIIS extrapolation
 Exchange:     0.4200 Hartree-Fock + 0.5800 PBEh-3c
 Correlation:  1.0000 PBEh-3c
 Using SG-1 standard quadrature grid
 Dispersion:   Grimme D3
 SCF converges when DIIS error is below 1.0E-08
 using 8 threads for integral computing
 -------------------------------------------------------
 OpenMP Integral computing Module                
 Release: version 1.0, May 2013, Q-Chem Inc. Pittsburgh 
 -------------------------------------------------------
 ---------------------------------------
  Cycle       Energy         DIIS Error
 ---------------------------------------
    1   -2952.3925968378      2.43E-02
    2   -2924.9215228964      1.66E-03
    3   -2925.0810600130      1.50E-03
    4   -2925.4601309522      5.82E-04
    5   -2925.5260471235      1.65E-04
    6   -2925.5312157881      6.09E-05
    7   -2925.5319055918      1.67E-05
    8   -2925.5319577081      5.90E-06
    9   -2925.5319648997      1.24E-06
   10   -2925.5319652935      5.12E-07
   11   -2925.5319653903      1.90E-07
   12   -2925.5319653978      7.42E-08
   13   -2925.5319653924      2.60E-08
   14   -2925.5319653777      9.34E-09 Convergence criterion met
 ---------------------------------------
 SCF time:  CPU 6007.64 s  wall 1212.04 s
 SCF   energy in the final basis set = -2925.53196538
 Total energy in the final basis set = -2925.53196538
 
 Direct TDDFT/TDA calculation will be performed
 Exchange:     0.4200 Hartree-Fock + 0.5800 PBEh-3c
 Correlation:  1.0000 PBEh-3c
 Using SG-1 standard quadrature grid
 Dispersion:   Grimme D3
 Triplet excitation energies requested
 Singlet excitation energies requested
 CIS energy converged when residual is below 10e- 6
 ---------------------------------------------------
 Iter    Rts Conv    Rts Left    Ttl Dev     Max Dev
 ---------------------------------------------------
   1         0           6      0.000154    0.000060
   2         0           6      0.000069    0.000026
   3         1           5      0.000031    0.000014
   4         1           5      0.000084    0.000070
   5         1           5      0.000075    0.000035
   6         2           4      0.000091    0.000038
   7         3           3      0.000028    0.000015
   8         3           3      0.000015    0.000010
   9         5           1      0.000005    0.000003
  10         6           0      0.000003    0.000001    Roots Converged
 ---------------------------------------------------
 Triplets done: starting singlet calculation
 ---------------------------------------------------
 Iter    Rts Conv    Rts Left    Ttl Dev     Max Dev
 ---------------------------------------------------
  11         0           6      0.000272    0.000132
  12         0           6      0.000100    0.000038
  13         0           6      0.000058    0.000021
  14         2           4      0.000017    0.000008
  15         3           3      0.000010    0.000004
  16         5           1      0.000005    0.000001
  17         6           0      0.000004    0.000001    Roots Converged
 ---------------------------------------------------
 
 ---------------------------------------------------
         TDDFT/TDA Excitation Energies              
 ---------------------------------------------------

 Excited state   1: excitation energy (eV) =    2.3295
 Total energy for state  1:                 -2925.44635746 au
    Multiplicity: Triplet
    Trans. Mom.:  0.0000 X   0.0000 Y   0.0000 Z
    Strength   :     0.0000000000
    D(245) --> V(  2) amplitude = -0.2125
    D(247) --> V(  1) amplitude =  0.9085

 Excited state   2: excitation energy (eV) =    2.4878
 Total energy for state  2:                 -2925.44053883 au
    Multiplicity: Triplet
    Trans. Mom.:  0.0000 X   0.0000 Y   0.0000 Z
    Strength   :     0.0000000000
    D(246) --> V(  2) amplitude =  0.4970
    D(248) --> V(  1) amplitude =  0.7815
    D(248) --> V(  4) amplitude =  0.2289

 Excited state   3: excitation energy (eV) =    2.5406
 Total energy for state  3:                 -2925.43860025 au
    Multiplicity: Triplet
    Trans. Mom.:  0.0000 X   0.0000 Y   0.0000 Z
    Strength   :     0.0000000000
    D(246) --> V(  1) amplitude =  0.7216
    D(246) --> V(  4) amplitude =  0.2557
    D(248) --> V(  2) amplitude =  0.5629

 Excited state   4: excitation energy (eV) =    2.7657
 Total energy for state  4:                 -2925.43032957 au
    Multiplicity: Triplet
    Trans. Mom.:  0.0000 X   0.0000 Y   0.0000 Z
    Strength   :     0.0000000000
    D(242) --> V(  1) amplitude =  0.2390
    D(243) --> V(  1) amplitude = -0.2224
    D(244) --> V(  1) amplitude =  0.2516
    D(245) --> V(  1) amplitude =  0.5748
    D(247) --> V(  2) amplitude = -0.5618

 Excited state   5: excitation energy (eV) =    2.8943
 Total energy for state  5:                 -2925.42560346 au
    Multiplicity: Triplet
    Trans. Mom.:  0.0000 X   0.0000 Y   0.0000 Z
    Strength   :     0.0000000000
    D(251) --> V(  1) amplitude = -0.3913
    D(252) --> V(  1) amplitude =  0.8442

 Excited state   6: excitation energy (eV) =    2.9196
 Total energy for state  6:                 -2925.42467059 au
    Multiplicity: Singlet
    Trans. Mom.: -0.1705 X   0.0152 Y  -0.0829 Z
    Strength   :     0.0025883885
    D(251) --> V(  1) amplitude = -0.3544
    D(252) --> V(  1) amplitude =  0.8846

 Excited state   7: excitation energy (eV) =    2.9465
 Total energy for state  7:                 -2925.42368271 au
    Multiplicity: Triplet
    Trans. Mom.:  0.0000 X   0.0000 Y   0.0000 Z
    Strength   :     0.0000000000
    D(241) --> V(  1) amplitude = -0.2287
    D(251) --> V(  1) amplitude =  0.8699
    D(252) --> V(  1) amplitude =  0.4126

 Excited state   8: excitation energy (eV) =    2.9560
 Total energy for state  8:                 -2925.42333437 au
    Multiplicity: Singlet
    Trans. Mom.:  0.0247 X   0.0230 Y   0.0336 Z
    Strength   :     0.0001642103
    D(241) --> V(  1) amplitude = -0.2123
    D(251) --> V(  1) amplitude =  0.8938
    D(252) --> V(  1) amplitude =  0.3646

 Excited state   9: excitation energy (eV) =    2.9978
 Total energy for state  9:                 -2925.42179670 au
    Multiplicity: Singlet
    Trans. Mom.:  0.0211 X  -0.0110 Y  -0.0128 Z
    Strength   :     0.0000534427
    D(247) --> V(  1) amplitude =  0.9584

 Excited state  10: excitation energy (eV) =    3.2852
 Total energy for state 10:                 -2925.41123664 au
    Multiplicity: Singlet
    Trans. Mom.: -2.1964 X   1.9796 Y   1.7012 Z
    Strength   :     0.9366257727
    D(248) --> V(  1) amplitude =  0.9443

 Excited state  11: excitation energy (eV) =    3.5317
 Total energy for state 11:                 -2925.40217913 au
    Multiplicity: Singlet
    Trans. Mom.: -0.0096 X   0.0097 Y  -0.0028 Z
    Strength   :     0.0000167719
    D(250) --> V(  1) amplitude =  0.9988

 Excited state  12: excitation energy (eV) =    3.5430
 Total energy for state 12:                 -2925.40176167 au
    Multiplicity: Singlet
    Trans. Mom.:  0.0050 X  -0.0038 Y  -0.0171 Z
    Strength   :     0.0000287783
    D(249) --> V(  1) amplitude =  0.9984
 
 ---------------------------------------------------
 Calculating Relaxed Density
 ---------------------------------------------------
 Iter    Rts Conv    Rts Left    Ttl Dev     Max Dev
 ---------------------------------------------------
   1         0           6      0.000363    0.000121
   2         0           6      0.000136    0.000039
   3         0           6      0.000033    0.000011
   4         3           3      0.000009    0.000004
   5         4           2      0.000002    0.000001
   6         6           0      0.000000    0.000000    Roots Converged
 ---------------------------------------------------
 Triplets done- using as guess for singlets
 ---------------------------------------------------
 Iter    Rts Conv    Rts Left    Ttl Dev     Max Dev
 ---------------------------------------------------
   1         0           6      0.000654    0.000151
   2         0           6      0.000237    0.000057
   3         0           6      0.000063    0.000015
   4         0           6      0.000022    0.000006
   5         2           4      0.000006    0.000002
   6         6           0      0.000000    0.000000    Roots Converged
 ---------------------------------------------------
  SETman timing summary (seconds)
  CPU time             41317.55s
  System time              0.06s
  Wall time             6001.99s



*********SPIN-ORBIT COUPLING JOB BEGINS HERE*********


=======================================================================================
    SPIN-ORBIT COUPLING BETWEEN THE SINGLET GROUND STATE AND EXCITED TRIPLET STATE
=======================================================================================

SOC between the singlet ground state and excited triplet states (ms=0):
T1(ms=0)      0.000000  +  -0.072787i    cm-1
T2(ms=0)      0.000000  +  -0.096938i    cm-1
T3(ms=0)      0.000000  +  -0.005766i    cm-1
T4(ms=0)      0.000000  +  -0.350712i    cm-1
T5(ms=0)      0.000000  +  -3.311261i    cm-1
T6(ms=0)      0.000000  +  1.060324i    cm-1
SOC between the singlet ground state and excited triplet states (ms=1):
T1(ms=1)      -0.031811  + (-0.063533i)    cm-1
T2(ms=1)      -0.030993  + (-0.019841i)    cm-1
T3(ms=1)      0.060374  + (0.031430i)    cm-1
T4(ms=1)      -0.097267  + (-0.167015i)    cm-1
T5(ms=1)      -0.635548  + (-2.546855i)    cm-1
T6(ms=1)      0.120958  + (0.555713i)    cm-1
SOC between the singlet ground state and excited triplet states (ms=-1):
T1(ms=-1)     -0.031811  - (-0.063533i)    cm-1
T2(ms=-1)     -0.030993  - (-0.019841i)    cm-1
T3(ms=-1)     0.060374  - (0.031430i)    cm-1
T4(ms=-1)     -0.097267  - (-0.167015i)    cm-1
T5(ms=-1)     -0.635548  - (-2.546855i)    cm-1
T6(ms=-1)     0.120958  - (0.555713i)    cm-1
Total SOC between the singlet ground state and excited triplet states:
T1      0.124075    cm-1
T2      0.110025    cm-1
T3      0.096431    cm-1
T4      0.444645    cm-1
T5      4.974458    cm-1
T6      1.330858    cm-1




=======================================================================================
                     SPIN-ORBIT COUPLING BETWEEN EXCITED TRIPLET STATES
=======================================================================================

SOC between the T1 (ms=0) state and excited triplet states (ms=1):
T2(ms=1)      -0.017344  + (0.026615i)    cm-1
T3(ms=1)      0.303242  + (0.095676i)    cm-1
T4(ms=1)      -0.030499  + (-0.013481i)    cm-1
T5(ms=1)      -0.097858  + (0.175529i)    cm-1
T6(ms=1)      -0.003525  + (-0.002364i)    cm-1
SOC between the T1 (ms=0) state and excited triplet states (ms=-1):
T2(ms=-1)     0.017344  + (0.026615i)    cm-1
T3(ms=-1)     -0.303242  + (0.095676i)    cm-1
T4(ms=-1)     0.030499  + (-0.013481i)    cm-1
T5(ms=-1)     0.097858  + (0.175529i)    cm-1
T6(ms=-1)     0.003525  + (-0.002364i)    cm-1
SOC between the T1 (ms=1) state and excited triplet states (ms=0):
T2(ms=0)      0.017344  + (0.026615i)    cm-1
T3(ms=0)      -0.303242  + (0.095676i)    cm-1
T4(ms=0)      0.030499  + (-0.013481i)    cm-1
T5(ms=0)      0.097858  + (0.175529i)    cm-1
T6(ms=0)      0.003525  + (-0.002364i)    cm-1
SOC between the T1 (ms=1) state and excited triplet states (ms=1):
T2(ms=1)      0.000000  + (-0.021034i)    cm-1
T3(ms=1)      0.000000  + (-0.331423i)    cm-1
T4(ms=1)      0.000000  + (-0.032187i)    cm-1
T5(ms=1)      0.000000  + (-0.054428i)    cm-1
T6(ms=1)      0.000000  + (-0.003301i)    cm-1
SOC between the T1 (ms=-1) state and excited triplet states (ms=0):
T2(ms=0)      -0.017344  + (0.026615i)    cm-1
T3(ms=0)      0.303242  + (0.095676i)    cm-1
T4(ms=0)      -0.030499  + (-0.013481i)    cm-1
T5(ms=0)      -0.097858  + (0.175529i)    cm-1
T6(ms=0)      -0.003525  + (-0.002364i)    cm-1
SOC between the T1 (ms=-1) state and excited triplet states (ms=-1):
T2(ms=-1)     0.000000  + (0.021034i)    cm-1
T3(ms=-1)     0.000000  + (0.331423i)    cm-1
T4(ms=-1)     0.000000  + (0.032187i)    cm-1
T5(ms=-1)     0.000000  + (0.054428i)    cm-1
T6(ms=-1)     0.000000  + (0.003301i)    cm-1
Total SOC between the T1 state and excited triplet states:
T2      0.070154    cm-1
T3      0.790013    cm-1
T4      0.080745    cm-1
T5      0.409232    cm-1
T6      0.009688    cm-1



SOC between the T2 (ms=0) state and excited triplet states (ms=1):
T3(ms=1)      0.019263  + (-0.007788i)    cm-1
T4(ms=1)      0.335811  + (0.114381i)    cm-1
T5(ms=1)      0.039517  + (-0.036002i)    cm-1
T6(ms=1)      0.440124  + (-0.389438i)    cm-1
SOC between the T2 (ms=0) state and excited triplet states (ms=-1):
T3(ms=-1)     -0.019263  + (-0.007788i)    cm-1
T4(ms=-1)     -0.335811  + (0.114381i)    cm-1
T5(ms=-1)     -0.039517  + (-0.036002i)    cm-1
T6(ms=-1)     -0.440124  + (-0.389438i)    cm-1
SOC between the T2 (ms=1) state and excited triplet states (ms=0):
T3(ms=0)      -0.019263  + (-0.007788i)    cm-1
T4(ms=0)      -0.335811  + (0.114381i)    cm-1
T5(ms=0)      -0.039517  + (-0.036002i)    cm-1
T6(ms=0)      -0.440124  + (-0.389438i)    cm-1
SOC between the T2 (ms=1) state and excited triplet states (ms=1):
T3(ms=1)      0.000000  + (-0.000145i)    cm-1
T4(ms=1)      0.000000  + (-0.359624i)    cm-1
T5(ms=1)      0.000000  + (0.063257i)    cm-1
T6(ms=1)      0.000000  + (0.595644i)    cm-1
SOC between the T2 (ms=-1) state and excited triplet states (ms=0):
T3(ms=0)      0.019263  + (-0.007788i)    cm-1
T4(ms=0)      0.335811  + (0.114381i)    cm-1
T5(ms=0)      0.039517  + (-0.036002i)    cm-1
T6(ms=0)      0.440124  + (-0.389438i)    cm-1
SOC between the T2 (ms=-1) state and excited triplet states (ms=-1):
T3(ms=-1)     0.000000  + (0.000145i)    cm-1
T4(ms=-1)     0.000000  + (0.359624i)    cm-1
T5(ms=-1)     0.000000  + (-0.063257i)    cm-1
T6(ms=-1)     0.000000  + (-0.595644i)    cm-1
Total SOC between the T2 state and excited triplet states:
T3      0.041556    cm-1
T4      0.872964    cm-1
T5      0.139405    cm-1
T6      1.446053    cm-1



SOC between the T3 (ms=0) state and excited triplet states (ms=1):
T4(ms=1)      0.010314  + (0.016908i)    cm-1
T5(ms=1)      0.007038  + (0.329101i)    cm-1
T6(ms=1)      0.011105  + (-0.047840i)    cm-1
SOC between the T3 (ms=0) state and excited triplet states (ms=-1):
T4(ms=-1)     -0.010314  + (0.016908i)    cm-1
T5(ms=-1)     -0.007038  + (0.329101i)    cm-1
T6(ms=-1)     -0.011105  + (-0.047840i)    cm-1
SOC between the T3 (ms=1) state and excited triplet states (ms=0):
T4(ms=0)      -0.010314  + (0.016908i)    cm-1
T5(ms=0)      -0.007038  + (0.329101i)    cm-1
T6(ms=0)      -0.011105  + (-0.047840i)    cm-1
SOC between the T3 (ms=1) state and excited triplet states (ms=1):
T4(ms=1)      0.000000  + (0.021560i)    cm-1
T5(ms=1)      0.000000  + (0.240176i)    cm-1
T6(ms=1)      0.000000  + (-0.089552i)    cm-1
SOC between the T3 (ms=-1) state and excited triplet states (ms=0):
T4(ms=0)      0.010314  + (0.016908i)    cm-1
T5(ms=0)      0.007038  + (0.329101i)    cm-1
T6(ms=0)      0.011105  + (-0.047840i)    cm-1
SOC between the T3 (ms=-1) state and excited triplet states (ms=-1):
T4(ms=-1)     0.000000  + (-0.021560i)    cm-1
T5(ms=-1)     0.000000  + (-0.240176i)    cm-1
T6(ms=-1)     0.000000  + (0.089552i)    cm-1
Total SOC between the T3 state and excited triplet states:
T4      0.049988    cm-1
T5      0.740808    cm-1
T6      0.160272    cm-1



SOC between the T4 (ms=0) state and excited triplet states (ms=1):
T5(ms=1)      0.076743  + (0.056052i)    cm-1
T6(ms=1)      0.113943  + (0.466370i)    cm-1
SOC between the T4 (ms=0) state and excited triplet states (ms=-1):
T5(ms=-1)     -0.076743  + (0.056052i)    cm-1
T6(ms=-1)     -0.113943  + (0.466370i)    cm-1
SOC between the T4 (ms=1) state and excited triplet states (ms=0):
T5(ms=0)      -0.076743  + (0.056052i)    cm-1
T6(ms=0)      -0.113943  + (0.466370i)    cm-1
SOC between the T4 (ms=1) state and excited triplet states (ms=1):
T5(ms=1)      0.000000  + (-0.002343i)    cm-1
T6(ms=1)      0.000000  + (0.531012i)    cm-1
SOC between the T4 (ms=-1) state and excited triplet states (ms=0):
T5(ms=0)      0.076743  + (0.056052i)    cm-1
T6(ms=0)      0.113943  + (0.466370i)    cm-1
SOC between the T4 (ms=-1) state and excited triplet states (ms=-1):
T5(ms=-1)     0.000000  + (0.002343i)    cm-1
T6(ms=-1)     0.000000  + (-0.531012i)    cm-1
Total SOC between the T4 state and excited triplet states:
T5      0.190096    cm-1
T6      1.218968    cm-1



SOC between the T5 (ms=0) state and excited triplet states (ms=1):
T6(ms=1)      0.005973  + (-0.046214i)    cm-1
SOC between the T5 (ms=0) state and excited triplet states (ms=-1):
T6(ms=-1)     -0.005973  + (-0.046214i)    cm-1
SOC between the T5 (ms=1) state and excited triplet states (ms=0):
T6(ms=0)      -0.005973  + (-0.046214i)    cm-1
SOC between the T5 (ms=1) state and excited triplet states (ms=1):
T6(ms=1)      0.000000  + (-0.057036i)    cm-1
SOC between the T5 (ms=-1) state and excited triplet states (ms=0):
T6(ms=0)      0.005973  + (-0.046214i)    cm-1
SOC between the T5 (ms=-1) state and excited triplet states (ms=-1):
T6(ms=-1)     0.000000  + (0.057036i)    cm-1
Total SOC between the T5 state and excited triplet states:
T6      0.123255    cm-1







=======================================================================================
         SPIN-ORBIT COUPLING BETWEEN EXCITED SINGLET STATES AND TRIPLET STATES
=======================================================================================

SOC between the S1 state and excited triplet states (ms=0):
T1(ms=0)      0.000000  +  0.012546i    cm-1
T2(ms=0)      0.000000  +  -0.069036i    cm-1
T3(ms=0)      0.000000  +  -0.181723i    cm-1
T4(ms=0)      0.000000  +  -0.040571i    cm-1
T5(ms=0)      0.000000  +  0.014072i    cm-1
T6(ms=0)      0.000000  +  -0.008849i    cm-1
SOC between the S1 state and excited triplet states (ms=1):
T1(ms=1)      (-0.054077)  + (0.105952i)    cm-1
T2(ms=1)      (0.082829)  + (-0.043086i)    cm-1
T3(ms=1)      (-0.003872)  + (0.267909i)    cm-1
T4(ms=1)      (0.060561)  + (0.067233i)    cm-1
T5(ms=1)      (-0.002211)  + (-0.009431i)    cm-1
T6(ms=1)      (-0.029392)  + (0.021237i)    cm-1
SOC between the S1 state and excited triplet states (ms=-1):
T1(ms=-1)    -(-0.054077)  + (0.105952i)    cm-1
T2(ms=-1)    -(0.082829)  + (-0.043086i)    cm-1
T3(ms=-1)    -(-0.003872)  + (0.267909i)    cm-1
T4(ms=-1)    -(0.060561)  + (0.067233i)    cm-1
T5(ms=-1)    -(-0.002211)  + (-0.009431i)    cm-1
T6(ms=-1)    -(-0.029392)  + (0.021237i)    cm-1
Total SOC between the S1 state and excited triplet states:
T1      0.168695    cm-1
T2      0.148997    cm-1
T3      0.420242    cm-1
T4      0.134246    cm-1
T5      0.019639    cm-1
T6      0.052039    cm-1



SOC between the S2 state and excited triplet states (ms=0):
T1(ms=0)      0.000000  +  0.019881i    cm-1
T2(ms=0)      0.000000  +  -0.551395i    cm-1
T3(ms=0)      0.000000  +  0.114378i    cm-1
T4(ms=0)      0.000000  +  -0.471683i    cm-1
T5(ms=0)      0.000000  +  0.065832i    cm-1
T6(ms=0)      0.000000  +  0.003524i    cm-1
SOC between the S2 state and excited triplet states (ms=1):
T1(ms=1)      (0.004396)  + (-0.001995i)    cm-1
T2(ms=1)      (0.398634)  + (-0.355951i)    cm-1
T3(ms=1)      (0.032606)  + (-0.050846i)    cm-1
T4(ms=1)      (0.089876)  + (0.415741i)    cm-1
T5(ms=1)      (-0.013835)  + (-0.027517i)    cm-1
T6(ms=1)      (0.005040)  + (-0.000998i)    cm-1
SOC between the S2 state and excited triplet states (ms=-1):
T1(ms=-1)    -(0.004396)  + (-0.001995i)    cm-1
T2(ms=-1)    -(0.398634)  + (-0.355951i)    cm-1
T3(ms=-1)    -(0.032606)  + (-0.050846i)    cm-1
T4(ms=-1)    -(0.089876)  + (0.415741i)    cm-1
T5(ms=-1)    -(-0.013835)  + (-0.027517i)    cm-1
T6(ms=-1)    -(0.005040)  + (-0.000998i)    cm-1
Total SOC between the S2 state and excited triplet states:
T1      0.021021    cm-1
T2      0.935551    cm-1
T3      0.142756    cm-1
T4      0.764409    cm-1
T5      0.078937    cm-1
T6      0.008076    cm-1



SOC between the S3 state and excited triplet states (ms=0):
T1(ms=0)      0.000000  +  -0.005874i    cm-1
T2(ms=0)      0.000000  +  -0.074795i    cm-1
T3(ms=0)      0.000000  +  -0.223217i    cm-1
T4(ms=0)      0.000000  +  -0.099889i    cm-1
T5(ms=0)      0.000000  +  -0.109635i    cm-1
T6(ms=0)      0.000000  +  -0.001505i    cm-1
SOC between the S3 state and excited triplet states (ms=1):
T1(ms=1)      (0.005791)  + (-0.001094i)    cm-1
T2(ms=1)      (0.057963)  + (-0.058266i)    cm-1
T3(ms=1)      (-0.203128)  + (-0.067857i)    cm-1
T4(ms=1)      (0.058137)  + (0.019189i)    cm-1
T5(ms=1)      (0.155519)  + (-0.256772i)    cm-1
T6(ms=1)      (-0.008453)  + (0.006945i)    cm-1
SOC between the S3 state and excited triplet states (ms=-1):
T1(ms=-1)    -(0.005791)  + (-0.001094i)    cm-1
T2(ms=-1)    -(0.057963)  + (-0.058266i)    cm-1
T3(ms=-1)    -(-0.203128)  + (-0.067857i)    cm-1
T4(ms=-1)    -(0.058137)  + (0.019189i)    cm-1
T5(ms=-1)    -(0.155519)  + (-0.256772i)    cm-1
T6(ms=-1)    -(-0.008453)  + (0.006945i)    cm-1
Total SOC between the S3 state and excited triplet states:
T1      0.010197    cm-1
T2      0.138216    cm-1
T3      0.376241    cm-1
T4      0.132189    cm-1
T5      0.438470    cm-1
T6      0.015544    cm-1



SOC between the S4 state and excited triplet states (ms=0):
T1(ms=0)      0.000000  +  0.021945i    cm-1
T2(ms=0)      0.000000  +  -0.005727i    cm-1
T3(ms=0)      0.000000  +  0.022434i    cm-1
T4(ms=0)      0.000000  +  -0.375413i    cm-1
T5(ms=0)      0.000000  +  0.068892i    cm-1
T6(ms=0)      0.000000  +  0.832430i    cm-1
SOC between the S4 state and excited triplet states (ms=1):
T1(ms=1)      (-0.029189)  + (0.025637i)    cm-1
T2(ms=1)      (-0.004547)  + (0.001583i)    cm-1
T3(ms=1)      (-0.024849)  + (0.014370i)    cm-1
T4(ms=1)      (-0.358186)  + (-0.118680i)    cm-1
T5(ms=1)      (-0.066896)  + (0.056226i)    cm-1
T6(ms=1)      (-0.614851)  + (0.558210i)    cm-1
SOC between the S4 state and excited triplet states (ms=-1):
T1(ms=-1)    -(-0.029189)  + (0.025637i)    cm-1
T2(ms=-1)    -(-0.004547)  + (0.001583i)    cm-1
T3(ms=-1)    -(-0.024849)  + (0.014370i)    cm-1
T4(ms=-1)    -(-0.358186)  + (-0.118680i)    cm-1
T5(ms=-1)    -(-0.066896)  + (0.056226i)    cm-1
T6(ms=-1)    -(-0.614851)  + (0.558210i)    cm-1
Total SOC between the S4 state and excited triplet states:
T1      0.059161    cm-1
T2      0.008897    cm-1
T3      0.046382    cm-1
T4      0.652456    cm-1
T5      0.141488    cm-1
T6      1.439521    cm-1



SOC between the S5 state and excited triplet states (ms=0):
T1(ms=0)      0.000000  +  -0.009880i    cm-1
T2(ms=0)      0.000000  +  0.011746i    cm-1
T3(ms=0)      0.000000  +  -0.005357i    cm-1
T4(ms=0)      0.000000  +  0.043096i    cm-1
T5(ms=0)      0.000000  +  0.456784i    cm-1
T6(ms=0)      0.000000  +  -0.584686i    cm-1
SOC between the S5 state and excited triplet states (ms=1):
T1(ms=1)      (0.002014)  + (0.017001i)    cm-1
T2(ms=1)      (-0.004358)  + (0.013025i)    cm-1
T3(ms=1)      (-0.010143)  + (0.011372i)    cm-1
T4(ms=1)      (0.016024)  + (0.005311i)    cm-1
T5(ms=1)      (0.245683)  + (0.157925i)    cm-1
T6(ms=1)      (-0.288555)  + (-0.212488i)    cm-1
SOC between the S5 state and excited triplet states (ms=-1):
T1(ms=-1)    -(0.002014)  + (0.017001i)    cm-1
T2(ms=-1)    -(-0.004358)  + (0.013025i)    cm-1
T3(ms=-1)    -(-0.010143)  + (0.011372i)    cm-1
T4(ms=-1)    -(0.016024)  + (0.005311i)    cm-1
T5(ms=-1)    -(0.245683)  + (0.157925i)    cm-1
T6(ms=-1)    -(-0.288555)  + (-0.212488i)    cm-1
Total SOC between the S5 state and excited triplet states:
T1      0.026150    cm-1
T2      0.022699    cm-1
T3      0.022206    cm-1
T4      0.049267    cm-1
T5      0.615835    cm-1
T6      0.773749    cm-1



SOC between the S6 state and excited triplet states (ms=0):
T1(ms=0)      0.000000  +  0.015252i    cm-1
T2(ms=0)      0.000000  +  -0.022923i    cm-1
T3(ms=0)      0.000000  +  -0.012060i    cm-1
T4(ms=0)      0.000000  +  -0.025575i    cm-1
T5(ms=0)      0.000000  +  -0.312018i    cm-1
T6(ms=0)      0.000000  +  -0.238455i    cm-1
SOC between the S6 state and excited triplet states (ms=1):
T1(ms=1)      (-0.000244)  + (-0.007584i)    cm-1
T2(ms=1)      (0.007043)  + (-0.013500i)    cm-1
T3(ms=1)      (0.000732)  + (0.005697i)    cm-1
T4(ms=1)      (-0.025346)  + (0.011714i)    cm-1
T5(ms=1)      (-0.511964)  + (-0.097924i)    cm-1
T6(ms=1)      (-0.432155)  + (-0.061440i)    cm-1
SOC between the S6 state and excited triplet states (ms=-1):
T1(ms=-1)    -(-0.000244)  + (-0.007584i)    cm-1
T2(ms=-1)    -(0.007043)  + (-0.013500i)    cm-1
T3(ms=-1)    -(0.000732)  + (0.005697i)    cm-1
T4(ms=-1)    -(-0.025346)  + (0.011714i)    cm-1
T5(ms=-1)    -(-0.511964)  + (-0.097924i)    cm-1
T6(ms=-1)    -(-0.432155)  + (-0.061440i)    cm-1
Total SOC between the S6 state and excited triplet states:
T1      0.018649    cm-1
T2      0.031451    cm-1
T3      0.014540    cm-1
T4      0.047046    cm-1
T5      0.800467    cm-1
T6      0.661760    cm-1






            *********SOC CODE ENDS HERE*********



 
 --------------------------------------------------------------
 
                    Orbital Energies (a.u.)
 --------------------------------------------------------------
 
 Alpha MOs
 -- Occupied --
-14.689 -14.688 -10.493 -10.493 -10.484 -10.484 -10.484 -10.483
-10.470 -10.470 -10.469 -10.469 -10.469 -10.469 -10.469 -10.468
-10.468 -10.468 -10.467 -10.467 -10.466 -10.466 -10.466 -10.465
-10.465 -10.464 -10.464 -10.464 -10.463 -10.463 -10.463 -10.463
-10.463 -10.463 -10.461 -10.460 -10.460 -10.459 -10.451 -10.450
-10.448 -10.448 -10.448 -10.448 -10.447 -10.446 -10.446 -10.446
-10.446 -10.445 -10.445 -10.445 -10.445 -10.445 -10.445 -10.445
-10.445 -10.445 -10.444 -10.444 -10.441 -10.440 -10.440 -10.439
-10.438 -10.438 -10.438 -10.437 -10.436 -10.436 -10.436 -10.435
-10.433 -10.432  -6.957  -6.956  -1.109  -1.108  -1.021  -1.020
 -0.978  -0.977  -0.967  -0.965  -0.949  -0.949  -0.946  -0.946
 -0.938  -0.937  -0.915  -0.906  -0.888  -0.887  -0.883  -0.883
 -0.863  -0.860  -0.854  -0.852  -0.852  -0.851  -0.844  -0.844
 -0.828  -0.820  -0.817  -0.810  -0.809  -0.809  -0.808  -0.807
 -0.778  -0.777  -0.774  -0.774  -0.741  -0.738  -0.732  -0.731
 -0.728  -0.726  -0.699  -0.696  -0.693  -0.686  -0.686  -0.684
 -0.679  -0.671  -0.657  -0.657  -0.656  -0.654  -0.649  -0.648
 -0.645  -0.643  -0.602  -0.601  -0.597  -0.595  -0.595  -0.594
 -0.589  -0.587  -0.587  -0.581  -0.580  -0.573  -0.573  -0.558
 -0.558  -0.554  -0.549  -0.547  -0.533  -0.532  -0.526  -0.522
 -0.519  -0.518  -0.518  -0.514  -0.508  -0.505  -0.503  -0.500
 -0.500  -0.499  -0.499  -0.496  -0.494  -0.491  -0.489  -0.489
 -0.488  -0.488  -0.486  -0.485  -0.485  -0.484  -0.480  -0.480
 -0.478  -0.476  -0.474  -0.474  -0.474  -0.473  -0.469  -0.469
 -0.468  -0.461  -0.451  -0.447  -0.446  -0.446  -0.443  -0.435
 -0.431  -0.430  -0.428  -0.424  -0.423  -0.423  -0.421  -0.416
 -0.411  -0.411  -0.409  -0.409  -0.403  -0.400  -0.400  -0.399
 -0.399  -0.398  -0.398  -0.395  -0.394  -0.393  -0.390  -0.389
 -0.386  -0.377  -0.374  -0.373  -0.367  -0.357  -0.354  -0.349
 -0.327  -0.327  -0.325  -0.319  -0.300  -0.298  -0.297  -0.297
 -0.290  -0.287  -0.286  -0.286  -0.285  -0.267  -0.262  -0.261
 -0.251  -0.251  -0.236  -0.235
 -- Virtual --
 -0.098  -0.063  -0.042  -0.035  -0.010  -0.010  -0.009   0.002
  0.004   0.004   0.011   0.017   0.019   0.028   0.028   0.040
  0.056   0.057   0.064   0.069   0.069   0.078   0.080   0.087
  0.119   0.122   0.139   0.139   0.141   0.149   0.151   0.152
  0.153   0.153   0.155   0.156   0.159   0.161   0.161   0.163
  0.167   0.173   0.177   0.178   0.182   0.183   0.184   0.186
  0.190   0.191   0.193   0.196   0.198   0.199   0.200   0.203
  0.206   0.207   0.207   0.209   0.210   0.212   0.213   0.217
  0.218   0.220   0.221   0.225   0.225   0.230   0.230   0.233
  0.234   0.235   0.237   0.240   0.241   0.241   0.242   0.245
  0.246   0.247   0.249   0.249   0.250   0.252   0.254   0.262
  0.263   0.264   0.265   0.267   0.270   0.272   0.277   0.278
  0.282   0.283   0.284   0.288   0.289   0.290   0.290   0.296
  0.297   0.301   0.301   0.303   0.304   0.308   0.310   0.311
  0.314   0.318   0.324   0.327   0.327   0.328   0.329   0.332
  0.342   0.343   0.356   0.357   0.360   0.360   0.361   0.366
  0.370   0.372   0.373   0.379   0.382   0.390   0.397   0.401
  0.405   0.409   0.411   0.412   0.417   0.422   0.424   0.427
  0.427   0.428   0.438   0.445   0.448   0.450   0.455   0.456
  0.460   0.461   0.462   0.479   0.482   0.484   0.486   0.489
  0.490   0.491   0.495   0.496   0.498   0.502   0.503   0.511
  0.517   0.518   0.521   0.521   0.523   0.524   0.525   0.527
  0.528   0.530   0.531   0.532   0.533   0.534   0.536   0.537
  0.538   0.538   0.542   0.544   0.550   0.552   0.554   0.555
  0.556   0.558   0.558   0.561   0.564   0.566   0.569   0.569
  0.571   0.575   0.576   0.577   0.578   0.578   0.582   0.583
  0.584   0.584   0.586   0.587   0.589   0.590   0.592   0.596
  0.598   0.599   0.600   0.600   0.601   0.601   0.601   0.605
  0.608   0.609   0.612   0.614   0.614   0.615   0.616   0.617
  0.618   0.622   0.623   0.624   0.625   0.627   0.629   0.630
  0.634   0.636   0.637   0.638   0.639   0.641   0.642   0.644
  0.644   0.645   0.647   0.649   0.651   0.653   0.654   0.655
  0.658   0.659   0.659   0.664   0.666   0.673   0.674   0.677
  0.678   0.680   0.681   0.682   0.685   0.685   0.691   0.692
  0.696   0.697   0.698   0.702   0.704   0.705   0.706   0.709
  0.716   0.720   0.723   0.724   0.725   0.726   0.727   0.731
  0.732   0.733   0.736   0.741   0.742   0.750   0.751   0.752
  0.753   0.755   0.757   0.759   0.769   0.773   0.774   0.775
  0.777   0.780   0.783   0.785   0.788   0.789   0.791   0.793
  0.795   0.797   0.803   0.806   0.816   0.818   0.821   0.825
  0.829   0.833   0.838   0.843   0.845   0.849   0.853   0.856
  0.863   0.868   0.871   0.875   0.881   0.897   0.899   0.903
  0.903   0.909   0.910   0.912   0.919   0.923   0.925   0.934
  0.935   0.938   0.940   0.941   0.942   0.944   0.945   0.946
  0.950   0.952   0.958   0.960   0.963   0.966   0.968   0.970
  0.972   0.977   0.982   0.982   0.983   0.984   0.986   0.989
  0.989   0.992   0.996   0.996   0.998   1.002   1.004   1.005
  1.006   1.009   1.011   1.012   1.016   1.018   1.022   1.025
  1.025   1.030   1.032   1.034   1.035   1.038   1.039   1.042
  1.047   1.050   1.051   1.053   1.054   1.056   1.058   1.060
  1.064   1.065   1.066   1.067   1.075   1.076   1.078   1.080
  1.082   1.083   1.084   1.086   1.087   1.088   1.095   1.097
  1.104   1.113   1.115   1.115   1.119   1.122   1.124   1.126
  1.126   1.130   1.132   1.135   1.137   1.139   1.140   1.142
  1.144   1.153   1.156   1.157   1.159   1.159   1.163   1.165
  1.168   1.173   1.182   1.184   1.193   1.199   1.200   1.203
  1.209   1.218   1.222   1.229   1.230   1.232   1.235   1.246
  1.248   1.249   1.253   1.260   1.266   1.267   1.273   1.274
  1.279   1.281   1.288   1.293   1.294   1.295   1.299   1.301
  1.306   1.309   1.311   1.312   1.315   1.317   1.318   1.322
  1.322   1.325   1.326   1.335   1.339   1.339   1.343   1.349
  1.354   1.356   1.362   1.366   1.367   1.371   1.371   1.372
  1.377   1.379   1.387   1.387   1.393   1.396   1.398   1.403
  1.405   1.406   1.407   1.410   1.413   1.418   1.432   1.437
  1.437   1.438   1.440   1.449   1.457   1.459   1.468   1.477
  1.478   1.498   1.503   1.504   1.506   1.507   1.508   1.509
  1.510   1.513   1.514   1.514   1.516   1.518   1.520   1.526
  1.528   1.529   1.532   1.533   1.535   1.537   1.539   1.539
  1.541   1.546   1.548   1.551   1.552   1.553   1.554   1.556
  1.557   1.561   1.562   1.563   1.565   1.567   1.570   1.572
  1.577   1.581   1.582   1.587   1.588   1.597   1.599   1.599
  1.603   1.606   1.611   1.629   1.637   1.645   1.650   1.650
  1.658   1.670   1.683   1.692   1.697   1.702   1.738   1.742
  1.743   1.745   1.759   1.768   1.772   1.780   1.791   1.803
  1.804   1.804   1.807   1.808   1.809   1.811   1.815   1.816
  1.827   1.828   1.830   1.831   1.831   1.841   1.846   1.850
  1.852   1.854   1.872   1.878   1.890   1.899   1.900   1.903
  1.904   1.904   1.909   1.914   1.915   1.915   1.919   1.924
  1.924   1.926   1.932   1.935   1.937   1.939   1.941   1.944
  1.946   1.951   1.951   1.953   1.953   1.975   1.980   1.981
  1.982   1.983   1.984   1.990   1.995   2.004   2.005   2.019
  2.028   2.035   2.038   2.040   2.041   2.042   2.044   2.045
  2.054   2.058   2.061   2.062   2.064   2.066   2.068   2.082
  2.082   2.085   2.091   2.094   2.107   2.108   2.116   2.123
  2.126   2.129   2.136   2.136   2.138   2.147   2.148   2.150
  2.152   2.153   2.154   2.162   2.162   2.167   2.171   2.177
  2.183   2.186   2.193   2.199   2.200   2.202   2.205   2.212
  2.215   2.219   2.225   2.228   2.229   2.232   2.234   2.238
  2.241   2.248   2.251   2.255   2.257   2.258   2.260   2.265
  2.270   2.271   2.274   2.275   2.277   2.281   2.282   2.286
  2.287   2.290   2.291   2.293   2.305   2.308   2.316   2.318
  2.318   2.321   2.322   2.335   2.337   2.337   2.340   2.342
  2.345   2.347   2.347   2.348   2.350   2.353   2.354   2.355
  2.358   2.364   2.368   2.371   2.381   2.382   2.383   2.385
  2.388   2.390   2.392   2.397   2.404   2.406   2.410   2.411
  2.414   2.417   2.420   2.428   2.429   2.433   2.443   2.446
  2.452   2.454   2.460   2.469   2.473   2.475   2.475   2.477
  2.487   2.488   2.489   2.493   2.501   2.503   2.511   2.534
  2.540   2.543   2.549   2.569   2.576   2.583   2.601   2.602
  2.609   2.625   2.632   2.633   2.638   2.640   2.640   2.657
  2.659   2.659   2.680   2.680   2.681   2.684   2.700   2.703
  2.706   2.713   2.714   2.718   2.719   2.720   2.722   2.723
  2.726   2.727   2.732   2.738   2.739   2.744   2.754   2.758
  2.766   2.768   2.772   2.773   2.774   2.779   2.782   2.784
  2.788   2.789   2.794   2.794   2.798   2.798   2.801   2.806
  2.811   2.818   2.833   2.834   2.842   2.846   2.848   2.852
  2.864   2.866   2.869   2.873   2.874   2.890   2.894   2.895
  2.897   2.900   2.915   2.916   2.923   2.926   2.931   2.935
  2.945   2.946   2.951   2.970   2.972   2.975   2.981   3.003
  3.003   3.004   3.005   3.015   3.015   3.038   3.048   3.067
  3.080   3.084   3.110   3.133   3.134   3.229   3.250   3.253
  3.272   3.273   3.330   3.335   3.400   3.436   3.440   3.445
  3.446   3.454   3.468   3.489   3.490   3.491   3.566   3.571
  3.615   3.616   3.665   3.678   9.578   9.720  13.137  13.171
 13.222  13.224  13.425  13.432  13.433  13.491  13.507  13.514
 13.522  13.541  13.672  13.676  13.699  13.702  13.713  13.719
 13.725  13.785  13.790  13.800  13.810  13.812  13.849  13.855
 13.882  13.885  13.904  13.919  13.937  13.953  13.954  13.994
 13.999  14.006  14.030  14.039  14.109  14.111  14.121  14.157
 14.158  14.186  14.188  14.191  14.211  14.217  14.218  14.224
 14.231  14.257  14.268  14.268  14.304  14.307  14.325  14.326
 14.332  14.335  14.509  14.513  14.564  14.571  14.575  14.576
 14.581  14.583  14.599  14.602  14.612  14.613  19.577  19.579
 --------------------------------------------------------------
 
          Ground-State Mulliken Net Atomic Charges

     Atom                 Charge (a.u.)
  ----------------------------------------
      1 N                    -0.738179
      2 C                     0.343580
      3 C                     0.334734
      4 C                    -0.282316
      5 H                     0.237256
      6 C                    -0.236407
      7 H                     0.216899
      8 C                    -0.280924
      9 H                     0.234641
     10 C                    -0.235764
     11 H                     0.215866
     12 C                    -0.227247
     13 H                     0.214754
     14 C                    -0.346716
     15 H                     0.205491
     16 C                     0.103767
     17 C                    -0.228768
     18 H                     0.214871
     19 C                    -0.344344
     20 H                     0.205833
     21 C                     0.090954
     22 C                     0.320949
     23 C                    -0.358292
     24 H                     0.237246
     25 C                    -0.350531
     26 H                     0.238825
     27 C                     0.050783
     28 C                     0.052556
     29 C                    -0.211822
     30 C                    -0.763201
     31 H                     0.242045
     32 H                     0.246695
     33 H                     0.250354
     34 C                    -0.760805
     35 H                     0.241201
     36 H                     0.248547
     37 H                     0.245969
     38 B                     0.704874
     39 C                    -0.153090
     40 C                    -0.394061
     41 H                     0.229372
     42 C                     0.106522
     43 C                     0.093253
     44 C                    -0.385157
     45 H                     0.231395
     46 C                    -0.154703
     47 C                     0.195789
     48 C                    -0.377075
     49 H                     0.220812
     50 C                    -0.061550
     51 C                     0.254554
     52 C                     0.196097
     53 C                    -0.383189
     54 H                     0.220542
     55 C                    -0.205998
     56 H                     0.229389
     57 C                    -0.333290
     58 H                     0.222341
     59 C                    -0.203969
     60 H                     0.229062
     61 C                    -0.335896
     62 H                     0.222523
     63 B                     0.705175
     64 C                    -0.154312
     65 C                    -0.387855
     66 H                     0.232335
     67 C                     0.092707
     68 C                     0.101386
     69 C                    -0.386505
     70 H                     0.233286
     71 C                    -0.153863
     72 C                     0.198846
     73 C                    -0.382501
     74 H                     0.221539
     75 C                    -0.061764
     76 C                     0.250707
     77 C                     0.198780
     78 C                    -0.381459
     79 H                     0.221087
     80 C                    -0.333781
     81 H                     0.222386
     82 C                    -0.204643
     83 H                     0.229555
     84 C                    -0.204930
     85 H                     0.229489
     86 C                    -0.332473
     87 H                     0.222334
     88 C                    -0.212838
     89 C                     0.051779
     90 C                    -0.351215
     91 H                     0.237885
     92 C                     0.326034
     93 C                    -0.359805
     94 H                     0.237173
     95 C                     0.049681
     96 N                    -0.742307
     97 C                     0.338302
     98 C                     0.345149
     99 C                    -0.281492
    100 H                     0.234783
    101 C                    -0.235245
    102 H                     0.216465
    103 C                    -0.281087
    104 H                     0.235055
    105 C                    -0.234731
    106 H                     0.216400
    107 C                    -0.228522
    108 H                     0.214943
    109 C                    -0.341714
    110 H                     0.205334
    111 C                     0.096528
    112 C                    -0.229022
    113 H                     0.215040
    114 C                    -0.340576
    115 H                     0.205554
    116 C                     0.087459
    117 C                    -0.762341
    118 H                     0.241762
    119 H                     0.250090
    120 H                     0.245591
    121 C                    -0.758683
    122 H                     0.240841
    123 H                     0.246586
    124 H                     0.248576
  ----------------------------------------
  Sum of atomic charges =    -0.000000

 -----------------------------------------------------------------
                    Cartesian Multipole Moments
 -----------------------------------------------------------------
    Charge (ESU x 10^10)
                -0.0000
    Dipole Moment (Debye)
         X      -0.1272      Y       0.3152      Z      -0.0664
       Tot       0.3463
    Quadrupole Moments (Debye-Ang)
        XX    -414.4361     XY     -29.8515     YY    -416.0418
        XZ     -22.7588     YZ      15.6967     ZZ    -419.8948
    Octopole Moments (Debye-Ang^2)
       XXX    6814.7981    XXY     921.0237    XYY    2229.2173
       YYY    1600.6499    XXZ    2132.7541    XYZ      64.3114
       YYZ    1831.3799    XZZ    2445.6244    YZZ     381.1987
       ZZZ    5990.3494
    Hexadecapole Moments (Debye-Ang^3)
      XXXX -132045.2832   XXXY  -13893.6672   XXYY  -25376.0590
      XYYY   -8571.3439   YYYY  -21731.1140   XXXZ  -46628.5387
      XXYZ   -6616.0179   XYYZ  -15230.2715   YYYZ  -16005.7939
      XXZZ  -39304.2273   XYZZ   -3156.5984   YYZZ  -18278.7678
      XZZZ  -46654.1778   YZZZ  -15193.8037   ZZZZ -100884.3502
 -----------------------------------------------------------------
 -----------------------------------------------------------------
               TDA Excited-State Multipoles, State  1
 -----------------------------------------------------------------
    Charge (ESU x 10^10)
                -0.0000
    Dipole Moment (Debye)
         X      -0.1368      Y       0.3658      Z      -0.0872
       Tot       0.4001
    Quadrupole Moments (Debye-Ang)
        XX    -415.6669     XY     -34.0491     YY    -414.9800
        XZ     -28.2512     YZ      16.8811     ZZ    -421.6421
    Octopole Moments (Debye-Ang^2)
       XXX    6832.0298    XXY     968.1039    XYY    2233.1480
       YYY    1598.4971    XXZ    2199.8152    XYZ      83.4695
       YYZ    1824.2501    XZZ    2508.2905    YZZ     371.9585
       ZZZ    6014.4246
    Hexadecapole Moments (Debye-Ang^3)
      XXXX -132327.2129   XXXY  -14365.1387   XXYY  -25443.8797
      XYYY   -8628.0135   YYYY  -21715.4930   XXXZ  -47362.4286
      XXYZ   -6866.4985   XYYZ  -15287.4940   YYYZ  -15983.6434
      XXZZ  -40036.0494   XYZZ   -3300.2567   YYZZ  -18242.2459
      XZZZ  -47282.2014   YZZZ  -15148.7679   ZZZZ -101207.7797
 -----------------------------------------------------------------
 -----------------------------------------------------------------
               TDA Excited-State Multipoles, State  2
 -----------------------------------------------------------------
    Charge (ESU x 10^10)
                -0.0000
    Dipole Moment (Debye)
         X      -0.0417      Y       0.3069      Z      -0.1340
       Tot       0.3375
    Quadrupole Moments (Debye-Ang)
        XX    -412.3211     XY     -36.1174     YY    -412.0356
        XZ     -29.6845     YZ      19.5054     ZZ    -418.2766
    Octopole Moments (Debye-Ang^2)
       XXX    6772.1178    XXY     985.7032    XYY    2222.8504
       YYY    1589.4315    XXZ    2194.6800    XYZ      82.1787
       YYZ    1805.9952    XZZ    2503.9899    YZZ     346.1054
       ZZZ    5970.7898
    Hexadecapole Moments (Debye-Ang^3)
      XXXX -131505.9548   XXXY  -14572.0829   XXYY  -25326.5705
      XYYY   -8660.8144   YYYY  -21608.5861   XXXZ  -47237.6961
      XXYZ   -6840.7108   XYYZ  -15272.6060   YYYZ  -15865.2660
      XXZZ  -39928.5365   XYZZ   -3281.3592   YYZZ  -18067.8780
      XZZZ  -47192.2466   YZZZ  -14887.7910   ZZZZ -100733.4227
 -----------------------------------------------------------------
 -----------------------------------------------------------------
               TDA Excited-State Multipoles, State  3
 -----------------------------------------------------------------
    Charge (ESU x 10^10)
                -0.0000
    Dipole Moment (Debye)
         X      -0.1719      Y       0.3681      Z      -0.0855
       Tot       0.4152
    Quadrupole Moments (Debye-Ang)
        XX    -411.5976     XY     -35.0249     YY    -412.7364
        XZ     -27.9853     YZ      18.5814     ZZ    -418.6293
    Octopole Moments (Debye-Ang^2)
       XXX    6767.7222    XXY     975.5888    XYY    2221.6245
       YYY    1591.9050    XXZ    2180.0721    XYZ      77.7848
       YYZ    1810.4924    XZZ    2489.6994    YZZ     352.8031
       ZZZ    5972.4231
    Hexadecapole Moments (Debye-Ang^3)
      XXXX -131465.4989   XXXY  -14468.5268   XXYY  -25314.7218
      XYYY   -8642.9982   YYYY  -21625.0171   XXXZ  -47089.5430
      XXYZ   -6792.3930   XYYZ  -15254.5472   YYYZ  -15887.0780
      XXZZ  -39784.1907   XYZZ   -3246.8179   YYZZ  -18099.2181
      XZZZ  -47057.7357   YZZZ  -14933.5910   ZZZZ -100721.3120
 -----------------------------------------------------------------
 -----------------------------------------------------------------
               TDA Excited-State Multipoles, State  4
 -----------------------------------------------------------------
    Charge (ESU x 10^10)
                -0.0000
    Dipole Moment (Debye)
         X      -0.0585      Y       0.2753      Z      -0.0904
       Tot       0.2956
    Quadrupole Moments (Debye-Ang)
        XX    -418.2227     XY     -28.9345     YY    -417.2993
        XZ     -23.1899     YZ      14.7670     ZZ    -421.5544
    Octopole Moments (Debye-Ang^2)
       XXX    6873.0866    XXY     913.7410    XYY    2235.5053
       YYY    1604.2109    XXZ    2151.2729    XYZ      66.6964
       YYZ    1839.3995    XZZ    2458.1957    YZZ     392.8238
       ZZZ    6015.1505
    Hexadecapole Moments (Debye-Ang^3)
      XXXX -132832.0565   XXXY  -13783.7664   XXYY  -25450.6389
      XYYY   -8563.1596   YYYY  -21780.8111   XXXZ  -46866.7161
      XXYZ   -6641.6131   XYYZ  -15251.8287   YYYZ  -16063.8187
      XXZZ  -39463.9921   XYZZ   -3188.7763   YYZZ  -18370.4357
      XZZZ  -46790.4943   YZZZ  -15336.2263   ZZZZ -101184.1712
 -----------------------------------------------------------------
 -----------------------------------------------------------------
               TDA Excited-State Multipoles, State  5
 -----------------------------------------------------------------
    Charge (ESU x 10^10)
                -0.0000
    Dipole Moment (Debye)
         X       4.5550      Y      -0.2764      Z       3.2660
       Tot       5.6117
    Quadrupole Moments (Debye-Ang)
        XX    -388.0769     XY      18.9808     YY    -429.4171
        XZ      47.9691     YZ      13.3609     ZZ    -385.9537
    Octopole Moments (Debye-Ang^2)
       XXX    6298.8838    XXY     339.4384    XYY    2162.5850
       YYY    1589.6891    XXZ    1048.5826    XYZ    -265.2488
       YYZ    1845.0073    XZZ    1466.6531    YZZ     321.2007
       ZZZ    5515.7178
    Hexadecapole Moments (Debye-Ang^3)
      XXXX -122682.9721   XXXY   -7173.5094   XXYY  -24311.6318
      XYYY   -7350.3008   YYYY  -21903.8711   XXXZ  -32207.1528
      XXYZ   -2428.0012   XYYZ  -13611.0028   YYYZ  -15936.6011
      XXZZ  -25965.3498   XYZZ     419.5945   YYZZ  -17948.7064
      XZZZ  -35007.6737   YZZZ  -13912.7669   ZZZZ  -93690.8251
 -----------------------------------------------------------------
 -----------------------------------------------------------------
               TDA Excited-State Multipoles, State  6
 -----------------------------------------------------------------
    Charge (ESU x 10^10)
                -0.0000
    Dipole Moment (Debye)
         X       6.9178      Y       0.2399      Z       5.2866
       Tot       8.7098
    Quadrupole Moments (Debye-Ang)
        XX    -407.1324     XY      15.4856     YY    -432.6459
        XZ      32.4448     YZ       7.8406     ZZ    -399.9649
    Octopole Moments (Debye-Ang^2)
       XXX    6528.9828    XXY     377.7811    XYY    2188.8874
       YYY    1604.2537    XXZ    1216.2759    XYZ    -221.5742
       YYZ    1872.7581    XZZ    1615.6390    YZZ     372.6981
       ZZZ    5672.2880
    Hexadecapole Moments (Debye-Ang^3)
      XXXX -125228.8557   XXXY   -7603.8297   XXYY  -24587.4045
      XYYY   -7457.1773   YYYY  -22009.5315   XXXZ  -34148.1147
      XXYZ   -2905.6324   XYYZ  -13833.9216   YYYZ  -16092.7001
      XXZZ  -27643.3577   XYZZ     -27.6257   YYZZ  -18217.1067
      XZZZ  -36519.6084   YZZZ  -14427.4836   ZZZZ  -95197.5019
 -----------------------------------------------------------------
 -----------------------------------------------------------------
               TDA Excited-State Multipoles, State  7
 -----------------------------------------------------------------
    Charge (ESU x 10^10)
                -0.0000
    Dipole Moment (Debye)
         X      -3.3384      Y      -2.6017      Z      -3.8005
       Tot       5.6884
    Quadrupole Moments (Debye-Ang)
        XX    -296.3663     XY      48.5525     YY    -419.0989
        XZ     136.3826     YZ      37.5599     ZZ    -313.1761
    Octopole Moments (Debye-Ang^2)
       XXX    5112.4625    XXY      -5.8603    XYY    2022.3454
       YYY    1517.8692    XXZ     -38.1386    XYZ    -566.1109
       YYZ    1719.3277    XZZ     496.1113    YZZ      61.6853
       ZZZ    4668.3723
    Hexadecapole Moments (Debye-Ang^3)
      XXXX -107985.0951   XXXY   -3163.5020   XXYY  -22702.2322
      XYYY   -6455.6700   YYYY  -21458.8878   XXXZ  -18763.7053
      XXYZ    1078.8232   XYYZ  -12039.4864   YYYZ  -15160.3338
      XXZZ  -14061.8901   XYZZ    3649.7063   YYZZ  -16551.4323
      XZZZ  -24388.5450   YZZZ  -11045.2368   ZZZZ  -84441.3989
 -----------------------------------------------------------------
 -----------------------------------------------------------------
               TDA Excited-State Multipoles, State  8
 -----------------------------------------------------------------
    Charge (ESU x 10^10)
                -0.0000
    Dipole Moment (Debye)
         X      -5.6350      Y      -3.2292      Z      -5.8394
       Tot       8.7338
    Quadrupole Moments (Debye-Ang)
        XX    -271.8307     XY      55.6405     YY    -415.9886
        XZ     159.1961     YZ      44.2350     ZZ    -293.9585
    Octopole Moments (Debye-Ang^2)
       XXX    4797.4731    XXY     -88.4888    XYY    1985.3290
       YYY    1498.4265    XXZ    -313.8827    XYZ    -641.7477
       YYZ    1684.5533    XZZ     250.0430    YZZ      -8.2429
       ZZZ    4445.4193
    Hexadecapole Moments (Debye-Ang^3)
      XXXX -104145.8916   XXXY   -2201.9627   XXYY  -22283.2715
      XYYY   -6235.7558   YYYY  -21333.7131   XXXZ  -15370.6179
      XXYZ    1955.0087   XYYZ  -11641.9389   YYYZ  -14949.4864
      XXZZ  -11069.7210   XYZZ    4462.6694   YYZZ  -16175.2521
      XZZZ  -21714.1890   YZZZ  -10285.0569   ZZZZ  -82053.3852
 -----------------------------------------------------------------
 -----------------------------------------------------------------
               TDA Excited-State Multipoles, State  9
 -----------------------------------------------------------------
    Charge (ESU x 10^10)
                -0.0000
    Dipole Moment (Debye)
         X      -0.1705      Y       0.3663      Z      -0.1621
       Tot       0.4354
    Quadrupole Moments (Debye-Ang)
        XX    -412.7737     XY     -38.2871     YY    -412.1152
        XZ     -32.0769     YZ      20.0347     ZZ    -419.7020
    Octopole Moments (Debye-Ang^2)
       XXX    6783.7815    XXY    1011.1735    XYY    2226.8211
       YYY    1590.3956    XXZ    2229.1663    XYZ      90.7963
       YYZ    1804.9463    XZZ    2536.0572    YZZ     341.9028
       ZZZ    5989.9280
    Hexadecapole Moments (Debye-Ang^3)
      XXXX -131714.5882   XXXY  -14800.8135   XXYY  -25398.2858
      XYYY   -8671.5083   YYYY  -21633.8720   XXXZ  -47593.6746
      XXYZ   -6982.7310   XYYZ  -15288.5008   YYYZ  -15877.2103
      XXZZ  -40320.3465   XYZZ   -3325.6358   YYZZ  -18070.9691
      XZZZ  -47505.3772   YZZZ  -14873.6401   ZZZZ -100969.3962
 -----------------------------------------------------------------
 -----------------------------------------------------------------
               TDA Excited-State Multipoles, State 10
 -----------------------------------------------------------------
    Charge (ESU x 10^10)
                -0.0000
    Dipole Moment (Debye)
         X       0.3199      Y       0.0420      Z      -0.4525
       Tot       0.5557
    Quadrupole Moments (Debye-Ang)
        XX    -412.5740     XY     -42.5767     YY    -406.6587
        XZ     -37.8222     YZ      25.9654     ZZ    -413.6849
    Octopole Moments (Debye-Ang^2)
       XXX    6748.4767    XXY    1054.9094    XYY    2217.4512
       YYY    1569.8235    XXZ    2270.1781    XYZ      99.1022
       YYZ    1767.0501    XZZ    2568.6649    YZZ     286.9431
       ZZZ    5920.9872
    Hexadecapole Moments (Debye-Ang^3)
      XXXX -131126.9752   XXXY  -15311.1534   XXYY  -25309.6499
      XYYY   -8742.4474   YYYY  -21448.2959   XXXZ  -47984.9616
      XXYZ   -7103.7496   XYYZ  -15310.1072   YYYZ  -15646.3255
      XXZZ  -40681.1860   XYZZ   -3391.2022   YYZZ  -17725.4604
      XZZZ  -47780.2357   YZZZ  -14357.0641   ZZZZ -100295.5005
 -----------------------------------------------------------------
 -----------------------------------------------------------------
               TDA Excited-State Multipoles, State 11
 -----------------------------------------------------------------
    Charge (ESU x 10^10)
                -0.0000
    Dipole Moment (Debye)
         X     -25.6231      Y      -9.1994      Z     -23.8368
       Tot      36.1852
    Quadrupole Moments (Debye-Ang)
        XX     -32.2441     XY     131.1790     YY    -382.9854
        XZ     390.1105     YZ     111.0040     ZZ    -102.0701
    Octopole Moments (Debye-Ang^2)
       XXX    1564.6883    XXY    -978.0858    XYY    1565.7082
       YYY    1260.7273    XXZ   -3253.4341    XYZ   -1461.0230
       YYZ    1285.3770    XZZ   -2376.9393    YZZ    -757.2338
       ZZZ    2134.6302
    Hexadecapole Moments (Debye-Ang^3)
      XXXX  -62859.9083   XXXY    8233.0023   XXYY  -17545.9369
      XYYY   -3446.7150   YYYY  -19779.1777   XXXZ   21966.5544
      XXYZ   11485.8219   XYYZ   -6883.0075   YYYZ  -12381.3647
      XXZZ   21881.8116   XYZZ   13559.8778   YYZZ  -11739.2115
      XZZZ    7666.0470   YZZZ   -1857.5364   ZZZZ  -56317.6479
 -----------------------------------------------------------------
 -----------------------------------------------------------------
               TDA Excited-State Multipoles, State 12
 -----------------------------------------------------------------
    Charge (ESU x 10^10)
                -0.0000
    Dipole Moment (Debye)
         X      27.3032      Y       4.8981      Z      22.7797
       Tot      35.8938
    Quadrupole Moments (Debye-Ang)
        XX    -574.1966     XY     -25.2888     YY    -460.0086
        XZ    -119.3546     YZ     -40.1577     ZZ    -526.3099
    Octopole Moments (Debye-Ang^2)
       XXX    8664.2736    XXY     839.6656    XYY    2443.3030
       YYY    1744.3666    XXZ    2922.0088    XYZ     238.1054
       YYZ    2129.4019    XZZ    3142.0934    YZZ     854.7052
       ZZZ    7177.9429
    Hexadecapole Moments (Debye-Ang^3)
      XXXX -150157.2678   XXXY  -12907.1943   XXYY  -27326.4335
      XYYY   -8722.9787   YYYY  -22973.5758   XXXZ  -54802.4683
      XXYZ   -8139.8778   XYYZ  -16253.4963   YYYZ  -17580.9214
      XXZZ  -45677.4773   XYZZ   -4906.9684   YYZZ  -20823.5278
      XZZZ  -52785.3730   YZZZ  -19512.2084   ZZZZ -110489.1579
 -----------------------------------------------------------------
Archival summary:
1\1\ctcp033\SP\ProcedureUnspecified\BasisUnspecified\272248\mewes\TueOct1619:06:402018TueOct1619:06:402018\0\\#,ProcedureUnspecified,BasisUnspecified,\\0,1\N\C,1,1.37965\C,1,1.38016,2,108.636\C,2,1.38812,1,128.946,3,-179.555,0\H,4,1.08198,2,121.475,1,-0.27833,0\C,4,1.38251,2,117.373,1,179.577,0\H,6,1.08198,4,119.131,2,-179.668,0\C,3,1.39134,1,129.054,2,176.528,0\H,8,1.08203,3,121.534,1,1.26638,0\C,8,1.38264,3,117.645,1,-178.164,0\H,10,1.08241,8,119.161,3,179.955,0\C,10,1.39721,8,121.381,3,0.224997,0\H,12,1.08175,10,119.528,8,179.993,0\C,12,1.38248,10,120.563,8,0.474383,0\H,14,1.08264,12,120.194,10,179.018,0\C,14,1.39155,12,119.259,10,-0.412085,0\C,6,1.39766,4,121.497,2,0.284523,0\H,17,1.08152,6,119.494,4,-179.734,0\C,17,1.3824,6,120.679,4,0.341755,0\H,19,1.08272,17,120.576,6,179.802,0\C,19,1.38959,17,118.971,6,-0.449099,0\C,1,1.40782,2,126.142,3,172.881,0\C,22,1.38653,1,119.963,2,127.106,0\H,23,1.08368,22,119.621,1,-3.08143,0\C,22,1.3877,1,120.035,2,-55.0021,0\H,25,1.08353,22,119.588,1,0.727614,0\C,25,1.38823,22,120.36,1,-177.503,0\C,23,1.38947,22,120.324,1,176.021,0\C,28,1.39847,23,119.879,22,1.74407,0\C,27,1.50321,25,120.289,22,178.777,0\H,30,1.08934,27,111.846,25,7.59969,0\H,30,1.09204,27,111.607,25,128.08,0\H,30,1.09263,27,111.296,25,-112.546,0\C,28,1.50386,23,120.293,22,-176.912,0\H,34,1.08922,28,111.876,23,-3.44785,0\H,34,1.09165,28,111.737,23,-124.201,0\H,34,1.09292,28,111.067,23,116.572,0\B,29,1.57173,28,120.471,23,-175.63,0\C,38,1.55371,29,121.764,28,-88.2809,0\C,39,1.39767,38,120.576,29,3.15211,0\H,40,1.08457,39,119.402,38,-0.590903,0\C,40,1.38537,39,120.053,38,179.341,0\C,42,1.41177,40,119.839,39,0.707115,0\C,43,1.38236,42,120.572,40,-0.446966,0\H,44,1.08498,43,120.429,42,179.953,0\C,44,1.39493,43,119.919,42,-0.107682,0\C,43,1.45828,42,108.475,40,179.584,0\C,47,1.36906,43,134.856,42,-179.695,0\H,48,1.08318,47,121.963,43,0.072026,0\C,47,1.40601,43,106.167,42,0.285358,0\C,50,1.38853,47,124.076,43,179.79,0\C,50,1.40791,47,111.29,43,-0.098533,0\C,52,1.36904,50,118.372,47,179.729,0\H,53,1.08285,52,121.862,50,-179.913,0\C,48,1.414,47,118.262,43,-179.963,0\H,55,1.08208,48,118.549,47,-179.917,0\C,55,1.37563,48,122.384,47,0.091301,0\H,57,1.08288,55,119.692,48,179.927,0\C,53,1.41527,52,118.436,50,0.034333,0\H,59,1.08189,53,118.425,52,-179.934,0\C,59,1.3755,53,122.576,52,0.101944,0\H,61,1.08285,59,119.801,53,179.946,0\B,46,1.55402,44,119.85,43,-179.875,0\C,63,1.55046,46,119.902,44,177.931,0\C,64,1.39713,63,120.111,46,-178.671,0\H,65,1.08485,64,119.909,63,-0.573006,0\C,65,1.38162,64,119.904,63,179.508,0\C,67,1.41252,65,120.22,64,-0.002404,0\C,68,1.38241,67,120.237,65,0.481223,0\H,69,1.08392,68,120.119,67,179.356,0\C,69,1.39743,68,119.996,67,-0.382474,0\C,68,1.46426,67,108.054,65,179.877,0\C,72,1.37018,68,135.477,67,-179.712,0\H,73,1.08258,72,121.972,68,-0.169582,0\C,72,1.40657,68,106.129,67,-0.097593,0\C,75,1.39117,72,124.333,68,-179.565,0\C,75,1.40636,72,111.542,68,0.033318,0\C,77,1.37094,75,118.542,72,-179.651,0\H,78,1.08304,77,122.024,75,-179.987,0\C,76,1.41487,75,116.131,72,-0.200971,0\H,80,1.08325,76,120.001,75,179.993,0\C,80,1.37491,76,120.055,75,0.113253,0\H,82,1.08199,80,119,76,179.878,0\C,78,1.41493,77,118.624,75,0.043498,0\H,84,1.08228,78,118.524,77,179.946,0\C,84,1.37487,78,122.382,77,-0.023809,0\H,86,1.08327,84,119.839,78,179.925,0\C,63,1.5717,46,120.667,44,-2.30176,0\C,88,1.39991,63,120.399,46,95.6624,0\C,89,1.38893,88,119.93,63,178.299,0\H,90,1.08414,89,120.174,88,-178.108,0\C,90,1.38671,89,120.374,88,0.996856,0\C,92,1.38657,90,119.928,89,-0.652325,0\H,93,1.08377,92,119.267,90,179.301,0\C,93,1.38909,92,120.414,90,-0.52922,0\N,92,1.4091,90,120.066,89,-179.467,0\C,96,1.38178,92,125.068,90,118.274,0\C,96,1.38194,92,126.044,90,-55.6034,0\C,98,1.38957,96,129.764,92,-4.54698,0\H,99,1.08155,98,121.513,96,-0.294245,0\C,99,1.38375,98,117.632,96,179.436,0\H,101,1.08215,99,119.051,98,-179.721,0\C,97,1.39041,96,129.727,92,1.65038,0\H,103,1.08163,97,121.597,96,1.83162,0\C,103,1.38376,97,117.701,96,-177.53,0\H,105,1.08221,103,119.042,97,179.888,0\C,105,1.39731,103,121.66,97,0.258897,0\H,107,1.0818,105,119.635,103,179.874,0\C,107,1.38158,105,120.358,103,0.270381,0\H,109,1.0831,107,120.462,105,179.116,0\C,109,1.39128,107,119.017,105,-0.274601,0\C,101,1.39743,99,121.674,98,0.17019,0\H,112,1.08178,101,119.6,99,-179.727,0\C,112,1.38151,101,120.398,99,0.235868,0\H,114,1.08306,112,120.554,101,-179.997,0\C,114,1.39047,112,118.946,101,-0.23876,0\C,95,1.50228,93,119.977,92,-178.392,0\H,117,1.08946,95,111.71,93,-2.73792,0\H,117,1.09161,95,111.597,93,-123.183,0\H,117,1.09242,95,111.236,93,117.292,0\C,89,1.50306,88,120.162,63,0.17021,0\H,121,1.08947,89,111.765,88,-171.883,0\H,121,1.09177,89,111.672,88,-51.4325,0\H,121,1.0922,89,111.19,88,68.0326,0\\\@

 Total job time:  17820.25s(wall), 68651.98s(cpu) 
 Tue Oct 16 19:06:40 2018

        *************************************************************
        *                                                           *
        *  Thank you very much for using Q-Chem.  Have a nice day.  *
        *                                                           *
        *************************************************************


0 sent ACK to 0 
now end server 0 ... 
