104
 Final energy is   -2280.64609287148     
C         0.0293270168   -0.4049529882    0.0797110268
C         0.0248032640   -0.3923901950    1.4917896999
H         0.9716541483   -0.4041294146    2.0219461118
C        -1.1570203509   -0.3616849978    2.1973024865
C        -2.3956661416   -0.3371929353    1.4896296412
C        -2.4190045086   -0.3469761129    0.1201686704
H        -3.3753056405   -0.3244341951   -0.3956488425
C        -1.2177104414   -0.3826497490   -0.6197347745
C        -1.4663177200   -0.3437936910    3.6279953579
C        -0.7376123253   -0.3534617443    4.7909792066
H         0.3449640120   -0.3790552637    4.7867158899
C        -2.8745654761   -0.3100444274    3.7302403379
C        -3.5845133861   -0.2856642452    4.9272545229
C        -3.4831204126   -0.3038598620    2.4599610993
C        -4.8532817025   -0.2710755259    2.3792029240
H        -5.3706947024   -0.2638467761    1.4271389286
C        -1.4318063670   -0.3291960012    6.0247067721
H        -0.8522877760   -0.3370664276    6.9390153412
C        -2.8054019626   -0.2963302672    6.1096853700
H        -3.2883367809   -0.2785427511    7.0790539218
C        -5.5976652795   -0.2459360271    3.5805870626
H        -6.6785308140   -0.2201571956    3.5203631930
C        -4.9973833113   -0.2528756616    4.8198524224
H        -5.6081944586   -0.2327591285    5.7143039082
B        -1.2341080431   -0.3852495959   -2.1466166701
C         0.0717549555   -0.3873293184   -2.9363722165
C         0.0675096116   -0.3920138046   -4.3471198684
H        -0.8727147138   -0.3754781768   -4.8916367503
C         1.2427468836   -0.4203898632   -5.0478100487
C         2.4959309807   -0.4519903319   -4.3678829890
C         2.5184431450   -0.4500079915   -2.9924954373
H         3.4664393101   -0.4830616018   -2.4660658240
C         1.3208478282   -0.4143641203   -2.2451298520
C         1.4952861968   -0.4359141041   -6.4844898680
C         0.7082014258   -0.4208136933   -7.6097480799
H        -0.3731034955   -0.3859204437   -7.5512292030
C         2.8941088788   -0.4803591759   -6.6362451674
C         3.5381241191   -0.5129102958   -7.8715848162
C         3.5488208098   -0.4924065242   -5.3858934306
C         4.9208235298   -0.5399266986   -5.3823702467
H         5.4889345420   -0.5539909228   -4.4607481446
C         1.3368659793   -0.4518059078   -8.8758843453
H         0.7162293334   -0.4396798573   -9.7632042026
C         2.7053404125   -0.4969277809   -9.0179227731
H         3.1455840617   -0.5203180688  -10.0075668287
C         5.6038666663   -0.5731547552   -6.6222610593
H         6.6857308967   -0.6107716061   -6.6108297282
C         4.9524039646   -0.5606286882   -7.8346200664
H         5.5198238209   -0.5884050809   -8.7570377987
B         1.3561953931   -0.4321972584   -0.7049193232
C        -2.6072607232   -0.4156790498   -2.9302208028
C        -3.3341636818    0.7910980010   -3.2022732798
C        -4.5021562832    0.7381042461   -3.9040929151
H        -5.0734681966    1.6349308344   -4.1135372129
C        -4.9999068464   -0.5024634251   -4.3880554955
O        -6.1169230726   -0.4312597226   -5.0538729410
C        -4.2991370318   -1.7008974725   -4.1390733986
H        -4.6706606643   -2.6469630187   -4.5111192860
C        -3.1389161155   -1.6672876540   -3.4155755417
C        -6.7314208584   -1.6012378571   -5.6013066881
H        -7.6367104594   -1.2572534261   -6.0902481429
H        -6.9874708194   -2.3094380968   -4.8135929420
H        -6.0780532420   -2.0752982791   -6.3335285323
C        -2.7987982965    2.1212468452   -2.7618256851
H        -2.2199895732    2.0055519397   -1.8447344230
H        -3.6344557837    2.7840091485   -2.5273929555
C        -2.4415366908   -2.9569263255   -3.1049578417
H        -1.3655990574   -2.7937738728   -3.0383448240
H        -2.6087205425   -3.6625121234   -3.9213371442
C        -1.9282708273    2.7603853443   -3.8435648469
H        -1.0618488173    2.1415085886   -4.0748727719
H        -1.5622726411    3.7303681480   -3.5086240824
H        -2.4925555063    2.9117185819   -4.7646017871
C        -2.9497184202   -3.5648574264   -1.7958034803
H        -2.7717487647   -2.8986982801   -0.9527834893
H        -2.4304597826   -4.5010586294   -1.5942881626
H        -4.0187170969   -3.7744584623   -1.8461283927
C         2.7400300016   -0.4911881083    0.0538076156
C         3.5165352957    0.6582017707    0.2335250428
C         4.7346766257    0.6050561761    0.9130290140
H         5.3008787363    1.5207716569    1.0341980713
C         5.1994582276   -0.6010831417    1.4190784748
O         6.3638917012   -0.7525502251    2.0905804077
C         4.4385791251   -1.7528383626    1.2395035605
H         4.8068688395   -2.6943939763    1.6331834659
C         3.2255739602   -1.7059842980    0.5695652370
C         7.1559529755    0.3876443311    2.3160388986
H         8.0280183215    0.0562175782    2.8759839227
H         7.4958654481    0.8473502387    1.3828082310
H         6.6312699903    1.1461771583    2.9051837421
C         3.0306915312    2.0001640669   -0.2535227384
H         2.4766639511    1.8841290009   -1.1878223929
H         3.8876576495    2.6382383227   -0.4858695972
C         2.4662752111   -2.9937244468    0.3660721932
H         1.3908331790   -2.8089920362    0.4169763292
H         2.6956152859   -3.6840203829    1.1821068009
C         2.7964100168   -3.6659992106   -0.9656061003
H         2.5281262878   -3.0278978986   -1.8077072855
H         3.8621260563   -3.8863714797   -1.0415223050
H         2.2514451723   -4.6051988672   -1.0740841213
C         2.1415472246    2.7045970821    0.7693477020
H         1.2454453242    2.1201647605    0.9791548008
H         2.6689047951    2.8557183949    1.7123823777
H         1.8220764860    3.6813125901    0.4026311784
