mFile = /cm/shared/apps/q-chem/intel/QCHEM_5.1.0_Trunk/bin/mpi/machines
Process 0 of 1 is on ctcp035 - thread support 0
initial socket setup ...start
initial socket setup ...done 
now start server 0 ... 
Q-Chem Developer Version!
                  Welcome to Q-Chem
     A Quantum Leap Into The Future Of Chemistry


 Q-Chem 5.1, Q-Chem, Inc., Pleasanton, CA (2018)

 Yihan Shao,  Zhengting Gan,  E. Epifanovsky,  A. T. B. Gilbert,  M. Wormit,  
 J. Kussmann,  A. W. Lange,  A. Behn,  Jia Deng,  Xintian Feng,  D. Ghosh,  
 M. Goldey,  P. R. Horn,  L. D. Jacobson,  I. Kaliman,  T. Kus,  A. Landau,  
 Jie Liu,  E. I. Proynov,  R. M. Richard,  R. P. Steele,  E. J. Sundstrom,  
 H. L. Woodcock III,  P. M. Zimmerman,  D. Zuev,  B. Albrecht,  E. Alguire,  
 S. A. Baeppler,  D. Barton,  Z. Benda,  Y. A. Bernard,  E. J. Berquist,  
 K. B. Bravaya,  H. Burton,  D. Casanova,  Chun-Min Chang,  Yunqing Chen,  
 A. Chien,  K. D. Closser,  M. P. Coons,  S. Coriani,  S. Dasgupta,  
 A. L. Dempwolff,  M. Diedenhofen,  Hainam Do,  R. G. Edgar,  Po-Tung Fang,  
 S. Faraji,  S. Fatehi,  Qingguo Feng,  K. D. Fenk,  J. Fosso-Tande,  
 Qinghui Ge,  A. Ghysels,  G. Gidofalvi,  J. Gomes,  J. Gonthier,  A. Gunina,  
 D. Hait,  M. W. D. Hanson-Heine,  P. H. P. Harbach,  A. W. Hauser,  
 J. E. Herr,  E. G. Hohenstein,  Z. C. Holden,  Kerwin Hui,  B. C. Huynh,  
 T.-C. Jagau,  Hyunjun Ji,  B. Kaduk,  K. Khistyaev,  Jaehoon Kim,  
 P. Klunzinger,  K. Koh,  D. Kosenkov,  L. Koulias,  T. Kowalczyk,  
 C. M. Krauter,  A. Kunitsa,  Ka Un Lao,  A. Laurent,  K. V. Lawler,  
 Joonho Lee,  D. Lefrancois,  S. Lehtola,  D. S. Levine,  Yi-Pei Li,  
 You-Sheng Lin,  Fenglai Liu,  E. Livshits,  A. Luenser,  P. Manohar,  
 E. Mansoor,  S. F. Manzer,  Shan-Ping Mao,  Yuezhi Mao,  N. Mardirossian,  
 A. V. Marenich,  T. Markovich,  L. A. Martinez-Martinez,  S. A. Maurer,  
 N. J. Mayhall,  S. C. McKenzie,  J.-M. Mewes,  A. F. Morrison,  
 J. W. Mullinax,  K. Nanda,  T. S. Nguyen-Beck,  R. Olivares-Amaya,  
 J. A. Parkhill,  T. M. Perrine,  F. Plasser,  P. Pokhilko,  S. Prager,  
 A. Prociuk,  E. Ramos,  D. R. Rehn,  F. Rob,  M. Schneider,  N. Sergueev,  
 S. M. Sharada,  S. Sharma,  D. W. Small,  T. Stauch,  T. Stein,  
 Yu-Chuan Su,  A. J. W. Thom,  A. Tkatchenko,  T. Tsuchimochi,  N. M. Tubman,  
 L. Vogt,  M. L. Vidal,  O. Vydrov,  M. A. Watson,  J. Wenzel,  
 M. de Wergifosse,  T. A. Wesolowski,  A. White,  J. Witte,  A. Yamada,  
 Jun Yang,  K. Yao,  S. Yeganeh,  S. R. Yost,  Zhi-Qiang You,  A. Zech,  
 Igor Ying Zhang,  Xing Zhang,  Yan Zhao,  Ying Zhu,  B. R. Brooks,  
 G. K. L. Chan,  C. J. Cramer,  M. S. Gordon,  W. J. Hehre,  A. Klamt,  
 M. W. Schmidt,  C. D. Sherrill,  D. G. Truhlar,  A. Aspuru-Guzik,  R. Baer,  
 A. T. Bell,  N. A. Besley,  Jeng-Da Chai,  A. E. DePrince, III,  
 R. A. DiStasio Jr.,  A. Dreuw,  B. D. Dunietz,  T. R. Furlani,  
 Chao-Ping Hsu,  Yousung Jung,  Jing Kong,  D. S. Lambrecht,  WanZhen Liang,  
 C. Ochsenfeld,  V. A. Rassolov,  L. V. Slipchenko,  J. E. Subotnik,  
 T. Van Voorhis,  J. M. Herbert,  A. I. Krylov,  P. M. W. Gill,  M. Head-Gordon

 Contributors to earlier versions of Q-Chem not listed above: 
 R. D. Adamson,  B. Austin,  J. Baker,  G. J. O. Beran,  K. Brandhorst,  
 S. T. Brown,  E. F. C. Byrd,  A. K. Chakraborty,  C.-L. Cheng,  
 Siu Hung Chien,  D. M. Chipman,  D. L. Crittenden,  H. Dachsel,  
 R. J. Doerksen,  A. D. Dutoi,  L. Fusti-Molnar,  W. A. Goddard III,  
 A. Golubeva-Zadorozhnaya,  S. R. Gwaltney,  G. Hawkins,  A. Heyden,  
 S. Hirata,  G. Kedziora,  F. J. Keil,  C. Kelley,  Jihan Kim,  R. A. King,  
 R. Z. Khaliullin,  P. P. Korambath,  W. Kurlancheek,  A. M. Lee,  M. S. Lee,  
 S. V. Levchenko,  Ching Yeh Lin,  D. Liotard,  R. C. Lochan,  I. Lotan,  
 P. E. Maslen,  N. Nair,  D. P. O'Neill,  D. Neuhauser,  E. Neuscamman,  
 C. M. Oana,  R. Olson,  B. Peters,  R. Peverati,  P. A. Pieniazek,  
 Y. M. Rhee,  J. Ritchie,  M. A. Rohrdanz,  E. Rosta,  N. J. Russ,  
 H. F. Schaefer III,  N. E. Schultz,  N. Shenvi,  A. C. Simmonett,  A. Sodt,  
 D. Stuck,  K. S. Thanthiriwatte,  V. Vanovschi,  Tao Wang,  A. Warshel,  
 C. F. Williams,  Q. Wu,  X. Xu,  W. Zhang

 Please cite Q-Chem as follows:
 Y. Shao et al., Mol. Phys. 113, 184-215 (2015)
 DOI: 10.1080/00268976.2014.952696

 Q-Chem 5.1.1 for Intel X86 EM64T Linux

 Parts of Q-Chem use Armadillo 8.300.2 (Tropical Shenanigans).
 http://arma.sourceforge.net/

 Q-Chem begins on Fri Oct 19 10:38:39 2018  

Host: ctcp035
0

     Scratch files written to /scratch/mewes1/137921/qchem40575//
 Parallel job on  1  processors
The previous job contains 0 fragments, simply inherited here
Symmetry turned off for PCM/SM12/SMD calculation
Input Ideriv = 2
Curr. Ideriv = -1
Max.  Ideriv = 2
Input Ideriv = 2
Curr. Ideriv = 2
Max.  Ideriv = 2

Checking the input file for inconsistencies... 	...done.

--------------------------------------------------------------
User input:
--------------------------------------------------------------
$rem
threads 8
jobtype	sp
method PBEh-3c
basis def2-mSVP
mem_static	1024
mem_total	8000
sym_ignore	true
unrestricted true
scf_convergence	9
solvent_method	pcm
$end

$molecule
read moms1opt_tol.mol
$end

$solvent
dielectric	8.93
$end

$pcm
theory iefpcm
$end
--------------------------------------------------------------
 Adding empirical dispersion correction 
 ----------------------------------------------------------------
 Doing -D3(BJ) with
 s6 =   1.00000
 s8 =   0.00000
 a1 =   0.48600
 a2 =   4.50000
 -D3 energy including 3body term =     -0.0957790334 hartrees
 ----------------------------------------------------------------
 Adding gCP correction 
 ----------------------------------------------------------------
 gCP energy =      0.1524218025 hartrees
 ----------------------------------------------------------------
             Standard Nuclear Orientation (Angstroms)
    I     Atom           X                Y                Z
 ----------------------------------------------------------------
    1      C       0.0250420000    -0.4037280000     0.0778110000
    2      C       0.0209060000    -0.3908700000     1.4893070000
    3      H       0.9686030000    -0.4032880000     2.0178160000
    4      C      -1.1607120000    -0.3592640000     2.1951080000
    5      C      -2.3988690000    -0.3334950000     1.4877830000
    6      C      -2.4224280000    -0.3425980000     0.1188590000
    7      H      -3.3791560000    -0.3189070000    -0.3965090000
    8      C      -1.2210850000    -0.3786860000    -0.6214330000
    9      C      -1.4700030000    -0.3418780000     3.6254690000
   10      C      -0.7415620000    -0.3529670000     4.7880970000
   11      H       0.3409040000    -0.3795420000     4.7833190000
   12      C      -2.8779970000    -0.3070710000     3.7281730000
   13      C      -3.5876950000    -0.2829800000     4.9249440000
   14      C      -3.4863760000    -0.2996050000     2.4582100000
   15      C      -4.8560680000    -0.2654940000     2.3777920000
   16      H      -5.3734530000    -0.2570520000     1.4257240000
   17      C      -1.4353820000    -0.3290590000     6.0217070000
   18      H      -0.8557810000    -0.3380980000     6.9359170000
   19      C      -2.8084900000    -0.2951060000     6.1069550000
   20      H      -3.2910510000    -0.2775750000     7.0764840000
   21      C      -5.6005290000    -0.2405050000     3.5787160000
   22      H      -6.6813860000    -0.2136070000     3.5188200000
   23      C      -5.0001380000    -0.2488960000     4.8174590000
   24      H      -5.6110150000    -0.2288470000     5.7118460000
   25      B      -1.2345050000    -0.3814120000    -2.1479890000
   26      C       0.0700070000    -0.3851720000    -2.9388990000
   27      C       0.0675510000    -0.3848280000    -4.3499060000
   28      H      -0.8718500000    -0.3607570000    -4.8960690000
   29      C       1.2430770000    -0.4173430000    -5.0489910000
   30      C       2.4947160000    -0.4589320000    -4.3679360000
   31      C       2.5155390000    -0.4588470000    -2.9925730000
   32      H       3.4618540000    -0.4982520000    -2.4636750000
   33      C       1.3176960000    -0.4173980000    -2.2470340000
   34      C       1.4973080000    -0.4313060000    -6.4855360000
   35      C       0.7122870000    -0.4080810000    -7.6115520000
   36      H      -0.3687640000    -0.3642290000    -7.5542040000
   37      C       2.8956000000    -0.4863940000    -6.6357140000
   38      C       3.5407130000    -0.5227710000    -7.8699840000
   39      C       3.5481720000    -0.5058150000    -5.3845830000
   40      C       4.9192500000    -0.5655670000    -5.3794850000
   41      H       5.4855370000    -0.5865340000    -4.4569700000
   42      C       1.3417530000    -0.4422240000    -8.8768150000
   43      H       0.7225870000    -0.4235470000    -9.7650500000
   44      C       2.7096000000    -0.4985220000    -9.0169060000
   45      H       3.1507100000    -0.5242650000   -10.0060930000
   46      C       5.6035780000    -0.6029280000    -6.6182140000
   47      H       6.6850170000    -0.6503030000    -6.6053910000
   48      C       4.9541980000    -0.5828730000    -7.8310700000
   49      H       5.5228030000    -0.6144700000    -8.7525940000
   50      B       1.3521540000    -0.4338260000    -0.7065960000
   51      C      -2.6064760000    -0.4136500000    -2.9302130000
   52      C      -3.3467450000     0.7902990000    -3.1853620000
   53      C      -4.5168310000     0.7347820000    -3.8834570000
   54      H      -5.0968770000     1.6287840000    -4.0803330000
   55      C      -5.0054530000    -0.5031530000    -4.3799100000
   56      O      -6.1285030000    -0.4333300000    -5.0410490000
   57      C      -4.2937680000    -1.6973360000    -4.1496060000
   58      H      -4.6583390000    -2.6421670000    -4.5313680000
   59      C      -3.1294720000    -1.6640780000    -3.4313320000
   60      C      -6.7325920000    -1.6014990000    -5.5968390000
   61      H      -7.6426610000    -1.2623190000    -6.0807210000
   62      H      -6.9820000000    -2.3210150000    -4.8167470000
   63      H      -6.0789800000    -2.0646490000    -6.3363150000
   64      C      -2.8196080000     2.1181010000    -2.7304210000
   65      H      -2.2522940000     1.9971700000    -1.8069240000
   66      H      -3.6589530000     2.7789340000    -2.5031770000
   67      C      -2.4172230000    -2.9496440000    -3.1429610000
   68      H      -1.3401570000    -2.7819940000    -3.1207260000
   69      H      -2.6148360000    -3.6597970000    -3.9487820000
   70      C      -1.9346720000     2.7628870000    -3.7974290000
   71      H      -1.0637090000     2.1468210000    -4.0182530000
   72      H      -1.5746150000     3.7314930000    -3.4525390000
   73      H      -2.4855510000     2.9183850000    -4.7259520000
   74      C      -2.8691300000    -3.5520800000    -1.8105010000
   75      H      -2.6506870000    -2.8846340000    -0.9784160000
   76      H      -2.3438500000    -4.4890840000    -1.6297020000
   77      H      -3.9399130000    -3.7589320000    -1.8120950000
   78      C       2.7350670000    -0.4919110000     0.0518680000
   79      C       3.5122520000     0.6574730000     0.2257340000
   80      C       4.7304560000     0.6055420000     0.9045010000
   81      H       5.2973910000     1.5213260000     1.0213980000
   82      C       5.1941690000    -0.5987300000     1.4150800000
   83      O       6.3591300000    -0.7489710000     2.0863170000
   84      C       4.4321710000    -1.7501620000     1.2413570000
   85      H       4.8007480000    -2.6896090000     1.6392540000
   86      C       3.2189200000    -1.7049540000     0.5728270000
   87      C       7.1509760000     0.3897230000     2.3065760000
   88      H       8.0233530000     0.0599110000     2.8672510000
   89      H       7.4914630000     0.8464430000     1.3716810000
   90      H       6.6280520000     1.1516900000     2.8934790000
   91      C       3.0264910000     1.9974580000    -0.2666640000
   92      H       2.4758410000     1.8785460000    -1.2026040000
   93      H       3.8837110000     2.6354080000    -0.4988600000
   94      C       2.4566260000    -2.9918910000     0.3762230000
   95      H       1.3817310000    -2.8058510000     0.4341910000
   96      H       2.6900180000    -3.6804600000     1.1926230000
   97      C       2.7775260000    -3.6674230000    -0.9559910000
   98      H       2.5015070000    -3.0329780000    -1.7982410000
   99      H       3.8430300000    -3.8855830000    -1.0396470000
  100      H       2.2337570000    -4.6081990000    -1.0571920000
  101      C       2.1336910000     2.7039570000     0.7515400000
  102      H       1.2361770000     2.1209220000     0.9586240000
  103      H       2.6570980000     2.8554380000     1.6966580000
  104      H       1.8165690000     3.6805720000     0.3824030000
 ----------------------------------------------------------------
 Nuclear Repulsion Energy =  7607.1723116755 hartrees
 There are      198 alpha and      198 beta electrons
 Requested basis set is def2-mSVP
 There are 498 shells and 962 basis functions

 Total QAlloc Memory Limit   8000 MB
 Mega-Array Size      1001 MB
 MEM_STATIC part      1024 MB
 Discretize the solute cavity surface with Lebedev spheres
	Using 302 Lebedev grid points for each H atom
	Using 302 Lebedev grid points for other atoms
	Atomic van der Waals radii will be scaled by 1.20
 Remove points where switching function is < 1.0e-08
 Keep 10993 surface tesserae and discard 20415 interior tesserae
 Molecular Surface Area = 794.279 Angst**2
 A cutoff of  1.0D-12 yielded  48378 shell pairs
 There are    187738 function pairs (    206632 Cartesian)
 
 -------------------------------------------------------
 OpenMP Integral Computing Module                       
 Release: version 1.0, May 2013, Q-Chem Inc. Pittsburgh 
 -------------------------------------------------------
 Integral Job Info:
 Integral job number is                      11
 Integral operator is                         1
 short-range coefficients                     0
 long-range coefficients              100000000
 Omega coefficients                           0
 if combine SR and LR in K                    0
 Integral screening is                        0
 Integral computing path is                   2
 max size of driver memory is            800000
 size of driver memory is                593474
 size of scratch memory is              1809772
 max col of scratch BK array               1296
 max len of scratch array in speh3          155
 max len of scratch index in speh4           18
 max int batch size is                      520
 min int batch size is                       52
 fixed nKL is                                52
 max L of basis functions is                  2
 order of int derivative is                   0
 number of shells is                        498
 number of basis is                        1020
 number of cartesian basis is              1020
 number of contracted shell pairs         48378
 number of primitive shell pairs         100609
 maxK2 (contraction) of shell pair           25
 max number of K2 of shell pair               1
 max number of CS2 of shell pair          11889
 max number of PS2 of shell pair          17660
 mem total for path MDJ                  987084
 -------------------------------------------------------
 Smallest overlap matrix eigenvalue = 1.96E-04

 Scale SEOQF with 1.000000e-02/1.000000e-01/1.000000e-02

 Standard Electronic Orientation quadrupole field applied
 Nucleus-field energy     =    -0.0000000003 hartrees
 Guess from superposition of atomic densities
 Warning:  Energy on first SCF cycle will be non-variational
 SAD guess density has 396.000000 electrons

 -----------------------------------------------------------------------
  General SCF calculation program by
  Eric Jon Sundstrom, Paul Horn, Yuezhi Mao, Dmitri Zuev, Alec White,
  David Stuck, Shaama M.S., Shane Yost, Joonho Lee, David Small,
  Daniel Levine, Susi Lehtola, Hugh Burton, Evgeny Epifanovsky
 -----------------------------------------------------------------------
 Exchange:     0.4200 Hartree-Fock + 0.5800 PBEh-3c
 Correlation:  1.0000 PBEh-3c
 Using SG-1 standard quadrature grid
 Dispersion:   Grimme D3
 using 8 threads for integral computing
 -------------------------------------------------------
 OpenMP Integral computing Module                
 Release: version 2.0, May 2017, Q-Chem Inc. Pleasanton 
 -------------------------------------------------------
 -------------------------------------------------------
 OpenMP BLAS3 based DFT computing Module                
 Release: version 1.0, May 2013, Q-Chem Inc. Pittsburgh 
 -------------------------------------------------------
 A unrestricted SCF calculation will be
 performed using DIIS
 SCF converges when DIIS error is below 1.0e-09
 ---------------------------------------
  Cycle       Energy         DIIS error
 ---------------------------------------
 Using non-symmetric K matrix
 Warning: not using a symmetric Q
    1   -2299.3571565975      1.36e-02  
    2   -2280.2912830938      9.03e-04  
    3   -2280.4953255602      6.86e-04  
    4   -2280.7073628965      2.08e-04  
    5   -2280.7260457544      9.09e-05  
    6   -2280.7301216668      2.22e-05  
    7   -2280.7303473425      6.21e-06  
    8   -2280.7303651229      1.88e-06  
    9   -2280.7303675455      4.74e-07  
   10   -2280.7303676901      1.99e-07  
   11   -2280.7303677275      6.55e-08  
   12   -2280.7303677323      3.51e-08  
   13   -2280.7303677339      1.06e-08  
   14   -2280.7303677345      4.28e-09  
   15   -2280.7303677339      1.25e-09  
   16   -2280.7303677339      5.21e-10  Convergence criterion met
 ---------------------------------------
 SCF time:   CPU 22049.73s  wall 2856.00s 
<S^2> =         -0.000000000

************** Final PCM Free Energy Summary **************
 G_electrostatic  =      -0.02937014 hartree =     -18.43004375 kcal/mol
 G_cavitation     =       0.00000000 hartree =       0.00000000 kcal/mol
 G_dispersion     =       0.00000000 hartree =       0.00000000 kcal/mol
 G_repulsion      =       0.00000000 hartree =       0.00000000 kcal/mol
 --------------------------------------------------
 Non-electrostatic Free Energy =       0.00000000 hartree =       0.00000000 kcal/mol
 Total                         =      -0.02937014 hartree =     -18.43004375 kcal/mol
 --------------------------------------------------
 SCF Energy (H0 + V/2)                       =   -2280.73036773 
 Solute Internal Energy (H0)                 =   -2280.70099759 
 Total Free Energy (H0 + V/2 + non-elec)     =   -2280.73036773 hartree
                                             = -1431179.90655034 kcal/mol
***********************************************************

 SCF   energy in the final basis set =    -2280.7303677339
 Total energy in the final basis set =    -2280.7303677339
 
 --------------------------------------------------------------
 
                    Orbital Energies (a.u.)
 --------------------------------------------------------------
 
 Alpha MOs
 -- Occupied --
-19.528 -19.527 -10.506 -10.505 -10.486 -10.482 -10.467 -10.467
-10.466 -10.466 -10.465 -10.465 -10.465 -10.464 -10.464 -10.464
-10.464 -10.464 -10.462 -10.462 -10.461 -10.461 -10.461 -10.461
-10.458 -10.458 -10.458 -10.458 -10.457 -10.456 -10.455 -10.454
-10.453 -10.452 -10.451 -10.450 -10.450 -10.450 -10.438 -10.438
-10.436 -10.436 -10.435 -10.434 -10.433 -10.432 -10.432 -10.432
-10.431 -10.429 -10.421 -10.420 -10.420 -10.420 -10.419 -10.419
 -6.949  -6.943  -1.194  -1.183  -1.017  -1.017  -0.964  -0.960
 -0.957  -0.949  -0.934  -0.933  -0.909  -0.900  -0.891  -0.889
 -0.867  -0.862  -0.856  -0.856  -0.847  -0.846  -0.826  -0.821
 -0.819  -0.814  -0.812  -0.805  -0.803  -0.802  -0.773  -0.769
 -0.736  -0.729  -0.727  -0.721  -0.711  -0.710  -0.704  -0.703
 -0.689  -0.682  -0.680  -0.667  -0.656  -0.646  -0.646  -0.645
 -0.631  -0.628  -0.596  -0.593  -0.590  -0.587  -0.583  -0.582
 -0.582  -0.576  -0.575  -0.564  -0.562  -0.545  -0.543  -0.537
 -0.537  -0.532  -0.527  -0.523  -0.515  -0.508  -0.504  -0.504
 -0.503  -0.501  -0.499  -0.495  -0.493  -0.490  -0.489  -0.487
 -0.487  -0.485  -0.483  -0.481  -0.480  -0.479  -0.477  -0.465
 -0.463  -0.460  -0.458  -0.456  -0.454  -0.452  -0.442  -0.440
 -0.436  -0.434  -0.433  -0.430  -0.429  -0.428  -0.427  -0.418
 -0.417  -0.412  -0.408  -0.407  -0.402  -0.401  -0.397  -0.397
 -0.396  -0.394  -0.393  -0.392  -0.392  -0.388  -0.382  -0.381
 -0.379  -0.374  -0.364  -0.363  -0.359  -0.357  -0.354  -0.350
 -0.344  -0.338  -0.321  -0.316  -0.297  -0.296  -0.285  -0.281
 -0.278  -0.263  -0.259  -0.256  -0.253  -0.238
 -- Virtual --
 -0.098  -0.061  -0.039  -0.033  -0.007   0.004   0.013   0.023
  0.027   0.034   0.035   0.041   0.069   0.081   0.088   0.090
  0.115   0.121   0.145   0.151   0.152   0.153   0.159   0.162
  0.163   0.164   0.166   0.166   0.170   0.171   0.175   0.178
  0.182   0.187   0.189   0.192   0.194   0.196   0.198   0.199
  0.203   0.204   0.205   0.207   0.207   0.208   0.209   0.211
  0.215   0.216   0.220   0.221   0.222   0.223   0.224   0.225
  0.226   0.227   0.230   0.231   0.233   0.234   0.236   0.237
  0.239   0.242   0.246   0.249   0.251   0.251   0.254   0.256
  0.261   0.264   0.267   0.270   0.271   0.276   0.281   0.286
  0.286   0.287   0.290   0.293   0.294   0.298   0.303   0.311
  0.312   0.312   0.313   0.317   0.320   0.325   0.326   0.332
  0.335   0.338   0.343   0.349   0.352   0.355   0.359   0.365
  0.368   0.382   0.390   0.397   0.401   0.404   0.407   0.414
  0.417   0.420   0.423   0.426   0.437   0.444   0.448   0.453
  0.454   0.457   0.467   0.468   0.471   0.478   0.480   0.485
  0.488   0.493   0.497   0.497   0.500   0.501   0.504   0.508
  0.515   0.521   0.521   0.524   0.525   0.526   0.527   0.527
  0.530   0.532   0.536   0.539   0.541   0.542   0.546   0.550
  0.551   0.553   0.554   0.556   0.558   0.561   0.563   0.565
  0.568   0.569   0.573   0.576   0.580   0.583   0.585   0.586
  0.586   0.587   0.588   0.590   0.594   0.595   0.597   0.598
  0.599   0.601   0.603   0.611   0.615   0.617   0.617   0.618
  0.619   0.622   0.626   0.630   0.631   0.633   0.636   0.640
  0.643   0.651   0.652   0.653   0.655   0.655   0.658   0.659
  0.660   0.661   0.663   0.669   0.671   0.673   0.676   0.678
  0.680   0.682   0.696   0.701   0.703   0.706   0.709   0.712
  0.714   0.716   0.719   0.720   0.724   0.730   0.732   0.734
  0.738   0.742   0.745   0.753   0.753   0.756   0.757   0.767
  0.770   0.773   0.775   0.777   0.785   0.787   0.787   0.791
  0.794   0.799   0.803   0.810   0.818   0.822   0.829   0.833
  0.835   0.838   0.841   0.846   0.848   0.853   0.859   0.866
  0.878   0.882   0.888   0.900   0.901   0.904   0.906   0.909
  0.914   0.920   0.921   0.934   0.943   0.944   0.949   0.951
  0.956   0.960   0.962   0.964   0.966   0.973   0.974   0.984
  0.985   0.988   0.988   0.992   0.992   0.995   0.997   1.000
  1.001   1.005   1.007   1.008   1.011   1.012   1.022   1.024
  1.029   1.031   1.032   1.035   1.036   1.038   1.040   1.044
  1.044   1.048   1.050   1.053   1.054   1.058   1.062   1.064
  1.065   1.070   1.073   1.080   1.081   1.083   1.085   1.087
  1.087   1.090   1.092   1.097   1.100   1.103   1.105   1.125
  1.126   1.127   1.131   1.133   1.141   1.145   1.149   1.152
  1.154   1.158   1.163   1.165   1.167   1.173   1.178   1.181
  1.182   1.186   1.188   1.197   1.206   1.216   1.221   1.222
  1.233   1.237   1.240   1.252   1.257   1.261   1.263   1.268
  1.270   1.271   1.274   1.281   1.287   1.292   1.296   1.298
  1.299   1.303   1.307   1.311   1.317   1.321   1.324   1.328
  1.332   1.334   1.346   1.347   1.352   1.360   1.362   1.367
  1.368   1.371   1.372   1.376   1.383   1.386   1.404   1.407
  1.408   1.412   1.414   1.420   1.423   1.434   1.436   1.437
  1.439   1.440   1.443   1.449   1.451   1.452   1.459   1.475
  1.477   1.491   1.510   1.511   1.512   1.515   1.517   1.517
  1.518   1.525   1.526   1.528   1.531   1.532   1.533   1.541
  1.547   1.548   1.552   1.555   1.559   1.566   1.568   1.577
  1.579   1.581   1.587   1.591   1.594   1.597   1.604   1.611
  1.616   1.622   1.626   1.628   1.639   1.647   1.650   1.656
  1.662   1.665   1.684   1.699   1.714   1.722   1.739   1.744
  1.751   1.754   1.759   1.762   1.766   1.782   1.784   1.791
  1.793   1.798   1.801   1.807   1.807   1.807   1.809   1.811
  1.816   1.817   1.818   1.821   1.836   1.849   1.857   1.866
  1.882   1.890   1.899   1.902   1.905   1.917   1.918   1.921
  1.931   1.937   1.940   1.942   1.950   1.965   1.968   1.973
  1.980   1.982   1.984   1.986   1.989   1.995   1.996   2.010
  2.021   2.028   2.030   2.032   2.037   2.041   2.043   2.045
  2.050   2.054   2.062   2.068   2.071   2.074   2.075   2.078
  2.081   2.085   2.097   2.106   2.106   2.110   2.111   2.118
  2.127   2.131   2.134   2.139   2.149   2.154   2.157   2.158
  2.160   2.162   2.163   2.164   2.172   2.180   2.193   2.198
  2.200   2.202   2.203   2.215   2.230   2.231   2.232   2.247
  2.249   2.252   2.258   2.259   2.264   2.267   2.271   2.273
  2.276   2.282   2.288   2.292   2.304   2.313   2.318   2.320
  2.321   2.322   2.325   2.330   2.332   2.338   2.338   2.343
  2.348   2.350   2.354   2.355   2.357   2.358   2.358   2.365
  2.368   2.370   2.382   2.386   2.388   2.394   2.398   2.402
  2.409   2.413   2.420   2.422   2.427   2.428   2.430   2.438
  2.444   2.454   2.463   2.468   2.475   2.476   2.482   2.486
  2.488   2.495   2.497   2.501   2.515   2.519   2.526   2.532
  2.536   2.558   2.565   2.567   2.572   2.594   2.605   2.624
  2.628   2.639   2.642   2.643   2.645   2.647   2.663   2.671
  2.681   2.683   2.686   2.689   2.708   2.715   2.718   2.726
  2.728   2.733   2.736   2.748   2.751   2.760   2.762   2.772
  2.773   2.780   2.782   2.786   2.787   2.789   2.789   2.793
  2.805   2.807   2.810   2.815   2.820   2.823   2.843   2.850
  2.857   2.862   2.869   2.874   2.890   2.893   2.903   2.905
  2.919   2.927   2.941   2.945   2.952   2.979   2.991   3.001
  3.015   3.023   3.054   3.061   3.073   3.079   3.080   3.082
  3.102   3.110   3.134   3.237   3.255   3.257   3.311   3.327
  3.401   3.440   3.449   3.486   3.490   3.492   3.519   3.548
  3.663   3.674   9.596   9.756  13.141  13.176  13.402  13.484
 13.495  13.511  13.524  13.548  13.664  13.680  13.727  13.760
 13.767  13.772  13.777  13.794  13.800  13.802  13.859  13.866
 13.876  13.913  13.926  13.996  14.005  14.032  14.034  14.035
 14.040  14.044  14.047  14.053  14.160  14.161  14.163  14.199
 14.209  14.223  14.244  14.255  14.281  14.284  14.313  14.315
 14.336  14.337  14.509  14.514  14.540  14.557  14.564  14.575
 14.579  14.580  25.785  25.790
 
 Beta MOs
 -- Occupied --
-19.528 -19.527 -10.506 -10.505 -10.486 -10.482 -10.467 -10.467
-10.466 -10.466 -10.465 -10.465 -10.465 -10.464 -10.464 -10.464
-10.464 -10.464 -10.462 -10.462 -10.461 -10.461 -10.461 -10.461
-10.458 -10.458 -10.458 -10.458 -10.457 -10.456 -10.455 -10.454
-10.453 -10.452 -10.451 -10.450 -10.450 -10.450 -10.438 -10.438
-10.436 -10.436 -10.435 -10.434 -10.433 -10.432 -10.432 -10.432
-10.431 -10.429 -10.421 -10.420 -10.420 -10.420 -10.419 -10.419
 -6.949  -6.943  -1.194  -1.183  -1.017  -1.017  -0.964  -0.960
 -0.957  -0.949  -0.934  -0.933  -0.909  -0.900  -0.891  -0.889
 -0.867  -0.862  -0.856  -0.856  -0.847  -0.846  -0.826  -0.821
 -0.819  -0.814  -0.812  -0.805  -0.803  -0.802  -0.773  -0.769
 -0.736  -0.729  -0.727  -0.721  -0.711  -0.710  -0.704  -0.703
 -0.689  -0.682  -0.680  -0.667  -0.656  -0.646  -0.646  -0.645
 -0.631  -0.628  -0.596  -0.593  -0.590  -0.587  -0.583  -0.582
 -0.582  -0.576  -0.575  -0.564  -0.562  -0.545  -0.543  -0.537
 -0.537  -0.532  -0.527  -0.523  -0.515  -0.508  -0.504  -0.504
 -0.503  -0.501  -0.499  -0.495  -0.493  -0.490  -0.489  -0.487
 -0.487  -0.485  -0.483  -0.481  -0.480  -0.479  -0.477  -0.465
 -0.463  -0.460  -0.458  -0.456  -0.454  -0.452  -0.442  -0.440
 -0.436  -0.434  -0.433  -0.430  -0.429  -0.428  -0.427  -0.418
 -0.417  -0.412  -0.408  -0.407  -0.402  -0.401  -0.397  -0.397
 -0.396  -0.394  -0.393  -0.392  -0.392  -0.388  -0.382  -0.381
 -0.379  -0.374  -0.364  -0.363  -0.359  -0.357  -0.354  -0.350
 -0.344  -0.338  -0.321  -0.316  -0.297  -0.296  -0.285  -0.281
 -0.278  -0.263  -0.259  -0.256  -0.253  -0.238
 -- Virtual --
 -0.098  -0.061  -0.039  -0.033  -0.007   0.004   0.013   0.023
  0.027   0.034   0.035   0.041   0.069   0.081   0.088   0.090
  0.115   0.121   0.145   0.151   0.152   0.153   0.159   0.162
  0.163   0.164   0.166   0.166   0.170   0.171   0.175   0.178
  0.182   0.187   0.189   0.192   0.194   0.196   0.198   0.199
  0.203   0.204   0.205   0.207   0.207   0.208   0.209   0.211
  0.215   0.216   0.220   0.221   0.222   0.223   0.224   0.225
  0.226   0.227   0.230   0.231   0.233   0.234   0.236   0.237
  0.239   0.242   0.246   0.249   0.251   0.251   0.254   0.256
  0.261   0.264   0.267   0.270   0.271   0.276   0.281   0.286
  0.286   0.287   0.290   0.293   0.294   0.298   0.303   0.311
  0.312   0.312   0.313   0.317   0.320   0.325   0.326   0.332
  0.335   0.338   0.343   0.349   0.352   0.355   0.359   0.365
  0.368   0.382   0.390   0.397   0.401   0.404   0.407   0.414
  0.417   0.420   0.423   0.426   0.437   0.444   0.448   0.453
  0.454   0.457   0.467   0.468   0.471   0.478   0.480   0.485
  0.488   0.493   0.497   0.497   0.500   0.501   0.504   0.508
  0.515   0.521   0.521   0.524   0.525   0.526   0.527   0.527
  0.530   0.532   0.536   0.539   0.541   0.542   0.546   0.550
  0.551   0.553   0.554   0.556   0.558   0.561   0.563   0.565
  0.568   0.569   0.573   0.576   0.580   0.583   0.585   0.586
  0.586   0.587   0.588   0.590   0.594   0.595   0.597   0.598
  0.599   0.601   0.603   0.611   0.615   0.617   0.617   0.618
  0.619   0.622   0.626   0.630   0.631   0.633   0.636   0.640
  0.643   0.651   0.652   0.653   0.655   0.655   0.658   0.659
  0.660   0.661   0.663   0.669   0.671   0.673   0.676   0.678
  0.680   0.682   0.696   0.701   0.703   0.706   0.709   0.712
  0.714   0.716   0.719   0.720   0.724   0.730   0.732   0.734
  0.738   0.742   0.745   0.753   0.753   0.756   0.757   0.767
  0.770   0.773   0.775   0.777   0.785   0.787   0.787   0.791
  0.794   0.799   0.803   0.810   0.818   0.822   0.829   0.833
  0.835   0.838   0.841   0.846   0.848   0.853   0.859   0.866
  0.878   0.882   0.888   0.900   0.901   0.904   0.906   0.909
  0.914   0.920   0.921   0.934   0.943   0.944   0.949   0.951
  0.956   0.960   0.962   0.964   0.966   0.973   0.974   0.984
  0.985   0.988   0.988   0.992   0.992   0.995   0.997   1.000
  1.001   1.005   1.007   1.008   1.011   1.012   1.022   1.024
  1.029   1.031   1.032   1.035   1.036   1.038   1.040   1.044
  1.044   1.048   1.050   1.053   1.054   1.058   1.062   1.064
  1.065   1.070   1.073   1.080   1.081   1.083   1.085   1.087
  1.087   1.090   1.092   1.097   1.100   1.103   1.105   1.125
  1.126   1.127   1.131   1.133   1.141   1.145   1.149   1.152
  1.154   1.158   1.163   1.165   1.167   1.173   1.178   1.181
  1.182   1.186   1.188   1.197   1.206   1.216   1.221   1.222
  1.233   1.237   1.240   1.252   1.257   1.261   1.263   1.268
  1.270   1.271   1.274   1.281   1.287   1.292   1.296   1.298
  1.299   1.303   1.307   1.311   1.317   1.321   1.324   1.328
  1.332   1.334   1.346   1.347   1.352   1.360   1.362   1.367
  1.368   1.371   1.372   1.376   1.383   1.386   1.404   1.407
  1.408   1.412   1.414   1.420   1.423   1.434   1.436   1.437
  1.439   1.440   1.443   1.449   1.451   1.452   1.459   1.475
  1.477   1.491   1.510   1.511   1.512   1.515   1.517   1.517
  1.518   1.525   1.526   1.528   1.531   1.532   1.533   1.541
  1.547   1.548   1.552   1.555   1.559   1.566   1.568   1.577
  1.579   1.581   1.587   1.591   1.594   1.597   1.604   1.611
  1.616   1.622   1.626   1.628   1.639   1.647   1.650   1.656
  1.662   1.665   1.684   1.699   1.714   1.722   1.739   1.744
  1.751   1.754   1.759   1.762   1.766   1.782   1.784   1.791
  1.793   1.798   1.801   1.807   1.807   1.807   1.809   1.811
  1.816   1.817   1.818   1.821   1.836   1.849   1.857   1.866
  1.882   1.890   1.899   1.902   1.905   1.917   1.918   1.921
  1.931   1.937   1.940   1.942   1.950   1.965   1.968   1.973
  1.980   1.982   1.984   1.986   1.989   1.995   1.996   2.010
  2.021   2.028   2.030   2.032   2.037   2.041   2.043   2.045
  2.050   2.054   2.062   2.068   2.071   2.074   2.075   2.078
  2.081   2.085   2.097   2.106   2.106   2.110   2.111   2.118
  2.127   2.131   2.134   2.139   2.149   2.154   2.157   2.158
  2.160   2.162   2.163   2.164   2.172   2.180   2.193   2.198
  2.200   2.202   2.203   2.215   2.230   2.231   2.232   2.247
  2.249   2.252   2.258   2.259   2.264   2.267   2.271   2.273
  2.276   2.282   2.288   2.292   2.304   2.313   2.318   2.320
  2.321   2.322   2.325   2.330   2.332   2.338   2.338   2.343
  2.348   2.350   2.354   2.355   2.357   2.358   2.358   2.365
  2.368   2.370   2.382   2.386   2.388   2.394   2.398   2.402
  2.409   2.413   2.420   2.422   2.427   2.428   2.430   2.438
  2.444   2.454   2.463   2.468   2.475   2.476   2.482   2.486
  2.488   2.495   2.497   2.501   2.515   2.519   2.526   2.532
  2.536   2.558   2.565   2.567   2.572   2.594   2.605   2.624
  2.628   2.639   2.642   2.643   2.645   2.647   2.663   2.671
  2.681   2.683   2.686   2.689   2.708   2.715   2.718   2.726
  2.728   2.733   2.736   2.748   2.751   2.760   2.762   2.772
  2.773   2.780   2.782   2.786   2.787   2.789   2.789   2.793
  2.805   2.807   2.810   2.815   2.820   2.823   2.843   2.850
  2.857   2.862   2.869   2.874   2.890   2.893   2.903   2.905
  2.919   2.927   2.941   2.945   2.952   2.979   2.991   3.001
  3.015   3.023   3.054   3.061   3.073   3.079   3.080   3.082
  3.102   3.110   3.134   3.237   3.255   3.257   3.311   3.327
  3.401   3.440   3.449   3.486   3.490   3.492   3.519   3.548
  3.663   3.674   9.596   9.756  13.141  13.176  13.402  13.484
 13.495  13.511  13.524  13.548  13.664  13.680  13.727  13.760
 13.767  13.772  13.777  13.794  13.800  13.802  13.859  13.866
 13.876  13.913  13.926  13.996  14.005  14.032  14.034  14.035
 14.040  14.044  14.047  14.053  14.160  14.161  14.163  14.199
 14.209  14.223  14.244  14.255  14.281  14.284  14.313  14.315
 14.336  14.337  14.509  14.514  14.540  14.557  14.564  14.575
 14.579  14.580  25.785  25.790
 --------------------------------------------------------------
 
          Ground-State Mulliken Net Atomic Charges

     Atom                 Charge (a.u.)    Spin (a.u.)
  --------------------------------------------------------
      1 C                    -0.148476      -0.000000
      2 C                    -0.405819       0.000000
      3 H                     0.249267      -0.000000
      4 C                     0.103540      -0.000000
      5 C                     0.074106       0.000000
      6 C                    -0.393266      -0.000000
      7 H                     0.249552       0.000000
      8 C                    -0.147447       0.000000
      9 C                     0.178470       0.000000
     10 C                    -0.396914       0.000000
     11 H                     0.252720       0.000000
     12 C                    -0.069573      -0.000000
     13 C                     0.222309      -0.000000
     14 C                     0.179984      -0.000000
     15 C                    -0.388611      -0.000000
     16 H                     0.252738      -0.000000
     17 C                    -0.231187      -0.000000
     18 H                     0.257148      -0.000000
     19 C                    -0.349615       0.000000
     20 H                     0.255093      -0.000000
     21 C                    -0.233574       0.000000
     22 H                     0.257807      -0.000000
     23 C                    -0.346215      -0.000000
     24 H                     0.254581      -0.000000
     25 B                     0.625268      -0.000000
     26 C                    -0.145405       0.000000
     27 C                    -0.392540       0.000000
     28 H                     0.250634      -0.000000
     29 C                     0.074608      -0.000000
     30 C                     0.104204      -0.000000
     31 C                    -0.404339       0.000000
     32 H                     0.249503       0.000000
     33 C                    -0.150877      -0.000000
     34 C                     0.180309       0.000000
     35 C                    -0.390287       0.000000
     36 H                     0.252145       0.000000
     37 C                    -0.069584      -0.000000
     38 C                     0.221561       0.000000
     39 C                     0.179461      -0.000000
     40 C                    -0.398389       0.000000
     41 H                     0.252377      -0.000000
     42 C                    -0.233082      -0.000000
     43 H                     0.257696      -0.000000
     44 C                    -0.345811       0.000000
     45 H                     0.254664       0.000000
     46 C                    -0.230794      -0.000000
     47 H                     0.256972      -0.000000
     48 C                    -0.349559      -0.000000
     49 H                     0.255280      -0.000000
     50 B                     0.644908       0.000000
     51 C                    -0.261350       0.000000
     52 C                     0.092317      -0.000000
     53 C                    -0.415831       0.000000
     54 H                     0.234517       0.000000
     55 C                     0.389337      -0.000000
     56 O                    -0.455095      -0.000000
     57 C                    -0.465570       0.000000
     58 H                     0.251315       0.000000
     59 C                     0.086828      -0.000000
     60 C                    -0.425346      -0.000000
     61 H                     0.257803       0.000000
     62 H                     0.227195       0.000000
     63 H                     0.227065       0.000000
     64 C                    -0.550768       0.000000
     65 H                     0.252362       0.000000
     66 H                     0.241488      -0.000000
     67 C                    -0.552006       0.000000
     68 H                     0.255416      -0.000000
     69 H                     0.240107      -0.000000
     70 C                    -0.659851      -0.000000
     71 H                     0.239715       0.000000
     72 H                     0.226686       0.000000
     73 H                     0.222634       0.000000
     74 C                    -0.659169      -0.000000
     75 H                     0.241931      -0.000000
     76 H                     0.226095      -0.000000
     77 H                     0.221383       0.000000
     78 C                    -0.220764      -0.000000
     79 C                     0.068184       0.000000
     80 C                    -0.445463       0.000000
     81 H                     0.254815      -0.000000
     82 C                     0.388310      -0.000000
     83 O                    -0.469019       0.000000
     84 C                    -0.402477      -0.000000
     85 H                     0.238744      -0.000000
     86 C                     0.065457       0.000000
     87 C                    -0.429175      -0.000000
     88 H                     0.252684       0.000000
     89 H                     0.218935      -0.000000
     90 H                     0.218951       0.000000
     91 C                    -0.552186      -0.000000
     92 H                     0.253903       0.000000
     93 H                     0.240626       0.000000
     94 C                    -0.552635      -0.000000
     95 H                     0.253239      -0.000000
     96 H                     0.242459       0.000000
     97 C                    -0.659865       0.000000
     98 H                     0.239652      -0.000000
     99 H                     0.222706       0.000000
    100 H                     0.227664       0.000000
    101 C                    -0.658833       0.000000
    102 H                     0.239787      -0.000000
    103 H                     0.221523      -0.000000
    104 H                     0.228028      -0.000000
  --------------------------------------------------------
  Sum of atomic charges =    -0.000000
  Sum of spin   charges =    -0.000000

 -----------------------------------------------------------------
                    Cartesian Multipole Moments
 -----------------------------------------------------------------
    Charge (ESU x 10^10)
                -0.0000
    Dipole Moment (Debye)
         X      -0.3813      Y      -0.1539      Z      -0.8018
       Tot       0.9011
    Quadrupole Moments (Debye-Ang)
        XX    -273.1528     XY      20.9898     YY    -334.5188
        XZ      -0.9129     YZ      14.1483     ZZ    -268.0571
    Octopole Moments (Debye-Ang^2)
       XXX     -37.1521    XXY     131.8778    XYY     -40.3739
       YYY     438.1987    XXZ     372.0103    XYZ     -40.3052
       YYZ     472.3162    XZZ     -46.7718    YZZ      63.7676
       ZZZ    1149.5475
    Hexadecapole Moments (Debye-Ang^3)
      XXXX  -21339.7295   XXXY     894.6701   XXYY   -4835.1059
      XYYY     -34.1284   YYYY   -4092.6180   XXXZ    2076.4748
      XXYZ     379.5752   XYYZ    1214.7166   YYYZ    -956.3399
      XXZZ   -7819.9432   XYZZ     332.0148   YYZZ   -6944.2298
      XZZZ    1030.3716   YZZZ    -374.3588   ZZZZ  -28386.0754
 -----------------------------------------------------------------
Archival summary:
1\1\ctcp035\SP\ProcedureUnspecified\BasisUnspecified\254246\mewes1\FriOct1911:26:172018FriOct1911:26:172018\0\\#,ProcedureUnspecified,BasisUnspecified,\\0,1\C\C,1,1.41101\H,2,1.0869,1,120.265\C,2,1.36808,1,120.63,3,-179.87,0\C,4,1.42554,2,120.73,1,0.312697,0\C,5,1.37552,4,119.405,2,-0.355834,0\H,6,1.0848,5,120.046,4,179.514,0\C,6,1.41151,5,121.016,4,-0.0403147,0\C,4,1.45893,2,130.777,1,179.628,0\C,9,1.37285,4,135.057,2,0.596575,0\H,10,1.08346,9,121.858,4,0.380712,0\C,9,1.40741,4,106.175,2,-179.149,0\C,12,1.39317,9,123.753,4,179.619,0\C,12,1.41123,9,111.43,4,-0.112769,0\C,14,1.37239,12,117.766,9,179.695,0\H,15,1.08266,14,121.773,12,-179.817,0\C,10,1.41361,9,118.627,4,-179.642,0\H,17,1.0829,10,118.629,9,-179.978,0\C,17,1.37615,10,122.324,9,0.0385314,0\H,19,1.08339,17,119.909,10,179.932,0\C,13,1.4153,12,116.054,9,-179.72,0\H,21,1.08329,13,120.137,12,179.956,0\C,21,1.37591,13,119.75,12,0.0470527,0\H,23,1.08255,21,118.853,13,179.922,0\B,1,1.52555,2,121.128,3,1.28775,0\C,25,1.52662,1,120.724,2,-179.863,0\C,26,1.41158,25,121.13,1,178.454,0\H,27,1.08697,26,120.066,25,0.170234,0\C,27,1.36916,26,120.656,25,-179.66,0\C,29,1.42619,27,120.71,26,0.0466262,0\C,30,1.37673,29,119.425,27,0.131789,0\H,31,1.08518,30,120.008,29,179.551,0\C,31,1.41156,30,121.022,29,-0.264714,0\C,29,1.45793,27,130.755,26,-179.953,0\C,34,1.37247,29,134.91,27,-0.0381016,0\H,35,1.0836,34,121.882,29,-0.101005,0\C,34,1.40819,29,106.135,27,179.943,0\C,37,1.39159,34,123.722,29,-179.921,0\C,37,1.41216,34,111.426,29,0.0765163,0\C,39,1.37203,37,117.9,34,-179.996,0\H,40,1.0828,39,121.818,37,179.985,0\C,35,1.41318,34,118.449,29,179.92,0\H,42,1.08285,35,118.637,34,-179.998,0\C,42,1.3766,35,122.333,34,0.0160305,0\H,44,1.08328,42,119.794,35,179.998,0\C,40,1.41554,39,118.562,37,-0.00109439,0\H,46,1.0825,40,118.256,39,179.991,0\C,46,1.37617,40,122.919,39,-0.00347926,0\H,48,1.08312,46,120.025,40,-179.984,0\B,8,1.54091,6,120.579,5,179.303,0\C,50,1.57832,8,120.026,6,0.23303,0\C,51,1.39833,50,121.097,8,79.8635,0\C,52,1.39551,51,121.002,50,179.566,0\H,53,1.08339,52,118.544,51,-179.636,0\C,53,1.3878,52,120.193,51,0.304539,0\O,55,1.35287,53,124.516,52,-179.968,0\C,55,1.39162,53,119.281,52,0.0499181,0\H,57,1.08477,55,118.994,53,179.784,0\C,57,1.38598,55,120.833,53,-0.303178,0\C,56,1.40434,55,118.249,53,1.1133,0\H,60,1.0882,56,106.684,55,179.208,0\H,60,1.09476,56,112.278,55,60.4467,0\H,60,1.09478,56,112.315,55,-62.0524,0\C,52,1.50797,51,120.715,50,2.13254,0\H,64,1.0924,52,110.207,51,-36.0158,0\H,64,1.09349,52,109.586,51,-152.372,0\C,59,1.50863,57,118.513,55,178.095,0\H,67,1.09241,59,110.181,57,145.121,0\H,67,1.09321,59,109.397,57,28.8202,0\C,64,1.52741,52,112.435,51,85.9073,0\H,70,1.09011,64,111.131,52,-61.6312,0\H,70,1.09094,64,111.18,52,58.3744,0\H,70,1.09115,64,110.999,52,178.561,0\C,67,1.52778,59,112.625,57,-92.7336,0\H,74,1.09,67,111.299,59,-61.7077,0\H,74,1.09082,67,111.129,59,58.3618,0\H,74,1.09132,67,110.939,59,178.394,0\C,25,1.57963,1,119.073,2,1.51816,0\C,78,1.43617,25,121.235,1,-97.5932,0\C,79,1.36364,78,119.941,25,178.863,0\H,80,1.08372,79,121.244,78,179.446,0\C,80,1.42046,79,120.635,78,-0.884475,0\O,82,1.30508,80,115.242,79,-179.508,0\C,82,1.40912,80,120.512,79,0.517556,0\H,84,1.08229,82,120.801,80,-179.588,0\C,84,1.36843,82,119.664,80,0.606902,0\C,83,1.42774,82,121.166,80,179.934,0\H,87,1.08509,83,105.825,82,179.769,0\H,87,1.09016,83,110.993,82,61.0779,0\H,87,1.0902,83,110.976,82,-61.5774,0\C,86,1.49771,84,119.001,82,177.289,0\H,91,1.09026,86,109.983,84,146.992,0\H,91,1.09212,86,109.271,84,29.7139,0\C,79,1.4993,78,120.483,25,0.971985,0\H,94,1.09056,79,109.977,78,-32.2668,0\H,94,1.09217,79,109.195,78,-149.271,0\C,94,1.52884,79,111.422,78,89.5651,0\H,97,1.0894,94,110.203,79,179.186,0\H,97,1.08944,94,111.452,79,-61.3959,0\H,97,1.09078,94,111.217,79,59.3971,0\C,91,1.53056,86,111.411,84,-91.3502,0\H,101,1.08884,91,111.394,86,-61.2616,0\H,101,1.0893,91,109.919,86,179.47,0\H,101,1.09058,91,111.302,86,59.7455,0\\\@

 Total job time:  2858.61s(wall), 22062.31s(cpu) 
 Fri Oct 19 11:26:17 2018

        *************************************************************
        *                                                           *
        *  Thank you very much for using Q-Chem.  Have a nice day.  *
        *                                                           *
        *************************************************************


0 sent ACK to 0 
now end server 0 ... 
 
*************************************************************
Job 2 of 2 
*************************************************************
 
mFile = /cm/shared/apps/q-chem/intel/QCHEM_5.1.0_Trunk/bin/mpi/machines
Process 0 of 1 is on ctcp035 - thread support 0
initial socket setup ...start
initial socket setup ...done 
now start server 0 ... 
Q-Chem Developer Version!
                  Welcome to Q-Chem
     A Quantum Leap Into The Future Of Chemistry


 Q-Chem 5.1, Q-Chem, Inc., Pleasanton, CA (2018)

 Yihan Shao,  Zhengting Gan,  E. Epifanovsky,  A. T. B. Gilbert,  M. Wormit,  
 J. Kussmann,  A. W. Lange,  A. Behn,  Jia Deng,  Xintian Feng,  D. Ghosh,  
 M. Goldey,  P. R. Horn,  L. D. Jacobson,  I. Kaliman,  T. Kus,  A. Landau,  
 Jie Liu,  E. I. Proynov,  R. M. Richard,  R. P. Steele,  E. J. Sundstrom,  
 H. L. Woodcock III,  P. M. Zimmerman,  D. Zuev,  B. Albrecht,  E. Alguire,  
 S. A. Baeppler,  D. Barton,  Z. Benda,  Y. A. Bernard,  E. J. Berquist,  
 K. B. Bravaya,  H. Burton,  D. Casanova,  Chun-Min Chang,  Yunqing Chen,  
 A. Chien,  K. D. Closser,  M. P. Coons,  S. Coriani,  S. Dasgupta,  
 A. L. Dempwolff,  M. Diedenhofen,  Hainam Do,  R. G. Edgar,  Po-Tung Fang,  
 S. Faraji,  S. Fatehi,  Qingguo Feng,  K. D. Fenk,  J. Fosso-Tande,  
 Qinghui Ge,  A. Ghysels,  G. Gidofalvi,  J. Gomes,  J. Gonthier,  A. Gunina,  
 D. Hait,  M. W. D. Hanson-Heine,  P. H. P. Harbach,  A. W. Hauser,  
 J. E. Herr,  E. G. Hohenstein,  Z. C. Holden,  Kerwin Hui,  B. C. Huynh,  
 T.-C. Jagau,  Hyunjun Ji,  B. Kaduk,  K. Khistyaev,  Jaehoon Kim,  
 P. Klunzinger,  K. Koh,  D. Kosenkov,  L. Koulias,  T. Kowalczyk,  
 C. M. Krauter,  A. Kunitsa,  Ka Un Lao,  A. Laurent,  K. V. Lawler,  
 Joonho Lee,  D. Lefrancois,  S. Lehtola,  D. S. Levine,  Yi-Pei Li,  
 You-Sheng Lin,  Fenglai Liu,  E. Livshits,  A. Luenser,  P. Manohar,  
 E. Mansoor,  S. F. Manzer,  Shan-Ping Mao,  Yuezhi Mao,  N. Mardirossian,  
 A. V. Marenich,  T. Markovich,  L. A. Martinez-Martinez,  S. A. Maurer,  
 N. J. Mayhall,  S. C. McKenzie,  J.-M. Mewes,  A. F. Morrison,  
 J. W. Mullinax,  K. Nanda,  T. S. Nguyen-Beck,  R. Olivares-Amaya,  
 J. A. Parkhill,  T. M. Perrine,  F. Plasser,  P. Pokhilko,  S. Prager,  
 A. Prociuk,  E. Ramos,  D. R. Rehn,  F. Rob,  M. Schneider,  N. Sergueev,  
 S. M. Sharada,  S. Sharma,  D. W. Small,  T. Stauch,  T. Stein,  
 Yu-Chuan Su,  A. J. W. Thom,  A. Tkatchenko,  T. Tsuchimochi,  N. M. Tubman,  
 L. Vogt,  M. L. Vidal,  O. Vydrov,  M. A. Watson,  J. Wenzel,  
 M. de Wergifosse,  T. A. Wesolowski,  A. White,  J. Witte,  A. Yamada,  
 Jun Yang,  K. Yao,  S. Yeganeh,  S. R. Yost,  Zhi-Qiang You,  A. Zech,  
 Igor Ying Zhang,  Xing Zhang,  Yan Zhao,  Ying Zhu,  B. R. Brooks,  
 G. K. L. Chan,  C. J. Cramer,  M. S. Gordon,  W. J. Hehre,  A. Klamt,  
 M. W. Schmidt,  C. D. Sherrill,  D. G. Truhlar,  A. Aspuru-Guzik,  R. Baer,  
 A. T. Bell,  N. A. Besley,  Jeng-Da Chai,  A. E. DePrince, III,  
 R. A. DiStasio Jr.,  A. Dreuw,  B. D. Dunietz,  T. R. Furlani,  
 Chao-Ping Hsu,  Yousung Jung,  Jing Kong,  D. S. Lambrecht,  WanZhen Liang,  
 C. Ochsenfeld,  V. A. Rassolov,  L. V. Slipchenko,  J. E. Subotnik,  
 T. Van Voorhis,  J. M. Herbert,  A. I. Krylov,  P. M. W. Gill,  M. Head-Gordon

 Contributors to earlier versions of Q-Chem not listed above: 
 R. D. Adamson,  B. Austin,  J. Baker,  G. J. O. Beran,  K. Brandhorst,  
 S. T. Brown,  E. F. C. Byrd,  A. K. Chakraborty,  C.-L. Cheng,  
 Siu Hung Chien,  D. M. Chipman,  D. L. Crittenden,  H. Dachsel,  
 R. J. Doerksen,  A. D. Dutoi,  L. Fusti-Molnar,  W. A. Goddard III,  
 A. Golubeva-Zadorozhnaya,  S. R. Gwaltney,  G. Hawkins,  A. Heyden,  
 S. Hirata,  G. Kedziora,  F. J. Keil,  C. Kelley,  Jihan Kim,  R. A. King,  
 R. Z. Khaliullin,  P. P. Korambath,  W. Kurlancheek,  A. M. Lee,  M. S. Lee,  
 S. V. Levchenko,  Ching Yeh Lin,  D. Liotard,  R. C. Lochan,  I. Lotan,  
 P. E. Maslen,  N. Nair,  D. P. O'Neill,  D. Neuhauser,  E. Neuscamman,  
 C. M. Oana,  R. Olson,  B. Peters,  R. Peverati,  P. A. Pieniazek,  
 Y. M. Rhee,  J. Ritchie,  M. A. Rohrdanz,  E. Rosta,  N. J. Russ,  
 H. F. Schaefer III,  N. E. Schultz,  N. Shenvi,  A. C. Simmonett,  A. Sodt,  
 D. Stuck,  K. S. Thanthiriwatte,  V. Vanovschi,  Tao Wang,  A. Warshel,  
 C. F. Williams,  Q. Wu,  X. Xu,  W. Zhang

 Please cite Q-Chem as follows:
 Y. Shao et al., Mol. Phys. 113, 184-215 (2015)
 DOI: 10.1080/00268976.2014.952696

 Q-Chem 5.1.1 for Intel X86 EM64T Linux

 Parts of Q-Chem use Armadillo 8.300.2 (Tropical Shenanigans).
 http://arma.sourceforge.net/

 Q-Chem begins on Fri Oct 19 11:26:21 2018  

Host: ctcp035
0

     Scratch files written to /scratch/mewes1/137921/qchem40575//
 Parallel job on  1  processors
The previous job contains 0 fragments, simply inherited here
Symmetry turned off for PCM/SM12/SMD calculation
Input Ideriv = 2
Curr. Ideriv = -1
Max.  Ideriv = 2
Input Ideriv = 2
Curr. Ideriv = 2
Max.  Ideriv = 2

Checking the input file for inconsistencies... 	...done.

--------------------------------------------------------------
User input:
--------------------------------------------------------------

$rem
threads 8
jobtype opt
method PBEh-3c
basis def2-mSVP
scf_guess	read
mem_static      1024
mem_total       8000
sym_ignore      true
unrestricted true
mom_start       1
scf_algorithm	diis
scf_max_cycles	250
solvent_method	pcm
geom_opt_tol_energy 25
geom_opt_tol_gradient 75
$end

$solvent
dielectric      8.93
$end
$pcm
theory iefpcm
$end

$occupied
1 2 3 4 5 6 7 8 9 10 11 12 13 14 15 16 17 18 19 20 21 22 23 24 25 26 27 28 29 30 31 32 33 34 35 36 37 38 39 40 41 42 43 44 45 46 47 48 49 50 51 52 53 54 55 56 57 58 59 60 61 62 63 64 65 66 67 68 69 70 71 72 73 74 75 76 77 78 79 80 81 82 83 84 85 86 87 88 89 90 91 92 93 94 95 96 97 98 99 100 101 102 103 104 105 106 107 108 109 110 111 112 113 114 115 116 117 118 119 120 121 122 123 124 125 126 127 128 129 130 131 132 133 134 135 136 137 138 139 140 141 142 143 144 145 146 147 148 149 150 151 152 153 154 155 156 157 158 159 160 161 162 163 164 165 166 167 168 169 170 171 172 173 174 175 176 177 178 179 180 181 182 183 184 185 186 187 188 189 190 191 192 193 194 195 196 197  199
1 2 3 4 5 6 7 8 9 10 11 12 13 14 15 16 17 18 19 20 21 22 23 24 25 26 27 28 29 30 31 32 33 34 35 36 37 38 39 40 41 42 43 44 45 46 47 48 49 50 51 52 53 54 55 56 57 58 59 60 61 62 63 64 65 66 67 68 69 70 71 72 73 74 75 76 77 78 79 80 81 82 83 84 85 86 87 88 89 90 91 92 93 94 95 96 97 98 99 100 101 102 103 104 105 106 107 108 109 110 111 112 113 114 115 116 117 118 119 120 121 122 123 124 125 126 127 128 129 130 131 132 133 134 135 136 137 138 139 140 141 142 143 144 145 146 147 148 149 150 151 152 153 154 155 156 157 158 159 160 161 162 163 164 165 166 167 168 169 170 171 172 173 174 175 176 177 178 179 180 181 182 183 184 185 186 187 188 189 190 191 192 193 194 195 196 197 198
$end

$molecule
read
$end

--------------------------------------------------------------
 Adding empirical dispersion correction 
 ----------------------------------------------------------------
 Doing -D3(BJ) with
 s6 =   1.00000
 s8 =   0.00000
 a1 =   0.48600
 a2 =   4.50000
 -D3 energy including 3body term =     -0.0957790334 hartrees
 ----------------------------------------------------------------
 Adding gCP correction 
 ----------------------------------------------------------------
 gCP energy =      0.1524218025 hartrees
 ----------------------------------------------------------------
             Standard Nuclear Orientation (Angstroms)
    I     Atom           X                Y                Z
 ----------------------------------------------------------------
    1      C       0.0250420000    -0.4037280000     0.0778110000
    2      C       0.0209060000    -0.3908700000     1.4893070000
    3      H       0.9686030000    -0.4032880000     2.0178160000
    4      C      -1.1607120000    -0.3592640000     2.1951080000
    5      C      -2.3988690000    -0.3334950000     1.4877830000
    6      C      -2.4224280000    -0.3425980000     0.1188590000
    7      H      -3.3791560000    -0.3189070000    -0.3965090000
    8      C      -1.2210850000    -0.3786860000    -0.6214330000
    9      C      -1.4700030000    -0.3418780000     3.6254690000
   10      C      -0.7415620000    -0.3529670000     4.7880970000
   11      H       0.3409040000    -0.3795420000     4.7833190000
   12      C      -2.8779970000    -0.3070710000     3.7281730000
   13      C      -3.5876950000    -0.2829800000     4.9249440000
   14      C      -3.4863760000    -0.2996050000     2.4582100000
   15      C      -4.8560680000    -0.2654940000     2.3777920000
   16      H      -5.3734530000    -0.2570520000     1.4257240000
   17      C      -1.4353820000    -0.3290590000     6.0217070000
   18      H      -0.8557810000    -0.3380980000     6.9359170000
   19      C      -2.8084900000    -0.2951060000     6.1069550000
   20      H      -3.2910510000    -0.2775750000     7.0764840000
   21      C      -5.6005290000    -0.2405050000     3.5787160000
   22      H      -6.6813860000    -0.2136070000     3.5188200000
   23      C      -5.0001380000    -0.2488960000     4.8174590000
   24      H      -5.6110150000    -0.2288470000     5.7118460000
   25      B      -1.2345050000    -0.3814120000    -2.1479890000
   26      C       0.0700070000    -0.3851720000    -2.9388990000
   27      C       0.0675510000    -0.3848280000    -4.3499060000
   28      H      -0.8718500000    -0.3607570000    -4.8960690000
   29      C       1.2430770000    -0.4173430000    -5.0489910000
   30      C       2.4947160000    -0.4589320000    -4.3679360000
   31      C       2.5155390000    -0.4588470000    -2.9925730000
   32      H       3.4618540000    -0.4982520000    -2.4636750000
   33      C       1.3176960000    -0.4173980000    -2.2470340000
   34      C       1.4973080000    -0.4313060000    -6.4855360000
   35      C       0.7122870000    -0.4080810000    -7.6115520000
   36      H      -0.3687640000    -0.3642290000    -7.5542040000
   37      C       2.8956000000    -0.4863940000    -6.6357140000
   38      C       3.5407130000    -0.5227710000    -7.8699840000
   39      C       3.5481720000    -0.5058150000    -5.3845830000
   40      C       4.9192500000    -0.5655670000    -5.3794850000
   41      H       5.4855370000    -0.5865340000    -4.4569700000
   42      C       1.3417530000    -0.4422240000    -8.8768150000
   43      H       0.7225870000    -0.4235470000    -9.7650500000
   44      C       2.7096000000    -0.4985220000    -9.0169060000
   45      H       3.1507100000    -0.5242650000   -10.0060930000
   46      C       5.6035780000    -0.6029280000    -6.6182140000
   47      H       6.6850170000    -0.6503030000    -6.6053910000
   48      C       4.9541980000    -0.5828730000    -7.8310700000
   49      H       5.5228030000    -0.6144700000    -8.7525940000
   50      B       1.3521540000    -0.4338260000    -0.7065960000
   51      C      -2.6064760000    -0.4136500000    -2.9302130000
   52      C      -3.3467450000     0.7902990000    -3.1853620000
   53      C      -4.5168310000     0.7347820000    -3.8834570000
   54      H      -5.0968770000     1.6287840000    -4.0803330000
   55      C      -5.0054530000    -0.5031530000    -4.3799100000
   56      O      -6.1285030000    -0.4333300000    -5.0410490000
   57      C      -4.2937680000    -1.6973360000    -4.1496060000
   58      H      -4.6583390000    -2.6421670000    -4.5313680000
   59      C      -3.1294720000    -1.6640780000    -3.4313320000
   60      C      -6.7325920000    -1.6014990000    -5.5968390000
   61      H      -7.6426610000    -1.2623190000    -6.0807210000
   62      H      -6.9820000000    -2.3210150000    -4.8167470000
   63      H      -6.0789800000    -2.0646490000    -6.3363150000
   64      C      -2.8196080000     2.1181010000    -2.7304210000
   65      H      -2.2522940000     1.9971700000    -1.8069240000
   66      H      -3.6589530000     2.7789340000    -2.5031770000
   67      C      -2.4172230000    -2.9496440000    -3.1429610000
   68      H      -1.3401570000    -2.7819940000    -3.1207260000
   69      H      -2.6148360000    -3.6597970000    -3.9487820000
   70      C      -1.9346720000     2.7628870000    -3.7974290000
   71      H      -1.0637090000     2.1468210000    -4.0182530000
   72      H      -1.5746150000     3.7314930000    -3.4525390000
   73      H      -2.4855510000     2.9183850000    -4.7259520000
   74      C      -2.8691300000    -3.5520800000    -1.8105010000
   75      H      -2.6506870000    -2.8846340000    -0.9784160000
   76      H      -2.3438500000    -4.4890840000    -1.6297020000
   77      H      -3.9399130000    -3.7589320000    -1.8120950000
   78      C       2.7350670000    -0.4919110000     0.0518680000
   79      C       3.5122520000     0.6574730000     0.2257340000
   80      C       4.7304560000     0.6055420000     0.9045010000
   81      H       5.2973910000     1.5213260000     1.0213980000
   82      C       5.1941690000    -0.5987300000     1.4150800000
   83      O       6.3591300000    -0.7489710000     2.0863170000
   84      C       4.4321710000    -1.7501620000     1.2413570000
   85      H       4.8007480000    -2.6896090000     1.6392540000
   86      C       3.2189200000    -1.7049540000     0.5728270000
   87      C       7.1509760000     0.3897230000     2.3065760000
   88      H       8.0233530000     0.0599110000     2.8672510000
   89      H       7.4914630000     0.8464430000     1.3716810000
   90      H       6.6280520000     1.1516900000     2.8934790000
   91      C       3.0264910000     1.9974580000    -0.2666640000
   92      H       2.4758410000     1.8785460000    -1.2026040000
   93      H       3.8837110000     2.6354080000    -0.4988600000
   94      C       2.4566260000    -2.9918910000     0.3762230000
   95      H       1.3817310000    -2.8058510000     0.4341910000
   96      H       2.6900180000    -3.6804600000     1.1926230000
   97      C       2.7775260000    -3.6674230000    -0.9559910000
   98      H       2.5015070000    -3.0329780000    -1.7982410000
   99      H       3.8430300000    -3.8855830000    -1.0396470000
  100      H       2.2337570000    -4.6081990000    -1.0571920000
  101      C       2.1336910000     2.7039570000     0.7515400000
  102      H       1.2361770000     2.1209220000     0.9586240000
  103      H       2.6570980000     2.8554380000     1.6966580000
  104      H       1.8165690000     3.6805720000     0.3824030000
 ----------------------------------------------------------------
 Nuclear Repulsion Energy =  7607.1723116755 hartrees
 There are      198 alpha and      198 beta electrons
 Requested basis set is def2-mSVP
 There are 498 shells and 962 basis functions

 Total QAlloc Memory Limit   8000 MB
 Mega-Array Size      1001 MB
 MEM_STATIC part      1024 MB
 Discretize the solute cavity surface with Lebedev spheres
	Using 302 Lebedev grid points for each H atom
	Using 302 Lebedev grid points for other atoms
	Atomic van der Waals radii will be scaled by 1.20
 Remove points where switching function is < 1.0e-08
 Keep 10993 surface tesserae and discard 20415 interior tesserae
 Molecular Surface Area = 794.279 Angst**2
 A cutoff of  1.0D-11 yielded  44895 shell pairs
 There are    174459 function pairs (    191999 Cartesian)
 
 -------------------------------------------------------
 OpenMP Integral Computing Module                       
 Release: version 1.0, May 2013, Q-Chem Inc. Pittsburgh 
 -------------------------------------------------------
 Integral Job Info:
 Integral job number is                      11
 Integral operator is                         1
 short-range coefficients                     0
 long-range coefficients              100000000
 Omega coefficients                           0
 if combine SR and LR in K                    0
 Integral screening is                        0
 Integral computing path is                   2
 max size of driver memory is            800000
 size of driver memory is                593474
 size of scratch memory is              1809772
 max col of scratch BK array               1296
 max len of scratch array in speh3          155
 max len of scratch index in speh4           18
 max int batch size is                      520
 min int batch size is                       52
 fixed nKL is                                52
 max L of basis functions is                  2
 order of int derivative is                   0
 number of shells is                        498
 number of basis is                        1020
 number of cartesian basis is              1020
 number of contracted shell pairs         44895
 number of primitive shell pairs          93120
 maxK2 (contraction) of shell pair           25
 max number of K2 of shell pair               1
 max number of CS2 of shell pair          11085
 max number of PS2 of shell pair          16530
 mem total for path MDJ                  954844
 -------------------------------------------------------
 Smallest overlap matrix eigenvalue = 1.96E-04

 Scale SEOQF with 1.000000e-02/1.000000e-01/1.000000e-02

 Standard Electronic Orientation quadrupole field applied
 Nucleus-field energy     =    -0.0000000003 hartrees
 Guess MOs from SCF MO coefficient file
 Reading MOs from coefficient file
 User-specified occupied guess orbitals will be used
   Alpha:
   1   2   3   4   5   6   7   8   9  10  11  12  13  14  15
  16  17  18  19  20  21  22  23  24  25  26  27  28  29  30
  31  32  33  34  35  36  37  38  39  40  41  42  43  44  45
  46  47  48  49  50  51  52  53  54  55  56  57  58  59  60
  61  62  63  64  65  66  67  68  69  70  71  72  73  74  75
  76  77  78  79  80  81  82  83  84  85  86  87  88  89  90
  91  92  93  94  95  96  97  98  99 100 101 102 103 104 105
 106 107 108 109 110 111 112 113 114 115 116 117 118 119 120
 121 122 123 124 125 126 127 128 129 130 131 132 133 134 135
 136 137 138 139 140 141 142 143 144 145 146 147 148 149 150
 151 152 153 154 155 156 157 158 159 160 161 162 163 164 165
 166 167 168 169 170 171 172 173 174 175 176 177 178 179 180
 181 182 183 184 185 186 187 188 189 190 191 192 193 194 195
 196 197 199
 Reading MOs from coefficient file
   Beta:
   1   2   3   4   5   6   7   8   9  10  11  12  13  14  15
  16  17  18  19  20  21  22  23  24  25  26  27  28  29  30
  31  32  33  34  35  36  37  38  39  40  41  42  43  44  45
  46  47  48  49  50  51  52  53  54  55  56  57  58  59  60
  61  62  63  64  65  66  67  68  69  70  71  72  73  74  75
  76  77  78  79  80  81  82  83  84  85  86  87  88  89  90
  91  92  93  94  95  96  97  98  99 100 101 102 103 104 105
 106 107 108 109 110 111 112 113 114 115 116 117 118 119 120
 121 122 123 124 125 126 127 128 129 130 131 132 133 134 135
 136 137 138 139 140 141 142 143 144 145 146 147 148 149 150
 151 152 153 154 155 156 157 158 159 160 161 162 163 164 165
 166 167 168 169 170 171 172 173 174 175 176 177 178 179 180
 181 182 183 184 185 186 187 188 189 190 191 192 193 194 195
 196 197 198
 An unrestricted hybrid HF-DFT SCF calculation will be
 performed using Pulay DIIS extrapolation
 Polarizable Continuum solvation model will be applied
 Exchange:     0.4200 Hartree-Fock + 0.5800 PBEh-3c
 Correlation:  1.0000 PBEh-3c
 Using SG-1 standard quadrature grid
 Dispersion:   Grimme D3
 SCF converges when DIIS error is below 1.0E-08
 using 8 threads for integral computing
 -------------------------------------------------------
 OpenMP Integral computing Module                
 Release: version 2.0, May 2017, Q-Chem Inc. Pleasanton 
 -------------------------------------------------------
 -------------------------------------------------------
 OpenMP BLAS3 based DFT computing Module                
 Release: version 1.0, May 2013, Q-Chem Inc. Pittsburgh 
 -------------------------------------------------------
 MOM overlap:    197.4121721127 / 198
 MOM overlap:    197.8996575845 / 198
 ---------------------------------------
  Cycle       Energy         DIIS Error
 ---------------------------------------
    1   -2280.5513699808      5.50E-04
 Using non-symmetric K matrix
 MOM overlap:    197.5902126971 / 198
 MOM overlap:    197.9639480847 / 198
    2   -2280.4721179438      9.30E-04
 MOM overlap:    197.9941776248 / 198
 MOM overlap:    197.9976892687 / 198
    3   -2280.6444290947      1.85E-04
 MOM overlap:    197.9973504269 / 198
 MOM overlap:    197.9995657506 / 198
    4   -2280.6514619966      7.23E-05
 MOM overlap:    197.9968347693 / 198
 MOM overlap:    197.9991289219 / 198
    5   -2280.6533436936      5.26E-05
 MOM overlap:    197.9986244593 / 198
 MOM overlap:    197.9998847028 / 198
    6   -2280.6547127613      2.24E-05
 MOM overlap:    197.9929997745 / 198
 MOM overlap:    197.9999615945 / 198
    7   -2280.6549670058      7.51E-06
 MOM overlap:    197.9808355712 / 198
 MOM overlap:    197.9999929016 / 198
    8   -2280.6552226406      7.79E-06
 MOM overlap:    197.9931397659 / 198
 MOM overlap:    197.9999938940 / 198
    9   -2280.6553473540      1.06E-05
 MOM overlap:    197.9999737132 / 198
 MOM overlap:    197.9999849619 / 198
   10   -2280.6550339038      3.40E-06
 MOM overlap:    197.9999751009 / 198
 MOM overlap:    197.9999890436 / 198
   11   -2280.6550499269      1.81E-06
 MOM overlap:    197.9999888453 / 198
 MOM overlap:    197.9999931506 / 198
   12   -2280.6550594849      8.46E-07
 MOM overlap:    197.9999864876 / 198
 MOM overlap:    197.9999923174 / 198
   13   -2280.6550655517      4.00E-07
 MOM overlap:    197.9999939832 / 198
 MOM overlap:    197.9999949652 / 198
   14   -2280.6550701214      3.29E-07
 MOM overlap:    197.9999980961 / 198
 MOM overlap:    197.9999985249 / 198
   15   -2280.6550724212      2.37E-07
 MOM overlap:    197.9999986940 / 198
 MOM overlap:    197.9999989462 / 198
   16   -2280.6550732432      1.21E-07
 MOM overlap:    197.9999998623 / 198
 MOM overlap:    197.9999998855 / 198
   17   -2280.6550737150      5.27E-08
 MOM overlap:    197.9999995923 / 198
 MOM overlap:    197.9999996404 / 198
   18   -2280.6550738333      3.60E-08
 MOM overlap:    197.9999998714 / 198
 MOM overlap:    197.9999998731 / 198
   19   -2280.6550739833      2.76E-08
 MOM overlap:    197.9999998714 / 198
 MOM overlap:    197.9999998731 / 198
   20   -2280.6550740399      1.56E-08
 MOM overlap:    197.9999999719 / 198
 MOM overlap:    197.9999999721 / 198
   21   -2280.6550740768      1.23E-08
 MOM overlap:    197.9999999982 / 198
 MOM overlap:    197.9999999981 / 198
   22   -2280.6550740878      8.70E-09 Convergence criterion met
 ---------------------------------------

************** Final PCM Free Energy Summary **************
 G_electrostatic  =      -0.05036549 hartree =     -31.60482028 kcal/mol
 G_cavitation     =       0.00000000 hartree =       0.00000000 kcal/mol
 G_dispersion     =       0.00000000 hartree =       0.00000000 kcal/mol
 G_repulsion      =       0.00000000 hartree =       0.00000000 kcal/mol
 --------------------------------------------------
 Non-electrostatic Free Energy =       0.00000000 hartree =       0.00000000 kcal/mol
 Total                         =      -0.05036549 hartree =     -31.60482028 kcal/mol
 --------------------------------------------------
 SCF Energy (H0 + V/2)                       =   -2280.65507409 
 Solute Internal Energy (H0)                 =   -2280.60470860 
 Total Free Energy (H0 + V/2 + non-elec)     =   -2280.65507409 hartree
                                             = -1431132.65907428 kcal/mol
***********************************************************

 <S^2> = 1.0488
 SCF time:  CPU 14558.30 s  wall 2630.89 s
 SCF   energy in the final basis set = -2280.65507409
 Total energy in the final basis set = -2280.65507409
 
 --------------------------------------------------------------
 
                    Orbital Energies (a.u.)
 --------------------------------------------------------------
 
 Alpha MOs
 -- Occupied --
-19.598 -19.521 -10.578 -10.513 -10.503 -10.496 -10.495 -10.487
-10.484 -10.483 -10.479 -10.458 -10.458 -10.454 -10.454 -10.454
-10.454 -10.453 -10.453 -10.453 -10.453 -10.452 -10.452 -10.451
-10.451 -10.451 -10.451 -10.450 -10.450 -10.450 -10.447 -10.447
-10.447 -10.446 -10.446 -10.442 -10.442 -10.442 -10.441 -10.441
-10.441 -10.439 -10.439 -10.430 -10.428 -10.427 -10.425 -10.425
-10.424 -10.419 -10.419 -10.414 -10.414 -10.414 -10.414 -10.406
 -6.913  -6.907  -1.249  -1.177  -1.006  -1.006  -0.996  -0.950
 -0.947  -0.946  -0.925  -0.925  -0.924  -0.900  -0.893  -0.887
 -0.880  -0.858  -0.849  -0.844  -0.843  -0.839  -0.838  -0.832
 -0.814  -0.812  -0.806  -0.801  -0.798  -0.795  -0.791  -0.765
 -0.739  -0.726  -0.723  -0.718  -0.717  -0.710  -0.704  -0.696
 -0.689  -0.679  -0.669  -0.667  -0.660  -0.654  -0.643  -0.635
 -0.634  -0.623  -0.623  -0.604  -0.594  -0.584  -0.583  -0.579
 -0.576  -0.573  -0.568  -0.565  -0.564  -0.556  -0.555  -0.532
 -0.529  -0.528  -0.528  -0.522  -0.517  -0.516  -0.513  -0.508
 -0.499  -0.497  -0.496  -0.493  -0.492  -0.488  -0.485  -0.482
 -0.482  -0.479  -0.478  -0.478  -0.476  -0.475  -0.473  -0.470
 -0.468  -0.460  -0.459  -0.455  -0.453  -0.449  -0.445  -0.445
 -0.442  -0.434  -0.431  -0.429  -0.428  -0.424  -0.424  -0.422
 -0.420  -0.415  -0.408  -0.407  -0.402  -0.400  -0.399  -0.394
 -0.390  -0.390  -0.389  -0.388  -0.386  -0.384  -0.381  -0.380
 -0.374  -0.371  -0.365  -0.363  -0.358  -0.354  -0.351  -0.340
 -0.327  -0.326  -0.319  -0.314  -0.308  -0.292  -0.290  -0.278
 -0.270  -0.259  -0.249  -0.247  -0.243  -0.158
 -- Virtual --
 -0.167  -0.060  -0.036  -0.029  -0.001   0.003   0.011   0.014
  0.023   0.032   0.044   0.046   0.074   0.090   0.093   0.097
  0.114   0.124   0.128   0.142   0.152   0.155   0.156   0.157
  0.161   0.165   0.167   0.169   0.170   0.172   0.174   0.175
  0.182   0.182   0.184   0.191   0.191   0.193   0.197   0.198
  0.200   0.202   0.204   0.206   0.208   0.210   0.212   0.213
  0.213   0.215   0.216   0.219   0.220   0.222   0.224   0.227
  0.228   0.229   0.231   0.233   0.233   0.235   0.237   0.240
  0.242   0.243   0.248   0.252   0.252   0.257   0.259   0.259
  0.260   0.265   0.270   0.273   0.276   0.278   0.278   0.287
  0.288   0.289   0.292   0.293   0.296   0.298   0.305   0.307
  0.311   0.314   0.317   0.318   0.320   0.323   0.327   0.332
  0.334   0.339   0.344   0.352   0.357   0.358   0.363   0.367
  0.375   0.383   0.384   0.389   0.394   0.409   0.410   0.416
  0.420   0.423   0.427   0.431   0.433   0.445   0.452   0.457
  0.460   0.464   0.464   0.470   0.474   0.476   0.478   0.483
  0.488   0.493   0.495   0.497   0.499   0.501   0.503   0.505
  0.508   0.517   0.521   0.526   0.529   0.530   0.532   0.533
  0.533   0.536   0.537   0.538   0.542   0.547   0.548   0.549
  0.550   0.550   0.555   0.556   0.559   0.559   0.565   0.568
  0.570   0.570   0.572   0.575   0.578   0.583   0.586   0.591
  0.591   0.593   0.595   0.595   0.596   0.598   0.599   0.603
  0.606   0.608   0.609   0.610   0.617   0.619   0.623   0.623
  0.625   0.626   0.627   0.629   0.633   0.635   0.638   0.638
  0.641   0.644   0.647   0.648   0.657   0.659   0.660   0.662
  0.664   0.664   0.666   0.669   0.672   0.676   0.677   0.679
  0.683   0.686   0.691   0.698   0.701   0.707   0.709   0.710
  0.713   0.719   0.723   0.723   0.726   0.729   0.731   0.735
  0.739   0.745   0.752   0.753   0.757   0.762   0.763   0.768
  0.774   0.776   0.780   0.782   0.783   0.784   0.789   0.791
  0.795   0.798   0.806   0.808   0.811   0.822   0.827   0.831
  0.839   0.843   0.843   0.851   0.854   0.855   0.861   0.863
  0.880   0.888   0.894   0.904   0.907   0.909   0.913   0.916
  0.921   0.926   0.927   0.928   0.939   0.947   0.952   0.953
  0.956   0.958   0.966   0.967   0.969   0.973   0.976   0.979
  0.981   0.986   0.992   0.993   0.994   0.995   0.997   0.997
  1.003   1.007   1.008   1.010   1.011   1.013   1.015   1.021
  1.027   1.029   1.030   1.032   1.036   1.039   1.040   1.043
  1.046   1.048   1.050   1.052   1.053   1.054   1.061   1.062
  1.064   1.070   1.073   1.075   1.077   1.080   1.083   1.087
  1.089   1.093   1.096   1.097   1.099   1.107   1.111   1.117
  1.123   1.132   1.134   1.137   1.139   1.143   1.144   1.147
  1.156   1.157   1.163   1.166   1.169   1.173   1.181   1.182
  1.184   1.190   1.192   1.194   1.210   1.221   1.224   1.227
  1.229   1.238   1.246   1.250   1.257   1.258   1.260   1.264
  1.270   1.276   1.277   1.280   1.284   1.288   1.295   1.301
  1.305   1.306   1.307   1.312   1.319   1.320   1.325   1.334
  1.335   1.341   1.350   1.353   1.355   1.362   1.373   1.375
  1.376   1.382   1.383   1.386   1.389   1.389   1.395   1.398
  1.408   1.414   1.415   1.419   1.420   1.427   1.430   1.435
  1.443   1.444   1.448   1.448   1.454   1.459   1.464   1.472
  1.478   1.484   1.489   1.508   1.519   1.520   1.523   1.525
  1.525   1.527   1.530   1.531   1.536   1.540   1.540   1.545
  1.551   1.552   1.557   1.558   1.561   1.565   1.569   1.574
  1.581   1.582   1.585   1.592   1.595   1.599   1.602   1.607
  1.619   1.622   1.632   1.636   1.644   1.651   1.657   1.665
  1.668   1.675   1.690   1.701   1.707   1.720   1.726   1.745
  1.752   1.758   1.760   1.760   1.764   1.777   1.780   1.782
  1.800   1.801   1.805   1.810   1.817   1.817   1.818   1.820
  1.826   1.827   1.828   1.831   1.835   1.845   1.855   1.863
  1.875   1.897   1.903   1.906   1.915   1.916   1.923   1.926
  1.927   1.933   1.946   1.949   1.950   1.958   1.959   1.968
  1.975   1.980   1.989   1.991   1.991   1.992   1.996   2.003
  2.010   2.015   2.021   2.032   2.033   2.039   2.041   2.044
  2.050   2.058   2.061   2.064   2.071   2.079   2.079   2.081
  2.084   2.087   2.092   2.099   2.108   2.113   2.118   2.119
  2.121   2.124   2.131   2.138   2.139   2.152   2.158   2.162
  2.166   2.168   2.170   2.175   2.177   2.181   2.191   2.204
  2.209   2.210   2.210   2.215   2.219   2.232   2.238   2.239
  2.241   2.251   2.257   2.268   2.269   2.272   2.278   2.279
  2.283   2.284   2.287   2.294   2.298   2.299   2.306   2.316
  2.321   2.325   2.329   2.330   2.330   2.336   2.340   2.343
  2.346   2.351   2.353   2.356   2.359   2.365   2.367   2.368
  2.369   2.373   2.384   2.394   2.397   2.400   2.408   2.410
  2.414   2.418   2.418   2.423   2.430   2.435   2.436   2.441
  2.443   2.446   2.456   2.459   2.469   2.479   2.482   2.487
  2.496   2.503   2.505   2.509   2.511   2.514   2.528   2.532
  2.543   2.554   2.564   2.576   2.583   2.589   2.603   2.619
  2.622   2.634   2.640   2.651   2.652   2.653   2.657   2.665
  2.674   2.685   2.691   2.694   2.697   2.714   2.717   2.719
  2.725   2.736   2.738   2.742   2.748   2.752   2.761   2.768
  2.776   2.783   2.789   2.794   2.796   2.796   2.798   2.798
  2.802   2.817   2.818   2.820   2.825   2.832   2.847   2.854
  2.855   2.870   2.874   2.882   2.886   2.889   2.905   2.915
  2.916   2.931   2.947   2.957   2.964   2.976   2.993   3.013
  3.020   3.026   3.031   3.054   3.069   3.077   3.088   3.090
  3.091   3.117   3.150   3.251   3.266   3.269   3.275   3.320
  3.414   3.448   3.455   3.486   3.498   3.500   3.505   3.559
  3.675   3.687   9.629   9.788  13.152  13.187  13.376  13.465
 13.508  13.520  13.533  13.561  13.636  13.688  13.733  13.734
 13.763  13.776  13.781  13.799  13.808  13.809  13.841  13.870
 13.884  13.893  13.937  13.979  14.013  14.028  14.031  14.045
 14.048  14.049  14.053  14.056  14.160  14.170  14.172  14.174
 14.201  14.212  14.233  14.253  14.294  14.296  14.325  14.326
 14.352  14.354  14.484  14.520  14.524  14.571  14.581  14.586
 14.588  14.590  25.723  25.791
 
 Beta MOs
 -- Occupied --
-19.603 -19.521 -10.582 -10.513 -10.503 -10.496 -10.495 -10.493
-10.486 -10.483 -10.479 -10.458 -10.458 -10.455 -10.455 -10.454
-10.454 -10.453 -10.453 -10.452 -10.452 -10.452 -10.452 -10.451
-10.451 -10.451 -10.451 -10.450 -10.450 -10.449 -10.447 -10.446
-10.446 -10.445 -10.445 -10.442 -10.442 -10.441 -10.441 -10.441
-10.441 -10.440 -10.440 -10.430 -10.428 -10.427 -10.425 -10.425
-10.424 -10.420 -10.420 -10.414 -10.414 -10.413 -10.413 -10.406
 -6.909  -6.905  -1.261  -1.177  -1.006  -1.006  -1.005  -0.950
 -0.946  -0.946  -0.924  -0.924  -0.924  -0.907  -0.893  -0.887
 -0.880  -0.858  -0.851  -0.844  -0.842  -0.838  -0.837  -0.836
 -0.817  -0.813  -0.806  -0.801  -0.801  -0.795  -0.790  -0.765
 -0.742  -0.728  -0.723  -0.717  -0.716  -0.709  -0.703  -0.696
 -0.691  -0.679  -0.669  -0.665  -0.661  -0.652  -0.643  -0.635
 -0.634  -0.626  -0.623  -0.607  -0.594  -0.591  -0.583  -0.582
 -0.577  -0.576  -0.573  -0.564  -0.564  -0.558  -0.554  -0.533
 -0.530  -0.529  -0.528  -0.523  -0.517  -0.515  -0.515  -0.507
 -0.500  -0.497  -0.496  -0.494  -0.493  -0.491  -0.485  -0.482
 -0.482  -0.479  -0.478  -0.477  -0.476  -0.476  -0.473  -0.470
 -0.468  -0.467  -0.460  -0.455  -0.453  -0.453  -0.447  -0.445
 -0.443  -0.437  -0.431  -0.429  -0.428  -0.424  -0.423  -0.419
 -0.418  -0.414  -0.408  -0.406  -0.402  -0.402  -0.399  -0.399
 -0.393  -0.390  -0.388  -0.388  -0.387  -0.386  -0.384  -0.381
 -0.379  -0.374  -0.364  -0.359  -0.359  -0.352  -0.350  -0.338
 -0.331  -0.326  -0.324  -0.308  -0.304  -0.302  -0.288  -0.288
 -0.270  -0.268  -0.252  -0.246  -0.243  -0.240
 -- Virtual --
 -0.073  -0.049  -0.031  -0.022  -0.016  -0.014   0.004   0.013
  0.024   0.032   0.045   0.058   0.082   0.091   0.102   0.105
  0.113   0.125   0.132   0.139   0.142   0.153   0.156   0.157
  0.160   0.165   0.166   0.170   0.172   0.172   0.175   0.177
  0.182   0.184   0.185   0.191   0.192   0.193   0.198   0.198
  0.200   0.202   0.204   0.206   0.209   0.210   0.211   0.212
  0.214   0.215   0.216   0.219   0.221   0.223   0.224   0.227
  0.228   0.229   0.231   0.234   0.234   0.236   0.237   0.241
[...]
  3.090   3.116   3.147   3.251   3.265   3.267   3.275   3.318
  3.413   3.447   3.453   3.484   3.496   3.498   3.503   3.557
  3.673   3.685   9.628   9.786  13.152  13.186  13.378  13.467
 13.509  13.520  13.532  13.560  13.635  13.687  13.729  13.736
 13.760  13.775  13.778  13.798  13.807  13.808  13.842  13.870
 13.884  13.892  13.935  13.980  14.013  14.028  14.029  14.044
 14.047  14.048  14.051  14.055  14.160  14.168  14.171  14.172
 14.199  14.211  14.231  14.251  14.291  14.294  14.323  14.324
 14.349  14.351  14.485  14.518  14.522  14.568  14.578  14.584
 14.586  14.587  25.723  25.791
 
 Beta MOs
 -- Occupied --
-19.604 -19.521 -10.582 -10.513 -10.503 -10.496 -10.495 -10.493
-10.486 -10.484 -10.479 -10.459 -10.458 -10.455 -10.455 -10.454
-10.454 -10.453 -10.453 -10.452 -10.452 -10.452 -10.452 -10.451
-10.451 -10.451 -10.451 -10.450 -10.450 -10.450 -10.447 -10.446
-10.446 -10.445 -10.445 -10.442 -10.442 -10.441 -10.441 -10.441
-10.441 -10.440 -10.440 -10.431 -10.428 -10.427 -10.425 -10.425
-10.424 -10.420 -10.420 -10.414 -10.414 -10.414 -10.413 -10.406
 -6.910  -6.904  -1.262  -1.176  -1.006  -1.005  -1.005  -0.949
 -0.946  -0.945  -0.925  -0.924  -0.924  -0.906  -0.893  -0.887
 -0.880  -0.857  -0.851  -0.843  -0.842  -0.837  -0.837  -0.836
 -0.818  -0.813  -0.805  -0.801  -0.801  -0.794  -0.789  -0.765
 -0.742  -0.728  -0.722  -0.717  -0.716  -0.709  -0.703  -0.696
 -0.691  -0.678  -0.669  -0.665  -0.661  -0.652  -0.642  -0.634
 -0.634  -0.626  -0.622  -0.607  -0.594  -0.592  -0.583  -0.582
 -0.577  -0.575  -0.573  -0.564  -0.564  -0.558  -0.554  -0.532
 -0.530  -0.528  -0.528  -0.523  -0.517  -0.515  -0.515  -0.507
 -0.499  -0.497  -0.496  -0.494  -0.493  -0.491  -0.485  -0.482
 -0.482  -0.479  -0.478  -0.476  -0.476  -0.476  -0.473  -0.470
 -0.469  -0.467  -0.460  -0.455  -0.453  -0.453  -0.447  -0.445
 -0.443  -0.438  -0.431  -0.429  -0.427  -0.424  -0.423  -0.419
 -0.417  -0.414  -0.408  -0.406  -0.403  -0.402  -0.399  -0.398
 -0.393  -0.390  -0.388  -0.388  -0.387  -0.386  -0.384  -0.381
 -0.378  -0.374  -0.363  -0.360  -0.359  -0.352  -0.350  -0.338
 -0.331  -0.326  -0.325  -0.308  -0.303  -0.302  -0.288  -0.288
 -0.270  -0.267  -0.252  -0.246  -0.242  -0.240
 -- Virtual --
 -0.073  -0.049  -0.030  -0.022  -0.016  -0.014   0.004   0.013
  0.024   0.032   0.045   0.057   0.082   0.091   0.102   0.104
  0.112   0.125   0.132   0.139   0.142   0.152   0.155   0.157
  0.160   0.164   0.165   0.169   0.171   0.172   0.175   0.177
  0.181   0.183   0.185   0.191   0.192   0.194   0.197   0.198
  0.200   0.201   0.204   0.206   0.209   0.210   0.210   0.212
  0.214   0.214   0.216   0.219   0.220   0.223   0.224   0.227
  0.228   0.229   0.231   0.233   0.234   0.236   0.237   0.241
  0.241   0.243   0.249   0.251   0.254   0.257   0.259   0.259
  0.260   0.266   0.270   0.273   0.277   0.278   0.278   0.286
  0.289   0.289   0.292   0.293   0.296   0.298   0.306   0.309
  0.312   0.312   0.318   0.319   0.321   0.322   0.327   0.332
  0.335   0.340   0.344   0.346   0.356   0.360   0.360   0.367
  0.374   0.382   0.385   0.389   0.395   0.407   0.413   0.416
  0.419   0.423   0.427   0.431   0.433   0.446   0.451   0.456
  0.459   0.461   0.464   0.469   0.473   0.477   0.479   0.483
  0.488   0.492   0.495   0.497   0.501   0.502   0.504   0.506
  0.508   0.517   0.522   0.526   0.529   0.531   0.533   0.534
  0.534   0.536   0.537   0.539   0.541   0.545   0.546   0.549
  0.551   0.552   0.553   0.558   0.559   0.560   0.566   0.568
  0.569   0.571   0.572   0.575   0.578   0.583   0.585   0.592
  0.593   0.594   0.595   0.595   0.597   0.599   0.599   0.603
  0.606   0.608   0.609   0.610   0.615   0.619   0.622   0.623
  0.625   0.626   0.627   0.628   0.633   0.633   0.638   0.638
  0.641   0.643   0.646   0.648   0.657   0.658   0.660   0.663
  0.664   0.665   0.666   0.668   0.671   0.676   0.678   0.679
  0.683   0.685   0.691   0.695   0.700   0.707   0.708   0.711
  0.712   0.719   0.724   0.724   0.727   0.729   0.731   0.735
  0.740   0.745   0.751   0.753   0.756   0.762   0.763   0.770
  0.773   0.776   0.780   0.782   0.782   0.783   0.787   0.789
  0.794   0.797   0.805   0.807   0.811   0.821   0.826   0.828
  0.839   0.843   0.844   0.851   0.854   0.855   0.859   0.864
  0.878   0.892   0.893   0.902   0.907   0.908   0.914   0.917
  0.921   0.926   0.926   0.928   0.939   0.946   0.950   0.953
  0.956   0.958   0.966   0.967   0.968   0.972   0.975   0.980
  0.984   0.986   0.992   0.992   0.994   0.995   0.997   0.998
  1.003   1.007   1.007   1.011   1.012   1.013   1.015   1.021
  1.025   1.027   1.030   1.032   1.036   1.039   1.041   1.043
  1.046   1.047   1.050   1.052   1.055   1.055   1.061   1.062
  1.064   1.069   1.071   1.075   1.076   1.077   1.082   1.087
  1.088   1.092   1.095   1.096   1.097   1.103   1.109   1.112
  1.121   1.131   1.133   1.135   1.137   1.142   1.144   1.147
  1.156   1.156   1.163   1.166   1.169   1.173   1.179   1.181
  1.184   1.189   1.193   1.194   1.209   1.221   1.222   1.226
  1.230   1.236   1.248   1.249   1.250   1.256   1.261   1.265
  1.268   1.275   1.276   1.280   1.284   1.288   1.295   1.300
  1.305   1.307   1.308   1.313   1.317   1.321   1.323   1.333
  1.336   1.342   1.348   1.352   1.355   1.363   1.373   1.375
  1.379   1.380   1.382   1.386   1.387   1.390   1.394   1.397
  1.406   1.414   1.415   1.419   1.420   1.428   1.429   1.435
  1.442   1.444   1.449   1.449   1.454   1.459   1.461   1.465
  1.481   1.486   1.489   1.509   1.520   1.520   1.521   1.525
  1.526   1.527   1.528   1.531   1.537   1.540   1.541   1.544
  1.548   1.552   1.552   1.558   1.564   1.566   1.569   1.573
  1.578   1.580   1.588   1.591   1.593   1.599   1.602   1.607
  1.618   1.623   1.631   1.636   1.643   1.651   1.658   1.663
  1.670   1.677   1.688   1.699   1.709   1.717   1.723   1.746
  1.752   1.757   1.757   1.760   1.764   1.771   1.779   1.782
  1.799   1.801   1.805   1.810   1.816   1.818   1.819   1.820
  1.825   1.827   1.828   1.830   1.833   1.844   1.854   1.863
  1.873   1.896   1.901   1.905   1.914   1.915   1.922   1.927
  1.929   1.934   1.946   1.949   1.954   1.958   1.960   1.962
  1.971   1.980   1.989   1.990   1.991   1.992   1.996   2.004
  2.009   2.014   2.018   2.030   2.032   2.040   2.042   2.046
  2.050   2.059   2.062   2.065   2.072   2.078   2.079   2.081
  2.083   2.088   2.090   2.099   2.106   2.112   2.115   2.118
  2.119   2.124   2.129   2.137   2.138   2.154   2.158   2.161
  2.164   2.167   2.171   2.174   2.176   2.180   2.190   2.201
  2.204   2.208   2.208   2.213   2.218   2.231   2.237   2.239
  2.240   2.250   2.257   2.268   2.270   2.271   2.278   2.278
  2.283   2.286   2.286   2.295   2.297   2.299   2.305   2.314
  2.316   2.321   2.329   2.330   2.330   2.333   2.340   2.344
  2.346   2.350   2.351   2.356   2.358   2.365   2.367   2.368
  2.369   2.373   2.386   2.394   2.397   2.400   2.407   2.410
  2.414   2.416   2.418   2.424   2.430   2.435   2.438   2.440
  2.442   2.444   2.455   2.461   2.470   2.480   2.482   2.486
  2.496   2.504   2.505   2.509   2.511   2.513   2.528   2.530
  2.545   2.552   2.563   2.575   2.584   2.588   2.599   2.617
  2.619   2.634   2.640   2.651   2.652   2.653   2.656   2.664
  2.673   2.683   2.690   2.693   2.697   2.706   2.713   2.718
  2.725   2.736   2.738   2.742   2.746   2.750   2.761   2.768
  2.772   2.782   2.789   2.794   2.795   2.795   2.797   2.797
  2.801   2.816   2.817   2.819   2.825   2.830   2.848   2.853
  2.855   2.870   2.873   2.882   2.887   2.889   2.904   2.914
  2.916   2.931   2.946   2.956   2.964   2.974   2.992   3.013
  3.017   3.025   3.028   3.052   3.066   3.079   3.087   3.089
  3.090   3.116   3.147   3.251   3.265   3.268   3.273   3.319
  3.413   3.446   3.453   3.484   3.496   3.498   3.503   3.557
  3.673   3.685   9.633   9.790  13.152  13.187  13.376  13.466
 13.509  13.520  13.532  13.561  13.635  13.687  13.729  13.736
 13.760  13.775  13.778  13.798  13.807  13.808  13.841  13.870
 13.884  13.889  13.935  13.979  14.014  14.028  14.030  14.045
 14.048  14.049  14.052  14.056  14.155  14.169  14.171  14.172
 14.198  14.211  14.231  14.251  14.291  14.294  14.323  14.324
 14.350  14.352  14.482  14.519  14.522  14.568  14.579  14.584
 14.586  14.587  25.716  25.791
 --------------------------------------------------------------
 
          Ground-State Mulliken Net Atomic Charges

     Atom                 Charge (a.u.)    Spin (a.u.)
  --------------------------------------------------------
      1 C                    -0.142898       0.072578
      2 C                    -0.414658      -0.064371
      3 H                     0.233508       0.002467
      4 C                     0.081410       0.098750
      5 C                     0.051369       0.027471
      6 C                    -0.409490      -0.004054
      7 H                     0.218732       0.000359
      8 C                    -0.131520      -0.027584
      9 C                     0.175870      -0.057925
     10 C                    -0.411678       0.084391
     11 H                     0.244362      -0.004912
     12 C                    -0.078638       0.022527
     13 C                     0.219990      -0.036150
     14 C                     0.176176      -0.041525
     15 C                    -0.403351       0.063714
     16 H                     0.237721      -0.003716
     17 C                    -0.230408      -0.052269
     18 H                     0.249459       0.002504
     19 C                    -0.363309       0.076063
     20 H                     0.245623      -0.004446
     21 C                    -0.233873      -0.042742
     22 H                     0.248536       0.002094
     23 C                    -0.358487       0.059407
     24 H                     0.245665      -0.003428
     25 B                     0.509511       0.394716
     26 C                    -0.130677      -0.026186
     27 C                    -0.407849      -0.004250
     28 H                     0.218288       0.000818
     29 C                     0.051637       0.026913
     30 C                     0.082210       0.098734
     31 C                    -0.413770      -0.064230
     32 H                     0.234065       0.002454
     33 C                    -0.144309       0.072763
     34 C                     0.176661      -0.041161
     35 C                    -0.404655       0.063273
     36 H                     0.236882      -0.003699
     37 C                    -0.078556       0.022408
     38 C                     0.219234      -0.035996
     39 C                     0.176833      -0.057594
     40 C                    -0.413199       0.083968
     41 H                     0.244110      -0.004891
     42 C                    -0.233489      -0.042436
     43 H                     0.248467       0.002079
     44 C                    -0.357946       0.058817
     45 H                     0.245851      -0.003391
     46 C                    -0.229990      -0.051943
     47 H                     0.249364       0.002487
     48 C                    -0.363174       0.075582
     49 H                     0.245854      -0.004415
     50 B                     0.530697       0.267979
     51 C                    -0.129673      -0.563372
     52 C                     0.086922       0.126984
     53 C                    -0.355217      -0.158524
     54 H                     0.292053       0.010250
     55 C                     0.472066      -0.202883
     56 O                    -0.386660      -0.155949
     57 C                    -0.408894      -0.058608
     58 H                     0.301403       0.005302
     59 C                     0.095806       0.021282
     60 C                    -0.452621       0.014911
     61 H                     0.287874      -0.000004
     62 H                     0.264121      -0.009855
     63 H                     0.264527      -0.009979
     64 C                    -0.549704      -0.000828
     65 H                     0.280493      -0.002222
     66 H                     0.256997       0.001386
     67 C                    -0.553900       0.007661
     68 H                     0.287947      -0.004207
     69 H                     0.259505      -0.000379
     70 C                    -0.664072      -0.000307
     71 H                     0.252119      -0.000337
     72 H                     0.241473       0.000399
     73 H                     0.223840      -0.000024
     74 C                    -0.662421      -0.005324
     75 H                     0.252836      -0.000021
     76 H                     0.244335      -0.000497
     77 H                     0.224687       0.000174
     78 C                    -0.193153      -0.027363
     79 C                     0.056824       0.004918
     80 C                    -0.448360      -0.001667
     81 H                     0.247586       0.000362
     82 C                     0.380945       0.001781
     83 O                    -0.472878       0.000180
     84 C                    -0.405458      -0.001817
     85 H                     0.230635       0.000398
     86 C                     0.054466       0.004791
     87 C                    -0.426457      -0.000030
     88 H                     0.250316       0.000003
     89 H                     0.217593       0.000027
     90 H                     0.217621       0.000021
     91 C                    -0.542014       0.002628
     92 H                     0.253144      -0.001794
     93 H                     0.229994       0.000305
     94 C                    -0.542982       0.002550
     95 H                     0.252689      -0.001824
     96 H                     0.231999       0.000319
     97 C                    -0.661289       0.000159
     98 H                     0.242713      -0.000484
     99 H                     0.217550      -0.000078
    100 H                     0.220642      -0.000013
    101 C                    -0.660345       0.000151
    102 H                     0.242657      -0.000452
    103 H                     0.216197      -0.000083
    104 H                     0.221367      -0.000017
  --------------------------------------------------------
  Sum of atomic charges =    -0.000000
  Sum of spin   charges =     0.000000

 -----------------------------------------------------------------
                    Cartesian Multipole Moments
 -----------------------------------------------------------------
    Charge (ESU x 10^10)
                -0.0000
    Dipole Moment (Debye)
         X     -16.6355      Y      -0.8611      Z     -10.2437
       Tot      19.5554
    Quadrupole Moments (Debye-Ang)
        XX    -228.9234     XY      32.7899     YY    -329.5544
        XZ      86.5082     YZ      20.4403     ZZ    -269.7598
    Octopole Moments (Debye-Ang^2)
       XXX    -485.8120    XXY      91.8173    XYY     -91.5672
       YYY     429.2146    XXZ      55.1249    XYZ     -97.6316
       YYZ     437.3306    XZZ    -421.5464    YZZ      49.9196
       ZZZ    1113.9701
    Hexadecapole Moments (Debye-Ang^3)
      XXXX  -19732.9961   XXXY    1234.7385   XXYY   -4712.2167
      XYYY      15.7153   YYYY   -4025.1887   XXXZ    4498.1768
      XXYZ     615.4499   XYYZ    1399.3003   YYYZ    -890.1656
      XXZZ   -6872.5046   XYZZ     619.3007   YYZZ   -6862.2116
      XZZZ    3592.6357   YZZZ    -262.1930   ZZZZ  -30153.6773
 -----------------------------------------------------------------
Archival summary:
1\1\ctcp035\OPT\ProcedureUnspecified\BasisUnspecified\254246\mewes1\FriOct1919:44:582018FriOct1919:44:582018\0\\#,OPT,ProcedureUnspecified,BasisUnspecified,\\0,1\C\C,1,1.41067\H,2,1.08642,1,120.244\C,2,1.36898,1,120.618,3,-179.823,0\C,4,1.42659,2,120.735,1,0.224626,0\C,5,1.37564,4,119.411,2,-0.0581328,0\H,6,1.08491,5,119.896,4,179.425,0\C,6,1.41268,5,121.024,4,-0.168631,0\C,4,1.45868,2,130.766,1,179.758,0\C,9,1.37364,4,135.024,2,0.351599,0\H,10,1.08343,9,121.888,4,0.225018,0\C,9,1.40796,4,106.167,2,-179.463,0\C,12,1.39381,9,123.738,4,179.768,0\C,12,1.41162,9,111.474,4,-0.0514067,0\C,14,1.37318,12,117.802,9,179.824,0\H,15,1.08281,14,121.833,12,-179.903,0\C,10,1.41427,9,118.568,4,-179.764,0\H,17,1.08288,10,118.569,9,-179.997,0\C,17,1.37691,10,122.375,9,0.019726,0\H,19,1.0834,17,119.947,10,179.96,0\C,13,1.41578,12,116.071,9,-179.836,0\H,21,1.08334,13,120.116,12,179.976,0\C,21,1.37674,13,119.752,12,0.0361502,0\H,23,1.08258,21,118.861,13,179.958,0\B,1,1.52682,2,120.867,3,1.07513,0\C,25,1.52747,1,120.385,2,179.568,0\C,26,1.41123,25,120.893,1,178.546,0\H,27,1.0866,26,120.035,25,0.427283,0\C,27,1.37018,26,120.641,25,-179.411,0\C,29,1.4273,27,120.704,26,0.0607358,0\C,30,1.37679,29,119.445,27,0.0847737,0\H,31,1.08529,30,119.86,29,179.629,0\C,31,1.41266,30,121.024,29,-0.160686,0\C,29,1.45772,27,130.766,26,179.991,0\C,34,1.37329,29,134.882,27,0.0516212,0\H,35,1.08359,34,121.905,29,-0.0348497,0\C,34,1.40881,29,106.132,27,-179.941,0\C,37,1.39223,34,123.712,29,-179.991,0\C,37,1.41252,34,111.467,29,0.0347821,0\C,39,1.37283,37,117.937,34,179.97,0\H,40,1.08296,39,121.872,37,-179.99,0\C,35,1.41384,34,118.396,29,179.973,0\H,42,1.08283,35,118.58,34,-179.988,0\C,42,1.37736,35,122.384,34,0.0260926,0\H,44,1.0833,42,119.833,35,179.986,0\C,40,1.41607,39,118.542,37,0,0\H,46,1.08253,40,118.253,39,-179.998,0\C,46,1.37699,40,122.914,39,0.00131047,0\H,48,1.08316,46,120.044,40,-179.987,0\B,8,1.54064,6,120.645,5,179.051,0\C,50,1.57991,8,120.052,6,-0.109346,0\C,51,1.39907,50,121.211,8,80.1579,0\C,52,1.39611,51,121.086,50,179.593,0\H,53,1.08343,52,118.6,51,-179.662,0\C,53,1.38842,52,120.169,51,0.297303,0\O,55,1.35235,53,124.502,52,-179.955,0\C,55,1.39238,53,119.257,52,0.0758354,0\H,57,1.08511,55,119.108,53,179.774,0\C,57,1.38691,55,120.837,53,-0.299243,0\C,56,1.40824,55,118.284,53,1.10149,0\H,60,1.08794,56,106.659,55,179.184,0\H,60,1.09415,56,112.176,55,60.3983,0\H,60,1.09416,56,112.211,55,-62.0478,0\C,52,1.50807,51,120.736,50,2.10956,0\H,64,1.09241,52,110.168,51,-35.5825,0\H,64,1.09328,52,109.61,51,-152.068,0\C,59,1.50877,57,118.425,55,178.01,0\H,67,1.09236,59,110.154,57,145.808,0\H,67,1.09311,59,109.462,57,29.3686,0\C,64,1.52746,52,112.441,51,86.2809,0\H,70,1.09036,64,111.098,52,-61.3302,0\H,70,1.091,64,111.175,52,58.7195,0\H,70,1.09107,64,110.985,52,178.849,0\C,67,1.52787,59,112.604,57,-92.1514,0\H,74,1.0902,67,111.229,59,-61.2279,0\H,74,1.09095,67,111.144,59,58.8649,0\H,74,1.09119,67,110.946,59,178.881,0\C,25,1.58245,1,119.119,2,0.567152,0\C,78,1.43373,25,121.095,1,-95.7747,0\C,79,1.36367,78,119.918,25,178.534,0\H,80,1.08378,79,121.25,78,179.37,0\C,80,1.42239,79,120.561,78,-0.95414,0\O,82,1.30037,80,115.256,79,-179.423,0\C,82,1.41143,80,120.478,79,0.632927,0\H,84,1.08243,82,120.748,80,-179.617,0\C,84,1.36723,82,119.554,80,0.598249,0\C,83,1.43227,82,121.39,80,179.865,0\H,87,1.08472,83,105.71,82,179.586,0\H,87,1.08947,83,110.733,82,60.8082,0\H,87,1.08958,83,110.698,82,-61.684,0\C,86,1.49934,84,118.804,82,177.072,0\H,91,1.09038,86,110.133,84,151.099,0\H,91,1.09177,86,109.256,84,33.8027,0\C,79,1.50048,78,120.733,25,0.581967,0\H,94,1.09071,79,110.041,78,-30.4098,0\H,94,1.09191,79,109.122,78,-147.322,0\C,94,1.52837,79,111.527,78,91.6409,0\H,97,1.08962,94,110.29,79,179.305,0\H,97,1.08973,94,111.443,79,-61.0368,0\H,97,1.0906,94,111.098,79,59.5175,0\C,91,1.52997,86,111.321,84,-87.0819,0\H,101,1.08936,91,111.386,86,-60.0981,0\H,101,1.08944,91,110.036,86,-179.621,0\H,101,1.09044,91,111.161,86,60.6504,0\\\@

 Total job time:  29916.92s(wall), 161373.05s(cpu) 
 Fri Oct 19 19:44:58 2018

        *************************************************************
        *                                                           *
        *  Thank you very much for using Q-Chem.  Have a nice day.  *
        *                                                           *
        *************************************************************


0 sent ACK to 0 
now end server 0 ... 
