104
 Final energy is   -2280.62168720232     
C         0.0656302141   -0.4175363784    0.0823942786
C         0.0618247807   -0.4003991173    1.4945998492
H         1.0091364664   -0.3961750457    2.0219559106
C        -1.1205392204   -0.3875879480    2.1871760791
C        -2.3775118286   -0.3892234162    1.4626808874
C        -2.4012283362   -0.4013845349    0.0934564799
H        -3.3451726297   -0.4013565694   -0.4402468000
C        -1.2040787209   -0.4109840236   -0.6369105979
C        -1.4387208428   -0.3696299134    3.6060380740
C        -0.7136515616   -0.3597802386    4.7719283116
H         0.3686128316   -0.3653163450    4.7706295187
C        -2.8485221973   -0.3617882332    3.6969662936
C        -3.5650004923   -0.3443624925    4.8905394086
C        -3.4550993033   -0.3732531528    2.4232191330
C        -4.8269647219   -0.3668640796    2.3333472426
H        -5.3360325055   -0.3744167369    1.3777506983
C        -1.4141571004   -0.3420529376    5.9974720586
H        -0.8425081045   -0.3341788121    6.9160497745
C        -2.7895848908   -0.3343509935    6.0725935059
H        -3.2760704069   -0.3205693546    7.0398838188
C        -5.5720761954   -0.3496983815    3.5287328996
H        -6.6525149365   -0.3446749130    3.4666411544
C        -4.9751822339   -0.3386533837    4.7713515994
H        -5.5923110482   -0.3252887828    5.6611416242
B        -1.2558463329   -0.4067547466   -2.1685954697
C         0.0758646047   -0.4223907206   -2.9241400639
C         0.0734303195   -0.4254046027   -4.3267500606
H        -0.8721793087   -0.4013644978   -4.8564459341
C         1.2523291472   -0.4639207421   -5.0200943860
C         2.5241209076   -0.5044529598   -4.3276550523
C         2.5508396423   -0.4956815275   -2.9589523270
H         3.4936658238   -0.5296350949   -2.4254586867
C         1.3487052281   -0.4504006033   -2.2183941521
C         1.5097678194   -0.4831556431   -6.4425234747
C         0.7209492312   -0.4635461871   -7.5683709013
H        -0.3590561790   -0.4199686559   -7.5068042601
C         2.9106331490   -0.5396128967   -6.5901845625
C         3.5550512371   -0.5800441121   -7.8252762450
C         3.5683414386   -0.5550213114   -5.3413196701
C         4.9400979449   -0.6146968942   -5.3345001852
H         5.5049502749   -0.6324726839   -4.4116225072
C         1.3509391677   -0.5018825923   -8.8285990713
H         0.7338305333   -0.4863643601   -9.7175806700
C         2.7205948511   -0.5591060525   -8.9678050606
H         3.1590426297   -0.5881409531   -9.9577354043
C         5.6200783382   -0.6558546192   -6.5714315955
H         6.7010307167   -0.7032202766   -6.5626973325
C         4.9664787343   -0.6398337878   -7.7833854064
H         5.5353322295   -0.6744135412   -8.7043052481
B         1.3937577774   -0.4422415615   -0.6857571778
C        -2.6316542578   -0.4007987198   -2.9489174228
C        -3.3452077309    0.7930024922   -3.1635958662
C        -4.5449700879    0.7883322379   -3.8559817424
H        -5.0868106633    1.7136363912   -4.0172860144
C        -5.0729528112   -0.3955579467   -4.3594864173
O        -6.2473007486   -0.2942460865   -5.0201197444
C        -4.3817128352   -1.5805177233   -4.1602087974
H        -4.7625857517   -2.5226131774   -4.5368167354
C        -3.1744070965   -1.5841042846   -3.4618059926
C        -6.8219988175   -1.4614801739   -5.5417571731
H        -7.7502157074   -1.1632596258   -6.0252426543
H        -7.0568210339   -2.1948661480   -4.7630070189
H        -6.1825029777   -1.9442660292   -6.2883498230
C        -2.7969353285    2.1204949905   -2.7089578324
H        -2.2003254382    1.9978532423   -1.8022154680
H        -3.6232753966    2.7841426975   -2.4410163338
C        -2.5105534480   -2.9181740120   -3.2298688109
H        -1.4318536020   -2.7931722573   -3.1162490476
H        -2.6501465605   -3.5540595286   -4.1085943526
C        -1.9465336405    2.7858265483   -3.7886518655
H        -1.0814422745    2.1728157921   -4.0427193827
H        -1.5781108544    3.7572844770   -3.4567874474
H        -2.5231622723    2.9383630894   -4.7017252588
C        -3.0660563039   -3.6295787852   -1.9983825659
H        -2.8953445995   -3.0407194422   -1.0968526834
H        -2.5903152781   -4.6007526557   -1.8561596313
H        -4.1409099601   -3.7922867342   -2.0884205078
C         2.7743879500   -0.4671365495    0.0729473144
C         3.5374839203    0.6957794557    0.2166049846
C         4.7570780558    0.6738946900    0.8928556978
H         5.3131510323    1.5987502470    0.9861148615
C         5.2355422921   -0.5119024459    1.4314664290
O         6.4017734998   -0.6335385816    2.1025034635
C         4.4870773156   -1.6758841372    1.2880815831
H         4.8700921470   -2.5990624645    1.7084874891
C         3.2728404580   -1.6620040461    0.6223383680
C         7.1790763408    0.5152942335    2.2994946497
H         8.0536632970    0.2068079700    2.8688346043
H         7.5181683742    0.9568921102    1.3562358307
H         6.6477012690    1.2851662343    2.8691656756
C         3.0355948158    2.0179826438   -0.3067200787
H         2.5012258010    1.8765759097   -1.2491929214
H         3.8847167176    2.6667414885   -0.5382002915
C         2.5260396793   -2.9624463169    0.4582616827
H         1.4487803519   -2.7945706266    0.5319878128
H         2.7828881550   -3.6342015890    1.2813690618
C         2.8337291570   -3.6555153397   -0.8674199705
H         2.5269296973   -3.0449369482   -1.7167767501
H         3.9015746587   -3.8520033401   -0.9690959260
H         2.3081777833   -4.6086320663   -0.9407276187
C         2.1163648478    2.7271689217    0.6850299955
H         1.2217084210    2.1373410226    0.8858626680
H         2.6209499184    2.8972057521    1.6368897216
H         1.7932582767    3.6943097456    0.2975732124
