104
 Final energy is   -2280.63165447434     
C         0.0237646685   -0.4039072084    0.0777081958
C         0.0197652454   -0.3905064087    1.4890249478
H         0.9677570213   -0.4023823374    2.0169896772
C        -1.1618126605   -0.3590962117    2.1949255468
C        -2.3998691812   -0.3340878634    1.4877267039
C        -2.4235318387   -0.3433451441    0.1189621830
H        -3.3803832189   -0.3200430249   -0.3963047788
C        -1.2221178004   -0.3787898744   -0.6214241364
C        -1.4710757827   -0.3413178729    3.6251845497
C        -0.7426873921   -0.3515100818    4.7877025546
H         0.3397636673   -0.3775612505    4.7827825740
C        -2.8790133192   -0.3071166555    3.7280318349
C        -3.5886227940   -0.2828224055    4.9247317334
C        -3.4873857008   -0.3003601040    2.4581905820
C        -4.8569538248   -0.2668294821    2.3778662222
H        -5.3743382264   -0.2589370919    1.4257966706
C        -1.4363758327   -0.3273931660    6.0212734706
H        -0.8567334417   -0.3357266008    6.9354470148
C        -2.8093577290   -0.2940458028    6.1065979628
H        -3.2918021012   -0.2762839128    7.0761641205
C        -5.6014184514   -0.2416970559    3.5786564971
H        -6.6822856118   -0.2152345951    3.5188637751
C        -5.0009544279   -0.2493541427    4.8172250389
H        -5.6118312338   -0.2291762708    5.7115970368
B        -1.2347530677   -0.3814363138   -2.1478931346
C         0.0694350217   -0.3858421406   -2.9391734255
C         0.0674807769   -0.3847250445   -4.3502733807
H        -0.8716499664   -0.3591570811   -4.8969770423
C         1.2431110917   -0.4183018479   -5.0488547402
C         2.4943206570   -0.4616234772   -4.3674841422
C         2.5146352793   -0.4614486060   -2.9921256397
H         3.4604519537   -0.5018308647   -2.4624395779
C         1.3166976369   -0.4187109428   -2.2471322130
C         1.4977910547   -0.4324060532   -6.4853573430
C         0.7133070894   -0.4079732346   -7.6115460221
H        -0.3676870094   -0.3623758535   -7.5544847726
C         2.8959390473   -0.4895829563   -6.6350869138
C         3.5413425396   -0.5270342994   -7.8690550623
C         3.5479452908   -0.5100257077   -5.3837528499
C         4.9187814855   -0.5720590100   -5.3782402824
H         5.4846027833   -0.5940489207   -4.4554937284
C         1.3429760437   -0.4430911245   -8.8765590192
H         0.7241898266   -0.4234298453   -9.7650318665
C         2.7106574561   -0.5015684085   -9.0161085148
H         3.1520002140   -0.5280445847  -10.0051637901
C         5.6034636502   -0.6105255374   -6.6166362497
H         6.6848049532   -0.6597137183   -6.6034469759
C         4.9546246574   -0.5894416600   -7.8296006369
H         5.5235520141   -0.6220223386   -8.7508740861
B         1.3509944665   -0.4343362902   -0.7066118256
C        -2.6060863721   -0.4132423093   -2.9299141109
C        -3.3493191327    0.7904863139   -3.1797627531
C        -4.5196876753    0.7354747753   -3.8774305662
H        -5.1014396666    1.6291742349   -4.0705001807
C        -5.0062965037   -0.5009757450   -4.3783284617
O        -6.1308731661   -0.4303975882   -5.0386793605
C        -4.2925218841   -1.6944804757   -4.1537494322
H        -4.6557010670   -2.6385148088   -4.5387820009
C        -3.1272061537   -1.6625391044   -3.4365816369
C        -6.7322862124   -1.5972547707   -5.5976603775
H        -7.6431959456   -1.2587396824   -6.0806038209
H        -6.9808172680   -2.3202322580   -4.8203104100
H        -6.0785147236   -2.0575313432   -6.3389651223
C        -2.8237768111    2.1168891661   -2.7196094419
H        -2.2599457185    1.9932603039   -1.7943526093
H        -3.6637404028    2.7775764169   -2.4940191133
C        -2.4117559326   -2.9475230711   -3.1549947727
H        -1.3347260368   -2.7786201103   -3.1418022829
H        -2.6154637498   -3.6574958552   -3.9595465050
C        -1.9341344069    2.7634138385   -3.7817850494
H        -1.0625091788    2.1474549629   -4.0001103029
H        -1.5749657436    3.7310241084   -3.4332676191
H        -2.4809550913    2.9213922730   -4.7123035625
C        -2.8517517215   -3.5506914191   -1.8187765136
H        -2.6259875552   -2.8835315533   -0.9884897450
H        -2.3244968397   -4.4875240602   -1.6430198310
H        -3.9224239322   -3.7580514262   -1.8108040970
C         2.7336778236   -0.4914618232    0.0516198322
C         3.5107511961    0.6582091985    0.2233486052
C         4.7292051303    0.6071042870    0.9014695593
H         5.2961106228    1.5230955523    1.0167650195
C         5.1931599736   -0.5964220704    1.4133525337
O         6.3585361505   -0.7458904230    2.0840630949
C         4.4311708392   -1.7480364149    1.2417296712
H         4.8003195013   -2.6866776263    1.6408214203
C         3.2176138200   -1.7037914190    0.5740554570
C         7.1500087905    0.3925445959    2.3025758612
H         8.0227030092    0.0634741792    2.8632759560
H         7.4903301611    0.8485014090    1.3671170985
H         6.6275341109    1.1554239024    2.8888981577
C         3.0244739940    1.9973598866   -0.2707539604
H         2.4746358423    1.8772198402   -1.2070261782
H         3.8815043923    2.6354912578   -0.5032464825
C         2.4549272970   -2.9908082114    0.3796745910
H         1.3801239949   -2.8047354330    0.4394430417
H         2.6895748692   -3.6785888618    1.1963870297
C         2.7736537383   -3.6675149917   -0.9524425653
H         2.4954118646   -3.0343961465   -1.7949341631
H         3.8391624139   -3.8847403631   -1.0380360495
H         2.2305968935   -4.6089506989   -1.0514595253
C         2.1306901247    2.7044404518    0.7461635453
H         1.2329883022    2.1216131284    0.9528837621
H         2.6531960762    2.8564156211    1.6916730347
H         1.8138986775    3.6808679791    0.3762158466
