104
 Final energy is   -2280.64627963784     
C         0.0267980694   -0.3977911300    0.0784890280
C         0.0224534474   -0.3845441394    1.4906078371
H         0.9694086797   -0.3985910988    2.0205150191
C        -1.1590883672   -0.3510349690    2.1963145808
C        -2.3978075260   -0.3251493609    1.4886563056
C        -2.4215242589   -0.3364162715    0.1193539325
H        -3.3781669968   -0.3156284021   -0.3958573189
C        -1.2202355704   -0.3723376722   -0.6209954972
C        -1.4682354185   -0.3322080739    3.6269900827
C        -0.7394441330   -0.3425851270    4.7899151223
H         0.3430911181   -0.3698046984    4.7855610431
C        -2.8764454261   -0.2963096125    3.7293406673
C        -3.5862419455   -0.2705173423    4.9264217980
C        -3.4851313458   -0.2897099826    2.4591408494
C        -4.8552299755   -0.2549487078    2.3784956069
H        -5.3727249952   -0.2472951995    1.4264813246
C        -1.4334989687   -0.3169042487    6.0236969686
H        -0.8539121755   -0.3253787415    6.9379562265
C        -2.8070329188   -0.2819839442    6.1087925283
H        -3.2898601166   -0.2632188518    7.0781950883
C        -5.5994608929   -0.2283385278    3.5799469287
H        -6.6802921310   -0.2010339547    3.5198177196
C        -4.9990623854   -0.2357380906    4.8191514684
H        -5.6097516242   -0.2144732578    5.7136594035
B        -1.2364093436   -0.3823706363   -2.1479858011
C         0.0697866000   -0.3909074336   -2.9375123148
C         0.0663527384   -0.3926434640   -4.3484277610
H        -0.8731956189   -0.3705062608   -4.8939274148
C         1.2419280251   -0.4235252999   -5.0483729981
C         2.4947242488   -0.4584382224   -4.3679281837
C         2.5165284484   -0.4560018748   -2.9926164094
H         3.4641697533   -0.4897404235   -2.4656060019
C         1.3185548101   -0.4182986255   -2.2458536371
C         1.4951478512   -0.4389301821   -6.4850150634
C         0.7086199982   -0.4216465560   -7.6105860626
H        -0.3726161083   -0.3839892798   -7.5525305213
C         2.8939104960   -0.4870190779   -6.6361272889
C         3.5383796388   -0.5213864753   -7.8711701258
C         3.5480186743   -0.5012062057   -5.3854878401
C         4.9198229681   -0.5529940738   -5.3813353613
H         5.4874504427   -0.5691233913   -4.4594492541
C         1.3377638690   -0.4541791411   -8.8764706817
H         0.7175607550   -0.4402936042   -9.7640635989
C         2.7061586252   -0.5030542242   -9.0178770880
H         3.1467879884   -0.5276450510  -10.0073213588
C         5.6033504627   -0.5880997211   -6.6209425209
H         6.6850855803   -0.6290796382   -6.6090075069
C         4.9524994721   -0.5733738942   -7.8335789148
H         5.5202467328   -0.6027826951   -8.7557439594
B         1.3535514186   -0.4316805377   -0.7056807691
C        -2.6092667437   -0.4165772944   -2.9305656727
C        -3.3543532194    0.7845804934   -3.1781433530
C        -4.5215550307    0.7286084926   -3.8808612809
H        -5.1033250680    1.6218453861   -4.0763020333
C        -5.0037262300   -0.5096144066   -4.3860790787
O        -6.1231833929   -0.4413986874   -5.0482719245
C        -4.2864693350   -1.7026000500   -4.1595881778
H        -4.6476079933   -2.6472445512   -4.5450900548
C        -3.1247961393   -1.6663702702   -3.4385845755
C        -6.7239863827   -1.6095289749   -5.6143721754
H        -7.6329883379   -1.2682574411   -6.0983088589
H        -6.9723138040   -2.3328601816   -4.8379659496
H        -6.0651420486   -2.0647165074   -6.3536064396
C        -2.8337204434    2.1138078808   -2.7185596834
H        -2.2654240157    1.9941032505   -1.7954772742
H        -3.6762389988    2.7695830431   -2.4892935256
C        -2.4125332314   -2.9521120798   -3.1477266848
H        -1.3365483176   -2.7821893529   -3.1033267087
H        -2.5927541230   -3.6564039808   -3.9623810236
C        -1.9533137909    2.7665208467   -3.7842074967
H        -1.0821292534    2.1527769545   -4.0116422953
H        -1.5943912326    3.7344825215   -3.4359990250
H        -2.5079001069    2.9245929801   -4.7099981066
C        -2.8884924676   -3.5661728522   -1.8292892073
H        -2.6957382262   -2.9008942737   -0.9887594374
H        -2.3598606372   -4.4999828180   -1.6413104585
H        -3.9571884636   -3.7813745288   -1.8568113668
C         2.7372264960   -0.4926259367    0.0532352313
C         3.5162347745    0.6553517283    0.2311632629
C         4.7345231256    0.6004764110    0.9102662924
H         5.3027898914    1.5151080738    1.0299824928
C         5.1968851536   -0.6060114533    1.4177408185
O         6.3612665905   -0.7591156852    2.0889446780
C         4.4334107168   -1.7563426510    1.2400700844
H         4.7997551257   -2.6981446046    1.6349759462
C         3.2202354476   -1.7077506353    0.5705466121
C         7.1559608854    0.3796620591    2.3123539897
H         8.0277033142    0.0470066183    2.8720672285
H         7.4961804075    0.8374297250    1.3782887956
H         6.6333817910    1.1400752018    2.9009427623
C         3.0330867905    1.9976471342   -0.2576486255
H         2.4789342453    1.8815570394   -1.1918841752
H         3.8913213535    2.6337536978   -0.4906892261
C         2.4577142640   -2.9940043841    0.3697273299
H         1.3827553481   -2.8066435519    0.4213011896
H         2.6861164102   -3.6834570885    1.1867396885
C         2.7849337687   -3.6694330298   -0.9610668706
H         2.5168195719   -3.0324515985   -1.8040659994
H         3.8501225233   -3.8920423961   -1.0378634468
H         2.2380075173   -4.6077798984   -1.0670234228
C         2.1452156416    2.7051324579    0.7642257596
H         1.2480371426    2.1226370650    0.9747436382
H         2.6728432406    2.8565441560    1.7070613840
H         1.8275985242    3.6819425350    0.3961594317
