104
 Final energy is   -2280.63188990979     
C         0.0213327976   -0.3970387470    0.0773132864
C         0.0175929461   -0.3822555140    1.4885475998
H         0.9657044107   -0.3958886393    2.0162446165
C        -1.1637520126   -0.3482908992    2.1947370411
C        -2.4020132018   -0.3228201750    1.4876123515
C        -2.4261376950   -0.3336286584    0.1190522706
H        -3.3832747846   -0.3124711423   -0.3956921490
C        -1.2246681334   -0.3681885614   -0.6218581037
C        -1.4726626274   -0.3287730439    3.6248784726
C        -0.7439555943   -0.3384217599    4.7872639604
H         0.3384640624   -0.3655588207    4.7820739939
C        -2.8805840087   -0.2929832541    3.7280127813
C        -3.5898515188   -0.2666955006    4.9248756032
C        -3.4892767515   -0.2868691108    2.4583514208
C        -4.8588089426   -0.2519905648    2.3783219801
H        -5.3764192303   -0.2445453300    1.4263744305
C        -1.4373105849   -0.3122888492    6.0209353923
H        -0.8574805370   -0.3202411107    6.9349906594
C        -2.8102639951   -0.2774677535    6.1065470018
H        -3.2924338319   -0.2581794192    7.0762194345
C        -5.6029307210   -0.2248793078    3.5792793158
H        -6.6837818327   -0.1973760101    3.5197316681
C        -5.0021558795   -0.2318798122    4.8177055002
H        -5.6127766283   -0.2101553211    5.7122128288
B        -1.2371146036   -0.3784766660   -2.1483577651
C         0.0676949853   -0.3914799612   -2.9392229620
C         0.0664498715   -0.3880865569   -4.3504081219
H        -0.8720809665   -0.3572127476   -4.8978342939
C         1.2423685111   -0.4245218949   -5.0483313690
C         2.4931923790   -0.4704169849   -4.3665750201
C         2.5128949808   -0.4689913743   -2.9913025497
H         3.4583744105   -0.5094493354   -2.4610409315
C         1.3145625203   -0.4241997478   -2.2469148372
C         1.4975417113   -0.4389965626   -6.4848162920
C         0.7134624787   -0.4129883840   -7.6111902845
H        -0.3674463401   -0.3650715416   -7.5544503217
C         2.8955980413   -0.4992355804   -6.6340635969
C         3.5412875409   -0.5383372051   -7.8678111197
C         3.5471500452   -0.5210024185   -5.3825336670
C         4.9177748673   -0.5862461342   -5.3765611738
H         5.4832452788   -0.6095352659   -4.4536320809
C         1.3434413168   -0.4496237570   -8.8760346044
H         0.7249735624   -0.4286779615   -9.7646943312
C         2.7110148195   -0.5111843193   -9.0151231854
H         3.1526123586   -0.5387728981  -10.0040350808
C         5.6027976347   -0.6264593880   -6.6147616357
H         6.6840126941   -0.6781978801   -6.6012009396
C         4.9544154020   -0.6040026938   -7.8279067785
H         5.5235559139   -0.6380193713   -8.7489950313
B         1.3485086832   -0.4345105607   -0.7064177213
C        -2.6077980839   -0.4139264731   -2.9292500603
C        -3.3689340354    0.7838668936   -3.1533526313
C        -4.5377037107    0.7271509316   -3.8533784881
H        -5.1291572008    1.6174224318   -4.0321943763
C        -5.0083487457   -0.5055489612   -4.3780284596
O        -6.1344719758   -0.4368615967   -5.0365327035
C        -4.2785377921   -1.6932616982   -4.1769591625
H        -4.6311559296   -2.6350349753   -4.5769701480
C        -3.1123214275   -1.6599003674   -3.4611130969
C        -6.7210196677   -1.6004789326   -5.6171032078
H        -7.6348725304   -1.2642470574   -6.0961062850
H        -6.9628908324   -2.3398225785   -4.8530954786
H        -6.0606404882   -2.0403781155   -6.3649023122
C        -2.8576261398    2.1082997480   -2.6725857701
H        -2.3033185616    1.9790938806   -1.7424047379
H        -3.7039122093    2.7619633760   -2.4503733513
C        -2.3831804867   -2.9415099526   -3.2008460185
H        -1.3073065898   -2.7653035025   -3.2006050717
H        -2.5925717305   -3.6461952728   -4.0085501914
C        -1.9591031037    2.7694271324   -3.7183270671
H        -1.0835859880    2.1581141510   -3.9346993426
H        -1.6060174540    3.7340341673   -3.3555417862
H        -2.4970149230    2.9361435398   -4.6524999239
C        -2.8013281357   -3.5581565762   -1.8636885392
H        -2.5724725873   -2.8941386744   -1.0316362870
H        -2.2631944829   -4.4910294313   -1.7001039798
H        -3.8698236736   -3.7757202093   -1.8445516556
C         2.7310343973   -0.4924947979    0.0519828535
C         3.5100647730    0.6562581943    0.2210444346
C         4.7287872085    0.6044491848    0.8985998538
H         5.2973458093    1.5196882463    1.0116986326
C         5.1909737086   -0.5988576572    1.4126484242
O         6.3564870424   -0.7489675934    2.0829324649
C         4.4269242978   -1.7495328153    1.2438182403
H         4.7946718780   -2.6879537103    1.6447132179
C         3.2131002344   -1.7045973845    0.5766831761
C         7.1500355118    0.3885515806    2.2987400644
H         8.0225390661    0.0590560874    2.8594824931
H         7.4905016337    0.8421239630    1.3621797931
H         6.6292514949    1.1534328792    2.8839534492
C         3.0257823499    1.9951711626   -0.2756740179
H         2.4755471285    1.8740494873   -1.2116026297
H         3.8837520349    2.6314812413   -0.5096553159
C         2.4478498455   -2.9906173179    0.3858017413
H         1.3734356872   -2.8023338254    0.4457195424
H         2.6815969930   -3.6767911125    1.2041212552
C         2.7644349001   -3.6714185593   -0.9447379597
H         2.4864848028   -3.0401639817   -1.7887125899
H         3.8295149494   -3.8906213329   -1.0306074223
H         2.2197659424   -4.6122364783   -1.0407017777
C         2.1333462607    2.7057398154    0.7400061656
H         1.2348092891    2.1247034935    0.9480612974
H         2.6563165737    2.8588370823    1.6850758775
H         1.8180065678    3.6818939607    0.3681144631
