104
 Final energy is   -2280.66267652793     
C        -0.0097499858   -0.3476173113    0.0316332949
C        -0.0045593582   -0.3585980100    1.4396880128
H         0.9403479785   -0.3927507965    1.9704047661
C        -1.1882765330   -0.3232366369    2.1401238997
C        -1.4852055415   -0.3224615269    3.5748450358
C        -0.7436447291   -0.3549033128    4.7271365735
H         0.3385362209   -0.3906722770    4.7110888041
C        -1.4257992506   -0.3410656244    5.9684444885
H        -0.8394522845   -0.3668161658    6.8777028531
C        -2.7986542617   -0.2967939796    6.0615749542
H        -3.2738132206   -0.2879571791    7.0348927160
C        -2.8892885639   -0.2773141505    3.6831274581
C        -3.5881903993   -0.2630714475    4.8860582467
C        -3.5051933333   -0.2489534011    2.4167676169
C        -4.8739760083   -0.2031971927    2.3454695497
H        -5.3979126183   -0.1787388261    1.3976274555
C        -5.6100281309   -0.1877649129    3.5538784637
H        -6.6905514233   -0.1519639205    3.5005809165
C        -5.0015065454   -0.2165317183    4.7885672503
H        -5.6063667992   -0.2032031362    5.6870424512
C        -2.4239612579   -0.2782232809    1.4359469742
C        -2.4487754186   -0.2722299571    0.0595509737
H        -3.3969631445   -0.2444694596   -0.4665709433
C        -1.2489511579   -0.3033009566   -0.6717846540
B         1.3340628263   -0.3880652805   -0.7296218810
B        -1.2995283364   -0.2985125257   -2.2223089212
C         1.3221224020   -0.3353030046   -2.2669373104
C         2.5245009206   -0.3512454173   -2.9700373867
H         3.4625043203   -0.4004247394   -2.4290825771
C         2.5288974669   -0.3094137373   -4.3499066925
C         3.5761487069   -0.3141087385   -5.3190323396
C         4.9629930756   -0.3560082402   -5.2768909130
H         5.5016917203   -0.3940927928   -4.3391937419
C         5.6637115229   -0.3504246080   -6.4927306048
H         6.7451487936   -0.3833989710   -6.4660250576
C         5.0314547985   -0.3058777779   -7.7254064368
H         5.6224155453   -0.3048012439   -8.6328540307
C         2.9403947696   -0.2683562841   -6.5852121154
C         3.6184218260   -0.2633772617   -7.8032054256
C         1.5226653790   -0.2341018985   -6.4725184127
C         0.7584396592   -0.1908927159   -7.6368692452
H        -0.3230797177   -0.1633086597   -7.6045141323
C         1.4271798501   -0.1843193880   -8.8665908737
H         0.8410294055   -0.1509955049   -9.7759950319
C         2.8113196238   -0.2193343682   -8.9680146381
H         3.2760979906   -0.2135060817   -9.9461407827
C         1.2315044650   -0.2598161270   -5.0879898664
C         0.0307557987   -0.2558574996   -4.3857139555
H        -0.9074366033   -0.2292111637   -4.9293676237
C         0.0282070676   -0.2916115145   -3.0021102085
C         2.7027961245   -0.5107184118    0.0358507010
C         3.5132508375    0.6067383681    0.2600122658
C         4.7291465727    0.4837194921    0.9326484414
H         5.3270305316    1.3732007014    1.0908908352
C         5.1539512795   -0.7587202264    1.3863570933
O         6.3128386005   -0.9757234698    2.0437285676
C         4.3539719767   -1.8770013726    1.1641601576
H         4.6904695315   -2.8461708122    1.5169502192
C         3.1427642413   -1.7624149644    0.5000517921
C         7.1553847919    0.1249714182    2.2975574266
H         8.0213474499   -0.2626792124    2.8295348648
H         7.4972984761    0.6034800147    1.3752604146
H         6.6703994422    0.8798248829    2.9232543811
C         3.0661628672    1.9822685783   -0.1659713947
H         2.4930188918    1.9246092054   -1.0949816933
H         3.9398690683    2.5995742741   -0.3894004452
C         2.3427861173   -3.0149195645    0.2394037730
H         1.2728740525   -2.7926458571    0.2478246555
H         2.5080661503   -3.7280716875    1.0506571829
C         2.2193165265    2.6752095526    0.8997018096
H         1.3100940699    2.1115026291    1.1104772399
H         1.9224936661    3.6727745619    0.5735624616
H         2.7714151590    2.7771896513    1.8347505238
C         2.7061063729   -3.6773712590   -1.0887445194
H         2.5112375581   -3.0128535166   -1.9309584826
H         3.7623895343   -3.9477524354   -1.1169935341
H         2.1231405927   -4.5864652332   -1.2426631247
C        -2.6750407822   -0.3230405551   -2.9969851141
C        -3.1945064080   -1.5292579908   -3.4791964667
C        -4.4049554796   -1.5666146717   -4.1713195235
H        -4.7692594710   -2.5244111901   -4.5236360687
C        -5.1215662087   -0.3990540345   -4.3927253205
O        -6.3002934946   -0.3374611999   -5.0479993372
C        -4.6151121674    0.8075166798   -3.9169900829
H        -5.1742869785    1.7206173037   -4.0923443062
C        -3.4114591259    0.8517956900   -3.2303067806
C        -6.8585141173   -1.5346377303   -5.5412193835
H        -7.7945938110   -1.2647537634   -6.0250895561
H        -7.0721623287   -2.2500029241   -4.7417211990
H        -6.2116533258   -2.0188273320   -6.2785597089
C        -2.8862280769    2.1978787395   -2.8031192654
H        -3.7202184110    2.8385845244   -2.5060200580
H        -2.2516519859    2.0979767147   -1.9189726440
C        -2.5036700003   -2.8434779782   -3.2134962803
H        -1.4309007100   -2.6903422894   -3.0743201421
H        -2.6044396718   -3.4940404151   -4.0862991103
C        -2.0987792265    2.8841363742   -3.9176284812
H        -1.2315624664    2.2912047439   -4.2096150301
H        -2.7181029352    3.0249770856   -4.8043671030
H        -1.7405705227    3.8635923982   -3.5985455562
C        -3.0747378598   -3.5528111033   -1.9874257148
H        -2.9649014825   -2.9386259730   -1.0928805702
H        -4.1369627663   -3.7651966501   -2.1158405691
H        -2.5629030875   -4.4991717309   -1.8084702418
