mFile = /cm/shared/apps/q-chem/intel/QCHEM_5.1.0_Trunk/bin/mpi/machines
Process 0 of 1 is on ctcp009 - thread support 0
initial socket setup ...start
initial socket setup ...done 
now start server 0 ... 
Q-Chem Developer Version!
                  Welcome to Q-Chem
     A Quantum Leap Into The Future Of Chemistry


 Q-Chem 5.1, Q-Chem, Inc., Pleasanton, CA (2018)

 Yihan Shao,  Zhengting Gan,  E. Epifanovsky,  A. T. B. Gilbert,  M. Wormit,  
 J. Kussmann,  A. W. Lange,  A. Behn,  Jia Deng,  Xintian Feng,  D. Ghosh,  
 M. Goldey,  P. R. Horn,  L. D. Jacobson,  I. Kaliman,  T. Kus,  A. Landau,  
 Jie Liu,  E. I. Proynov,  R. M. Richard,  R. P. Steele,  E. J. Sundstrom,  
 H. L. Woodcock III,  P. M. Zimmerman,  D. Zuev,  B. Albrecht,  E. Alguire,  
 S. A. Baeppler,  D. Barton,  Z. Benda,  Y. A. Bernard,  E. J. Berquist,  
 K. B. Bravaya,  H. Burton,  D. Casanova,  Chun-Min Chang,  Yunqing Chen,  
 A. Chien,  K. D. Closser,  M. P. Coons,  S. Coriani,  S. Dasgupta,  
 A. L. Dempwolff,  M. Diedenhofen,  Hainam Do,  R. G. Edgar,  Po-Tung Fang,  
 S. Faraji,  S. Fatehi,  Qingguo Feng,  K. D. Fenk,  J. Fosso-Tande,  
 Qinghui Ge,  A. Ghysels,  G. Gidofalvi,  J. Gomes,  J. Gonthier,  A. Gunina,  
 D. Hait,  M. W. D. Hanson-Heine,  P. H. P. Harbach,  A. W. Hauser,  
 J. E. Herr,  E. G. Hohenstein,  Z. C. Holden,  Kerwin Hui,  B. C. Huynh,  
 T.-C. Jagau,  Hyunjun Ji,  B. Kaduk,  K. Khistyaev,  Jaehoon Kim,  
 P. Klunzinger,  K. Koh,  D. Kosenkov,  L. Koulias,  T. Kowalczyk,  
 C. M. Krauter,  A. Kunitsa,  Ka Un Lao,  A. Laurent,  K. V. Lawler,  
 Joonho Lee,  D. Lefrancois,  S. Lehtola,  D. S. Levine,  Yi-Pei Li,  
 You-Sheng Lin,  Fenglai Liu,  E. Livshits,  A. Luenser,  P. Manohar,  
 E. Mansoor,  S. F. Manzer,  Shan-Ping Mao,  Yuezhi Mao,  N. Mardirossian,  
 A. V. Marenich,  T. Markovich,  L. A. Martinez-Martinez,  S. A. Maurer,  
 N. J. Mayhall,  S. C. McKenzie,  J.-M. Mewes,  A. F. Morrison,  
 J. W. Mullinax,  K. Nanda,  T. S. Nguyen-Beck,  R. Olivares-Amaya,  
 J. A. Parkhill,  T. M. Perrine,  F. Plasser,  P. Pokhilko,  S. Prager,  
 A. Prociuk,  E. Ramos,  D. R. Rehn,  F. Rob,  M. Schneider,  N. Sergueev,  
 S. M. Sharada,  S. Sharma,  D. W. Small,  T. Stauch,  T. Stein,  
 Yu-Chuan Su,  A. J. W. Thom,  A. Tkatchenko,  T. Tsuchimochi,  N. M. Tubman,  
 L. Vogt,  M. L. Vidal,  O. Vydrov,  M. A. Watson,  J. Wenzel,  
 M. de Wergifosse,  T. A. Wesolowski,  A. White,  J. Witte,  A. Yamada,  
 Jun Yang,  K. Yao,  S. Yeganeh,  S. R. Yost,  Zhi-Qiang You,  A. Zech,  
 Igor Ying Zhang,  Xing Zhang,  Yan Zhao,  Ying Zhu,  B. R. Brooks,  
 G. K. L. Chan,  C. J. Cramer,  M. S. Gordon,  W. J. Hehre,  A. Klamt,  
 M. W. Schmidt,  C. D. Sherrill,  D. G. Truhlar,  A. Aspuru-Guzik,  R. Baer,  
 A. T. Bell,  N. A. Besley,  Jeng-Da Chai,  A. E. DePrince, III,  
 R. A. DiStasio Jr.,  A. Dreuw,  B. D. Dunietz,  T. R. Furlani,  
 Chao-Ping Hsu,  Yousung Jung,  Jing Kong,  D. S. Lambrecht,  WanZhen Liang,  
 C. Ochsenfeld,  V. A. Rassolov,  L. V. Slipchenko,  J. E. Subotnik,  
 T. Van Voorhis,  J. M. Herbert,  A. I. Krylov,  P. M. W. Gill,  M. Head-Gordon

 Contributors to earlier versions of Q-Chem not listed above: 
 R. D. Adamson,  B. Austin,  J. Baker,  G. J. O. Beran,  K. Brandhorst,  
 S. T. Brown,  E. F. C. Byrd,  A. K. Chakraborty,  C.-L. Cheng,  
 Siu Hung Chien,  D. M. Chipman,  D. L. Crittenden,  H. Dachsel,  
 R. J. Doerksen,  A. D. Dutoi,  L. Fusti-Molnar,  W. A. Goddard III,  
 A. Golubeva-Zadorozhnaya,  S. R. Gwaltney,  G. Hawkins,  A. Heyden,  
 S. Hirata,  G. Kedziora,  F. J. Keil,  C. Kelley,  Jihan Kim,  R. A. King,  
 R. Z. Khaliullin,  P. P. Korambath,  W. Kurlancheek,  A. M. Lee,  M. S. Lee,  
 S. V. Levchenko,  Ching Yeh Lin,  D. Liotard,  R. C. Lochan,  I. Lotan,  
 P. E. Maslen,  N. Nair,  D. P. O'Neill,  D. Neuhauser,  E. Neuscamman,  
 C. M. Oana,  R. Olson,  B. Peters,  R. Peverati,  P. A. Pieniazek,  
 Y. M. Rhee,  J. Ritchie,  M. A. Rohrdanz,  E. Rosta,  N. J. Russ,  
 H. F. Schaefer III,  N. E. Schultz,  N. Shenvi,  A. C. Simmonett,  A. Sodt,  
 D. Stuck,  K. S. Thanthiriwatte,  V. Vanovschi,  Tao Wang,  A. Warshel,  
 C. F. Williams,  Q. Wu,  X. Xu,  W. Zhang

 Please cite Q-Chem as follows:
 Y. Shao et al., Mol. Phys. 113, 184-215 (2015)
 DOI: 10.1080/00268976.2014.952696

 Q-Chem 5.1.1 for Intel X86 EM64T Linux

 Parts of Q-Chem use Armadillo 8.300.2 (Tropical Shenanigans).
 http://arma.sourceforge.net/

 Q-Chem begins on Tue Dec 18 09:22:15 2018  

Host: ctcp009
0

     Scratch files written to /scratch/mewes/142032/qchem44051//
 Parallel job on  1  processors
The previous job contains 0 fragments, simply inherited here
Symmetry turned off for PCM/SM12/SMD calculation
Input Ideriv = 2
Curr. Ideriv = -1
Max.  Ideriv = 2
Input Ideriv = 2
Curr. Ideriv = 2
Max.  Ideriv = 2

Checking the input file for inconsistencies... 	...done.

--------------------------------------------------------------
User input:
--------------------------------------------------------------
$rem
threads 8
jobtype	opt
method PBEh-3c
basis def2-mSVP
mem_static	512
mem_total	6096
sym_ignore	true
solvent_method  pcm
$end

$pcm
theory iefpcm
$end 
$solvent
dielectric 36
$end

$molecule
read gsopt.mol
$end

--------------------------------------------------------------
 Adding empirical dispersion correction 
 ----------------------------------------------------------------
 Doing -D3(BJ) with
 s6 =   1.00000
 s8 =   0.00000
 a1 =   0.48600
 a2 =   4.50000
 -D3 energy including 3body term =     -0.0904201241 hartrees
 ----------------------------------------------------------------
 Adding gCP correction 
 ----------------------------------------------------------------
 gCP energy =      0.1177811099 hartrees
 ----------------------------------------------------------------
             Standard Nuclear Orientation (Angstroms)
    I     Atom           X                Y                Z
 ----------------------------------------------------------------
    1      N       0.0000000000     0.0000000000     0.0000000000
    2      C       0.0000000000     0.0000000000     1.1410150000
    3      C       0.0123434575     0.0000000000     2.5844702245
    4      H      -0.9935934505     0.1628964370     2.9672988413
    5      H       0.3836123253    -0.9562205150     2.9491406613
    6      H       0.6643206151     0.7948006741     2.9434226454
    7      B       0.3972645675     0.0474171969    -1.5666674311
    8      C      -0.8654843410     0.0155879092    -2.5674318277
    9      C      -2.2022767296    -0.2807237078    -2.2449171054
   10      C      -3.1811537698    -0.2878932735    -3.2346485057
   11      H      -4.2037162820    -0.5230931135    -2.9561385593
   12      C      -2.8926177558    -0.0184026364    -4.5624987107
   13      C      -1.5721816051     0.2464073159    -4.8843022675
   14      H      -1.3073387849     0.4369542249    -5.9191153361
   15      C      -0.5681279885     0.2635504526    -3.9217176398
   16      C      -3.9738962779    -0.0186089364    -5.6028269991
   17      H      -3.5601704567    -0.0339100743    -6.6106705927
   18      H      -4.6278985279    -0.8856468406    -5.5005614858
   19      H      -4.6032083394     0.8701348876    -5.5224398191
   20      C       0.8335293130     0.5433767753    -4.3949243009
   21      H       1.5713297346    -0.1102042665    -3.9295355173
   22      H       0.9096898318     0.4013652141    -5.4731125213
   23      H       1.1360646511     1.5690502499    -4.1788594599
   24      C      -2.6649369280    -0.6286842979    -0.8516188524
   25      H      -3.7101027749    -0.9375663237    -0.8656184923
   26      H      -2.0997174763    -1.4549273862    -0.4185509505
   27      H      -2.5997116539     0.2185951568    -0.1668837390
   28      C       1.3249306170    -1.2728899928    -1.6220512622
   29      C       0.7393509505    -2.5196628270    -1.8490319011
   30      H      -0.2981681422    -2.5780174757    -2.1608849921
   31      C       1.4645751922    -3.6751097909    -1.6246418432
   32      C       2.6809136369    -1.1979054271    -1.2386630380
   33      C       3.4097081136    -2.3776649819    -1.0168467703
   34      H       4.4390443396    -2.3140150095    -0.6794895693
   35      C       2.8034700497    -3.6033817754    -1.1761581681
   36      C       3.2571133281    -4.9602296268    -0.8626516168
   37      C       4.3854938332    -5.5053523501    -0.3104652456
   38      H       5.2409985150    -4.8978462607    -0.0415284440
   39      C       2.1761080819    -5.8120256987    -1.1587913555
   40      C       2.1757174984    -7.1830146430    -0.9274519966
   41      C       1.0678718133    -5.0860695004    -1.6366375778
   42      C      -0.0850646790    -5.7694069170    -1.9192472897
   43      H      -0.9744786415    -5.2652934695    -2.2762732256
   44      C      -0.1063631179    -7.1709345494    -1.7248101161
   45      H      -1.0167748250    -7.7101931281    -1.9522868072
   46      C       0.9772809334    -7.8666928968    -1.2433722462
   47      H       0.9082448692    -8.9374735294    -1.0947774205
   48      C       4.4176349847    -6.9007095259    -0.0705796912
   49      H       5.3090627301    -7.3285532570     0.3699114698
   50      C       3.3579638885    -7.7241417666    -0.3654042508
   51      H       3.4228087612    -8.7846910657    -0.1548500557
   52      B       3.3571041353     0.1763021862    -1.0151565368
   53      C       2.5772065885     1.4890470927    -1.2647083136
   54      C       3.2231438034     2.7259470265    -1.0960590273
   55      H       4.2850136749     2.7487355066    -0.8742900897
   56      C       2.5003590730     3.8952651600    -1.1436676647
   57      C       1.1940160258     1.4526328435    -1.5301246065
   58      C       0.4683716029     2.6455746482    -1.5810448664
   59      H      -0.6020748580     2.6167890283    -1.7592782293
   60      C       1.1040574697     3.8519401821    -1.3633197996
   61      C       2.8787373392     5.2818941653    -0.8589947640
   62      C       4.0408130049     5.9267720120    -0.5307368774
   63      H       4.9893190150     5.4062235937    -0.4831166193
   64      C       1.6836015446     6.0256554842    -0.8817895512
   65      C       1.5965407855     7.3761718013    -0.5599344315
   66      C       0.5773491478     5.2099449786    -1.1890695801
   67      C      -0.6702826658     5.7756237974    -1.1789138913
   68      H      -1.5613752623     5.1980113257    -1.3915939542
   69      C       0.2970332794     7.9361400717    -0.5633297482
   70      H       0.1562205200     8.9816189376    -0.3170488813
   71      C      -0.7901645669     7.1503898970    -0.8645535642
   72      H      -1.7775840192     7.5935460339    -0.8536616748
   73      C       2.8135633151     8.0219421509    -0.2337832466
   74      H       2.8178955583     9.0743382801     0.0226610799
   75      C       3.9882464190     7.3093843523    -0.2289442083
   76      H       4.9092678949     7.8166318466     0.0279530313
   77      C       4.8208288038     0.2417031549    -0.4440147657
   78      C       5.0256856272     0.2971227881     0.9373494319
   79      C       6.3186580118     0.3549888164     1.4463310420
   80      H       6.4647401031     0.3957948862     2.5210267324
   81      C       7.4264010190     0.3586285794     0.6112035184
   82      C       7.2121606379     0.3055400642    -0.7616404689
   83      H       8.0656282469     0.3079828352    -1.4323293016
   84      C       5.9315805087     0.2473948552    -1.2950903012
   85      C       8.8198682469     0.4145774430     1.1681169961
   86      H       8.8156202079     0.4427199053     2.2574022359
   87      H       9.4058256960    -0.4548739570     0.8653248098
   88      H       9.3554378623     1.2991922676     0.8193283417
   89      C       5.7231677682     0.1926208640    -2.7819519896
   90      H       6.6669753271     0.2179165573    -3.3261137020
   91      H       5.1967018575    -0.7175477597    -3.0777857467
   92      H       5.1193647245     1.0341510059    -3.1291198035
   93      C       3.8467224108     0.2920559923     1.8730436539
   94      H       4.1605125755     0.3177852390     2.9168678503
   95      H       3.2021695786     1.1577962148     1.6982660645
   96      H       3.2375084254    -0.6051862796     1.7324412933
 ----------------------------------------------------------------
 Nuclear Repulsion Energy =  6869.0667413342 hartrees
 There are      185 alpha and      185 beta electrons
 Requested basis set is def2-mSVP
 There are 467 shells and 907 basis functions

 Total QAlloc Memory Limit   6096 MB
 Mega-Array Size       501 MB
 MEM_STATIC part       512 MB
 Discretize the solute cavity surface with Lebedev spheres
	Using 302 Lebedev grid points for each H atom
	Using 302 Lebedev grid points for other atoms
	Atomic van der Waals radii will be scaled by 1.20
 Remove points where switching function is < 1.0e-08
 Keep 10236 surface tesserae and discard 18756 interior tesserae
 Molecular Surface Area = 749.661 Angst**2
 A cutoff of  1.0D-11 yielded  41268 shell pairs
 There are    163530 function pairs (    180242 Cartesian)
 
 -------------------------------------------------------
 OpenMP Integral Computing Module                       
 Release: version 1.0, May 2013, Q-Chem Inc. Pittsburgh 
 -------------------------------------------------------
 Integral Job Info:
 Integral job number is                      11
 Integral operator is                         1
 short-range coefficients                     0
 long-range coefficients              100000000
 Omega coefficients                           0
 if combine SR and LR in K                    0
 Integral screening is                        0
 Integral computing path is                   2
 max size of driver memory is            800000
 size of driver memory is                593474
 size of scratch memory is              1809772
 max col of scratch BK array               1296
 max len of scratch array in speh3          155
 max len of scratch index in speh4           18
 max int batch size is                      520
 min int batch size is                       52
 fixed nKL is                                52
 max L of basis functions is                  2
 order of int derivative is                   0
 number of shells is                        467
 number of basis is                         962
 number of cartesian basis is               962
 number of contracted shell pairs         41268
 number of primitive shell pairs          85918
 maxK2 (contraction) of shell pair           25
 max number of K2 of shell pair               1
 max number of CS2 of shell pair           9953
 max number of PS2 of shell pair          15160
 mem total for path MDJ                  934460
 -------------------------------------------------------
 Smallest overlap matrix eigenvalue = 1.99E-04

 Scale SEOQF with 1.000000e-02/1.000000e-02/1.000000e-02

 Standard Electronic Orientation quadrupole field applied
 Nucleus-field energy     =     0.0000000450 hartrees
 Guess from superposition of atomic densities
 Warning:  Energy on first SCF cycle will be non-variational
 SAD guess density has 370.000000 electrons

 -----------------------------------------------------------------------
  General SCF calculation program by
  Eric Jon Sundstrom, Paul Horn, Yuezhi Mao, Dmitri Zuev, Alec White,
  David Stuck, Shaama M.S., Shane Yost, Joonho Lee, David Small,
  Daniel Levine, Susi Lehtola, Hugh Burton, Evgeny Epifanovsky
 -----------------------------------------------------------------------
 Exchange:     0.4200 Hartree-Fock + 0.5800 PBEh-3c
 Correlation:  1.0000 PBEh-3c
 Using SG-1 standard quadrature grid
 Dispersion:   Grimme D3
 using 8 threads for integral computing
 -------------------------------------------------------
 OpenMP Integral computing Module                
 Release: version 2.0, May 2017, Q-Chem Inc. Pleasanton 
 -------------------------------------------------------
 -------------------------------------------------------
 OpenMP BLAS3 based DFT computing Module                
 Release: version 1.0, May 2013, Q-Chem Inc. Pittsburgh 
 -------------------------------------------------------
 A restricted SCF calculation will be
 performed using DIIS
 SCF converges when DIIS error is below 1.0e-08
 ---------------------------------------
  Cycle       Energy         DIIS error
 ---------------------------------------
 Using non-symmetric K matrix
    1   -2124.1986774811      2.83e-02  
    2   -2105.7572089374      1.90e-03  
    3   -2105.9414099961      1.55e-03  
    4   -2106.1567887662      6.54e-04  
    5   -2106.1954651609      1.73e-04  
    6   -2106.1982507445      4.19e-05  
    7   -2106.1984156285      1.15e-05  
    8   -2106.1984297348      3.42e-06  
    9   -2106.1984310822      1.28e-06  
   10   -2106.1984312674      3.92e-07  
   11   -2106.1984312938      1.71e-07  
   12   -2106.1984312982      5.38e-08  
   13   -2106.1984312987      1.77e-08  
   14   -2106.1984312988      9.61e-09  Convergence criterion met
 ---------------------------------------
 SCF time:   CPU 12098.31s  wall 1657.00s 

************** Final PCM Free Energy Summary **************
 G_electrostatic  =      -0.04655571 hartree =     -29.21414801 kcal/mol
 G_cavitation     =       0.00000000 hartree =       0.00000000 kcal/mol
 G_dispersion     =       0.00000000 hartree =       0.00000000 kcal/mol
 G_repulsion      =       0.00000000 hartree =       0.00000000 kcal/mol
 --------------------------------------------------
 Non-electrostatic Free Energy =       0.00000000 hartree =       0.00000000 kcal/mol
 Total                         =      -0.04655571 hartree =     -29.21414801 kcal/mol
 --------------------------------------------------
 SCF Energy (H0 + V/2)                       =   -2106.19843130 
 Solute Internal Energy (H0)                 =   -2106.15187559 
 Total Free Energy (H0 + V/2 + non-elec)     =   -2106.19843130 hartree
                                             = -1321659.46344532 kcal/mol
***********************************************************

 SCF   energy in the final basis set =    -2106.1984312988
 Total energy in the final basis set =    -2106.1984312988
 
 --------------------------------------------------------------
 
                    Orbital Energies (a.u.)
 --------------------------------------------------------------
 
 Alpha MOs
 -- Occupied --
-14.709 -10.553 -10.485 -10.464 -10.464 -10.462 -10.462 -10.462
-10.461 -10.461 -10.461 -10.460 -10.460 -10.460 -10.459 -10.459
-10.459 -10.457 -10.457 -10.456 -10.456 -10.456 -10.455 -10.455
-10.454 -10.450 -10.450 -10.449 -10.449 -10.448 -10.447 -10.447
-10.446 -10.444 -10.444 -10.443 -10.442 -10.433 -10.433 -10.432
-10.432 -10.427 -10.427 -10.427 -10.426 -10.425 -10.425 -10.425
-10.424 -10.422 -10.419 -10.418 -10.418  -6.939  -6.937  -1.084
 -1.015  -1.014  -0.961  -0.957  -0.956  -0.952  -0.932  -0.931
 -0.906  -0.897  -0.880  -0.871  -0.869  -0.865  -0.864  -0.850
 -0.850  -0.844  -0.844  -0.819  -0.811  -0.809  -0.802  -0.780
 -0.776  -0.758  -0.758  -0.756  -0.751  -0.732  -0.725  -0.723
 -0.717  -0.694  -0.684  -0.676  -0.661  -0.654  -0.645  -0.643
 -0.640  -0.637  -0.635  -0.629  -0.590  -0.587  -0.586  -0.582
 -0.580  -0.573  -0.570  -0.559  -0.549  -0.543  -0.541  -0.541
 -0.537  -0.532  -0.528  -0.524  -0.523  -0.510  -0.503  -0.497
 -0.494  -0.491  -0.489  -0.487  -0.486  -0.485  -0.480  -0.479
 -0.478  -0.477  -0.474  -0.473  -0.466  -0.465  -0.464  -0.463
 -0.462  -0.461  -0.460  -0.455  -0.453  -0.451  -0.449  -0.446
 -0.443  -0.437  -0.436  -0.431  -0.429  -0.428  -0.424  -0.422
 -0.418  -0.411  -0.405  -0.404  -0.395  -0.395  -0.395  -0.394
 -0.388  -0.388  -0.383  -0.382  -0.379  -0.379  -0.372  -0.369
 -0.357  -0.348  -0.342  -0.330  -0.326  -0.313  -0.312  -0.295
 -0.295  -0.276  -0.274  -0.271  -0.266  -0.262  -0.255  -0.254
 -0.252
 -- Virtual --
 -0.072  -0.057  -0.032  -0.005  -0.004   0.008   0.014   0.019
  0.022   0.027   0.031   0.034   0.038   0.061   0.078   0.082
  0.092   0.117   0.126   0.137   0.151   0.154   0.155   0.157
  0.161   0.165   0.166   0.169   0.170   0.174   0.175   0.182
  0.184   0.188   0.191   0.192   0.195   0.196   0.200   0.202
  0.203   0.206   0.206   0.207   0.210   0.211   0.214   0.219
  0.220   0.222   0.224   0.226   0.227   0.228   0.228   0.235
  0.239   0.239   0.241   0.246   0.250   0.251   0.251   0.252
  0.253   0.255   0.256   0.261   0.267   0.269   0.270   0.271
  0.274   0.275   0.284   0.287   0.289   0.293   0.295   0.298
  0.301   0.305   0.313   0.313   0.315   0.320   0.322   0.325
  0.328   0.331   0.335   0.339   0.352   0.354   0.359   0.363
  0.367   0.378   0.386   0.387   0.396   0.401   0.401   0.405
  0.408   0.413   0.420   0.425   0.427   0.429   0.433   0.439
  0.448   0.453   0.461   0.463   0.465   0.476   0.477   0.481
  0.486   0.491   0.492   0.497   0.498   0.500   0.504   0.504
  0.507   0.508   0.513   0.523   0.525   0.526   0.529   0.529
  0.535   0.537   0.538   0.539   0.543   0.547   0.549   0.552
  0.555   0.556   0.558   0.561   0.565   0.566   0.568   0.573
  0.577   0.578   0.580   0.582   0.585   0.585   0.587   0.588
  0.588   0.592   0.593   0.596   0.600   0.601   0.605   0.606
  0.609   0.609   0.613   0.617   0.619   0.620   0.623   0.624
  0.626   0.628   0.631   0.633   0.634   0.636   0.639   0.645
  0.651   0.652   0.654   0.655   0.658   0.661   0.664   0.666
  0.673   0.678   0.683   0.685   0.686   0.689   0.691   0.699
  0.705   0.707   0.709   0.712   0.713   0.719   0.720   0.723
  0.727   0.730   0.734   0.735   0.740   0.749   0.752   0.753
  0.756   0.760   0.762   0.765   0.766   0.768   0.772   0.775
  0.778   0.780   0.785   0.787   0.793   0.803   0.805   0.810
  0.815   0.823   0.825   0.828   0.833   0.843   0.844   0.849
  0.851   0.862   0.863   0.874   0.875   0.885   0.888   0.891
  0.901   0.905   0.912   0.916   0.921   0.922   0.929   0.935
  0.947   0.954   0.956   0.958   0.960   0.962   0.966   0.972
  0.975   0.978   0.983   0.986   0.990   0.994   0.995   0.998
  1.003   1.005   1.006   1.010   1.012   1.017   1.019   1.021
  1.025   1.030   1.034   1.037   1.038   1.044   1.045   1.049
  1.052   1.054   1.061   1.064   1.068   1.071   1.074   1.077
  1.078   1.080   1.084   1.084   1.085   1.087   1.095   1.098
  1.104   1.106   1.110   1.112   1.117   1.118   1.123   1.125
  1.128   1.132   1.134   1.137   1.138   1.142   1.144   1.148
  1.153   1.154   1.161   1.161   1.169   1.174   1.178   1.181
  1.191   1.199   1.206   1.210   1.215   1.221   1.224   1.233
  1.235   1.239   1.244   1.247   1.251   1.259   1.267   1.270
  1.274   1.279   1.281   1.289   1.297   1.299   1.307   1.310
  1.315   1.318   1.320   1.322   1.337   1.338   1.339   1.344
  1.348   1.351   1.361   1.365   1.375   1.378   1.394   1.395
  1.397   1.400   1.403   1.412   1.417   1.423   1.432   1.434
  1.440   1.442   1.446   1.448   1.454   1.457   1.458   1.464
  1.470   1.474   1.479   1.484   1.500   1.513   1.514   1.517
  1.519   1.520   1.520   1.523   1.529   1.531   1.533   1.533
  1.536   1.539   1.543   1.550   1.556   1.559   1.561   1.562
  1.565   1.570   1.570   1.575   1.582   1.586   1.588   1.598
  1.601   1.605   1.617   1.620   1.625   1.635   1.649   1.654
  1.658   1.667   1.672   1.693   1.698   1.706   1.721   1.741
  1.751   1.755   1.764   1.784   1.798   1.802   1.808   1.809
  1.811   1.815   1.817   1.827   1.829   1.832   1.837   1.849
  1.855   1.856   1.866   1.874   1.878   1.897   1.903   1.906
  1.907   1.915   1.917   1.921   1.922   1.925   1.930   1.935
  1.941   1.945   1.947   1.954   1.956   1.958   1.960   1.968
  1.971   1.973   1.980   1.987   1.987   1.991   1.993   2.000
  2.006   2.007   2.020   2.023   2.029   2.042   2.048   2.052
  2.062   2.067   2.071   2.074   2.075   2.081   2.086   2.094
  2.095   2.113   2.114   2.122   2.131   2.137   2.143   2.154
  2.162   2.168   2.170   2.190   2.193   2.198   2.201   2.206
  2.207   2.208   2.215   2.220   2.229   2.231   2.231   2.234
  2.236   2.239   2.249   2.252   2.254   2.256   2.263   2.271
  2.273   2.280   2.282   2.287   2.290   2.291   2.297   2.304
  2.306   2.320   2.321   2.325   2.326   2.340   2.343   2.344
  2.347   2.350   2.353   2.358   2.359   2.364   2.365   2.373
  2.381   2.381   2.384   2.393   2.394   2.399   2.400   2.410
  2.415   2.418   2.420   2.423   2.426   2.433   2.437   2.442
  2.445   2.446   2.453   2.457   2.470   2.473   2.476   2.480
  2.483   2.496   2.497   2.503   2.506   2.511   2.521   2.533
  2.548   2.558   2.581   2.598   2.609   2.624   2.635   2.645
  2.645   2.646   2.665   2.687   2.689   2.713   2.715   2.728
  2.729   2.734   2.742   2.744   2.746   2.750   2.766   2.767
  2.770   2.784   2.785   2.791   2.793   2.794   2.795   2.807
  2.810   2.816   2.824   2.830   2.845   2.846   2.853   2.855
  2.859   2.879   2.885   2.908   2.910   2.912   2.913   2.920
  2.929   2.933   2.939   2.944   2.952   2.960   2.972   2.980
  2.988   2.995   3.007   3.010   3.013   3.053   3.070   3.080
  3.083   3.105   3.162   3.212   3.221   3.248   3.256   3.258
  3.404   3.436   3.445   3.488   3.494   3.494   3.506   3.542
  3.578   3.668   3.680   9.616   9.721  13.159  13.180  13.394
 13.433  13.510  13.525  13.529  13.543  13.556  13.716  13.719
 13.766  13.769  13.790  13.803  13.804  13.814  13.867  13.890
 13.900  13.906  13.920  13.940  13.965  13.997  14.009  14.025
 14.033  14.053  14.122  14.162  14.165  14.191  14.197  14.203
 14.216  14.235  14.255  14.262  14.287  14.305  14.308  14.329
 14.386  14.515  14.518  14.568  14.580  14.581  14.585  14.586
 14.592  19.585
 --------------------------------------------------------------
 
          Ground-State Mulliken Net Atomic Charges

     Atom                 Charge (a.u.)
  ----------------------------------------
      1 N                    -0.201261
      2 C                     0.278509
      3 C                    -0.727934
      4 H                     0.322493
      5 H                     0.319598
      6 H                     0.319724
      7 B                     0.819751
      8 C                    -0.191245
      9 C                     0.018135
     10 C                    -0.353285
     11 H                     0.222953
     12 C                     0.103495
     13 C                    -0.363124
     14 H                     0.223068
     15 C                     0.020657
     16 C                    -0.723997
     17 H                     0.237828
     18 H                     0.236777
     19 H                     0.239623
     20 C                    -0.767261
     21 H                     0.255301
     22 H                     0.242901
     23 H                     0.243878
     24 C                    -0.755388
     25 H                     0.246551
     26 H                     0.236347
     27 H                     0.235672
     28 C                    -0.162570
     29 C                    -0.422494
     30 H                     0.235003
     31 C                     0.078504
     32 C                    -0.155640
     33 C                    -0.402646
     34 H                     0.241834
     35 C                     0.067223
     36 C                     0.171517
     37 C                    -0.403446
     38 H                     0.252510
     39 C                    -0.070933
     40 C                     0.214216
     41 C                     0.161356
     42 C                    -0.400910
     43 H                     0.254291
     44 C                    -0.236509
     45 H                     0.260265
     46 C                    -0.354202
     47 H                     0.258003
     48 C                    -0.236450
     49 H                     0.259356
     50 C                    -0.356106
     51 H                     0.256609
     52 B                     0.637327
     53 C                    -0.148331
     54 C                    -0.398744
     55 H                     0.240766
     56 C                     0.061315
     57 C                    -0.194700
     58 C                    -0.425283
     59 H                     0.233176
     60 C                     0.082972
     61 C                     0.172263
     62 C                    -0.404511
     63 H                     0.252240
     64 C                    -0.071536
     65 C                     0.214450
     66 C                     0.161313
     67 C                    -0.401956
     68 H                     0.253593
     69 C                    -0.354353
     70 H                     0.257814
     71 C                    -0.236323
     72 H                     0.260118
     73 C                    -0.356409
     74 H                     0.256309
     75 C                    -0.236468
     76 H                     0.258996
     77 C                    -0.214031
     78 C                     0.038324
     79 C                    -0.379365
     80 H                     0.228678
     81 C                     0.105309
     82 C                    -0.362050
     83 H                     0.226569
     84 C                     0.063659
     85 C                    -0.724480
     86 H                     0.239536
     87 H                     0.239752
     88 H                     0.239774
     89 C                    -0.772142
     90 H                     0.251413
     91 H                     0.245594
     92 H                     0.244863
     93 C                    -0.777092
     94 H                     0.253749
     95 H                     0.245166
     96 H                     0.244190
  ----------------------------------------
  Sum of atomic charges =    -0.000000

 -----------------------------------------------------------------
                    Cartesian Multipole Moments
 -----------------------------------------------------------------
    Charge (ESU x 10^10)
                -0.0000
    Dipole Moment (Debye)
         X      -3.1325      Y      -0.3633      Z       9.9502
       Tot      10.4379
    Quadrupole Moments (Debye-Ang)
        XX    -287.9607     XY       0.9883     YY    -281.4136
        XZ      14.5140     YZ       1.8806     ZZ    -314.3416
    Octopole Moments (Debye-Ang^2)
       XXX   -1584.9062    XXY     -19.9140    XYY    -566.3208
       YYY    -117.8286    XXZ     383.6199    XYZ     -24.4405
       YYZ     449.0768    XZZ    -615.7618    YZZ     -38.8067
       ZZZ    1157.8410
    Hexadecapole Moments (Debye-Ang^3)
      XXXX  -20048.6822   XXXY     181.8355   XXYY   -8341.3468
      XYYY      -9.2575   YYYY  -26833.2618   XXXZ    -124.1811
      XXYZ    -182.3508   XYYZ     391.7486   YYYZ      30.9384
      XXZZ   -4886.2376   XYZZ      96.8654   YYZZ   -7524.1998
      XZZZ    -151.5573   YZZZ    -359.7888   ZZZZ   -7769.6482
 -----------------------------------------------------------------
 Calculating analytic gradient of the SCF energy
 -9.856908216031321E-004 -9.856661327218305E-004
 -9.856826576632755E-004 -9.856743175783431E-004
 -9.856919402175457E-004 -9.856650007069694E-004
 -9.856840881132518E-004 -9.856728794989966E-004
 -9.856800212410164E-004 -9.856769534609990E-004
 -9.856541149232221E-004 -9.857028402542915E-004
 -9.856903922448499E-004 -9.856665647822662E-004
 -9.856827498176241E-004 -9.856742593117934E-004
 -9.856573312651122E-004 -9.856996719706838E-004
 -9.856920489769480E-004 -9.856649434179480E-004
 -9.856823408234995E-004 -9.856746617153535E-004
 -9.856485560966462E-004 -9.857084446888791E-004
 -9.856944816531460E-004 -9.856625046168045E-004
 -9.856719721682945E-004 -9.856850229979142E-004
 -9.856565932196790E-004 -9.857003859337029E-004
 -9.856900339931896E-004 -9.856669412392296E-004
 -9.856808388354374E-004 -9.856761625696979E-004
 -9.856572805006843E-004 -9.856996926114788E-004
 -9.856707278355732E-004 -9.856862512933808E-004
 -9.856778015401124E-004 -9.856791940960790E-004
 -9.857069158958926E-004 -9.856501180107340E-004
 -9.856893121760102E-004 -9.856676998692172E-004
 -9.856827666676628E-004 -9.856742319107783E-004
 -9.856728273255331E-004 -9.856841882516861E-004
 -9.856785870698700E-004 -9.856784202838999E-004
 -9.856751257568699E-004 -9.856818850486205E-004
 -9.857204948159231E-004 -9.856364876846984E-004
 -9.856845261853513E-004 -9.856724817412189E-004
 -9.856836622407297E-004 -9.856733474439298E-004
 -9.856664940374816E-004 -9.856904894155116E-004
 -9.856946614876124E-004 -9.856623511852469E-004
 -9.856789128915096E-004 -9.856780955838625E-004
 -9.856967957415253E-004 -9.856601883813224E-004
 -9.857094618247327E-004 -9.856475346989889E-004
 -9.856768006624261E-004 -9.856802084889018E-004
 -9.857189292893237E-004 -9.856380624696421E-004
 -9.856815912796879E-004 -9.856753911920552E-004
 -9.856786707817269E-004 -9.856783396756613E-004
 -9.856665429889995E-004 -9.856904591627109E-004
 -9.856978293987463E-004 -9.856591357693789E-004
 -9.856762700217441E-004 -9.856807277958072E-004
 -9.856993512227384E-004 -9.856576609094515E-004
 -9.857195390734754E-004 -9.856374664903964E-004
 -9.856802018514152E-004 -9.856768077038042E-004
 -9.856906732582569E-004 -9.856663105579559E-004
 -9.856664708645468E-004 -9.856905096828563E-004
 -9.856783314207891E-004 -9.856786585955598E-004
 -9.856512404277588E-004 -9.857057687320541E-004
 -9.856868596498927E-004 -9.856700989702993E-004
 -9.856768839621400E-004 -9.856801139522251E-004
 -9.856874556197432E-004 -9.856695531032746E-004
 -9.856842937414035E-004 -9.856726990184772E-004
 -9.856696700076962E-004 -9.856873214467549E-004
 -9.856866058218911E-004 -9.856703784341728E-004
 -9.856831015643162E-004 -9.856738886019273E-004
 -9.856891060480788E-004 -9.856678808691825E-004
 -9.856888038638470E-004 -9.856681849740813E-004
 -9.856752425474922E-004 -9.856817504114506E-004
 -9.856739324426312E-004 -9.856830750977230E-004
 -9.856869023527892E-004 -9.856700754797951E-004
 -9.856920624925990E-004 -9.856649202099083E-004
 -9.856677384400966E-004 -9.856892639204665E-004
 -9.856803029942433E-004 -9.856766849596222E-004
 -9.856910285019303E-004 -9.856659668938154E-004
 -9.856737920630201E-004 -9.856832031265310E-004
 -9.857007402501985E-004 -9.856562501816691E-004
 -9.856887129546584E-004 -9.856682832992951E-004
 -9.856859707255553E-004 -9.856710182774599E-004
 -9.856875195669926E-004 -9.856694682072009E-004
 -9.857072386121454E-004 -9.856497273303992E-004
 -9.856924400456794E-004 -9.856645864600130E-004
 -9.856643305034762E-004 -9.856926726462929E-004
 -9.856899219628157E-004 -9.856670723286224E-004
 -9.856776852172977E-004 -9.856793251009715E-004
 -9.856721082502804E-004 -9.856849052151746E-004
 -9.856922402890315E-004 -9.856647535909787E-004
 -9.856715456464718E-004 -9.856854449931684E-004
 -9.856857365378375E-004 -9.856712528164833E-004
 -9.856887532663239E-004 -9.856682269840443E-004
 -9.856823598396870E-004 -9.856746498949182E-004
 -9.856802775958034E-004 -9.856766982150765E-004
 -9.856830929604091E-004 -9.856738993281966E-004
 -9.856822580361275E-004 -9.856747281777780E-004
 -9.856791139551966E-004 -9.856779437280288E-004
 -9.856768187790793E-004 -9.856801782552416E-004
 -9.856892760232213E-004 -9.856677160455971E-004
 -9.856720600215228E-004 -9.856850103130018E-004
 -9.856721843713536E-004 -9.856848194933377E-004
 -9.856902830188820E-004 -9.856666975577172E-004
 -9.856785066884076E-004 -9.856785264319263E-004
 -9.856821112020774E-004 -9.856748895690059E-004
 -9.857097477351244E-004 -9.856472482627709E-004
 -9.856663241767504E-004 -9.856907491939857E-004
 -9.856707073633594E-004 -9.856862907589542E-004
 -9.856747689591535E-004 -9.856822159184501E-004
 -9.856733544891360E-004 -9.856837113758220E-004
 -9.856839823307395E-004 -9.856730234783586E-004
 -9.856897399624794E-004 -9.856672414050849E-004
 -9.856752364683361E-004 -9.856818368977232E-004
 -9.856779765578985E-004 -9.856790343885668E-004
 -9.856940049958549E-004 -9.856629765726713E-004
 -9.856819830223089E-004 -9.856750490677866E-004
 -9.856787342128902E-004 -9.856782660694441E-004
 -9.857107103115100E-004 -9.856462849295031E-004
 -9.856679347295769E-004 -9.856891388749381E-004
 -9.856840087231582E-004 -9.856729761701362E-004
 -9.856841794773584E-004 -9.856728420383051E-004
 -9.856759249649784E-004 -9.856811417369238E-004
 -9.857011419877925E-004 -9.856558762235046E-004
 -9.857194007917571E-004 -9.856375839606790E-004
 -9.856850023194962E-004 -9.856720603406222E-004
 -9.856778700583788E-004 -9.856791164844939E-004
 -9.856854079535750E-004 -9.856715746109660E-004
 -9.856801992370323E-004 -9.856768146895712E-004
 -9.856784541985317E-004 -9.856785643794065E-004
 -9.857104841044556E-004 -9.856465375028983E-004
 -9.856723452600221E-004 -9.856847328636182E-004
 -9.856768020071562E-004 -9.856801809142678E-004
 -9.856427396205197E-004 -9.857142823428643E-004
 -9.856890475305521E-004 -9.856680057231050E-004
 -9.856762343354488E-004 -9.856807405997814E-004
 -9.856847096036711E-004 -9.856723124517907E-004
 -9.856697854682274E-004 -9.856872897086872E-004
 -9.856545133329151E-004 -9.857024983447021E-004
 -9.857171852457193E-004 -9.856398022386244E-004
 -9.856646699340061E-004 -9.856924015909311E-004
 -9.856771495245600E-004 -9.856798404728317E-004
 -9.856846515847869E-004 -9.856723268951266E-004
 -9.856785472965870E-004 -9.856784677980265E-004
 -9.856808821419080E-004 -9.856760730621345E-004
 -9.856505941068126E-004 -9.857064472298786E-004
 -9.856873283939417E-004 -9.856697304412515E-004
 -9.856736924794172E-004 -9.856832688553358E-004
 -9.856934116383735E-004 -9.856636039760186E-004
 -9.856805298740470E-004 -9.856764881980068E-004
 -9.856769653020139E-004 -9.856800412349326E-004
 -9.857100091898395E-004 -9.856469730399936E-004
 -9.856779122440194E-004 -9.856791485409191E-004
 -9.856790976167560E-004 -9.856779298908209E-004
 -9.856619004734624E-004 -9.856950588314230E-004
 -9.856869825745690E-004 -9.856700558234603E-004
 -9.856736765639976E-004 -9.856832918474260E-004
 -9.856509300897570E-004 -9.857061048564734E-004
 -9.856867071721786E-004 -9.856703403199117E-004
 -9.856790408929094E-004 -9.856779362424606E-004
 -9.856938661390177E-004 -9.856631453919985E-004
 -9.856828609871682E-004 -9.856741442118041E-004
 -9.856770780886401E-004 -9.856799332916971E-004
 -9.857098520511720E-004 -9.856471338503515E-004
 -9.856780764306687E-004 -9.856789770517041E-004
 -9.856741673086563E-004 -9.856828615153878E-004
 -9.856619237919933E-004 -9.856950375241986E-004
 -9.856856411443007E-004 -9.856713935166683E-004
 -9.856829733565346E-004 -9.856740330431420E-004
 -9.856780126043371E-004 -9.856790032025746E-004
 -9.856815232392126E-004 -9.856755277191582E-004
 -9.856706282171180E-004 -9.856863731898355E-004
 -9.856813661792080E-004 -9.856756232129412E-004
 -9.856728702799561E-004 -9.856841943167740E-004
 -9.856882020549864E-004 -9.856687945504945E-004
 -9.856722878932296E-004 -9.856846952261593E-004
 -9.856719700847053E-004 -9.856851013917989E-004
 -9.856787573115768E-004 -9.856782450853778E-004
 -9.856625237776419E-004 -9.856944589618226E-004
 -9.856756373209856E-004 -9.856813935739377E-004
 -9.856823429411482E-004 -9.856746533110376E-004
 -9.856473423818862E-004 -9.857096531277073E-004
 -9.856654903841603E-004 -9.856915819857243E-004
 -9.856803148425586E-004 -9.856766743536734E-004
 -9.856764629719665E-004 -9.856805265044972E-004
 -9.856799438859260E-004 -9.856771111781445E-004
 -9.856713656749437E-004 -9.856856334243087E-004
 -9.856661228277931E-004 -9.856908677195709E-004
 -9.856790728783120E-004 -9.856779953661267E-004
 -9.856688773326042E-004 -9.856881252480610E-004
 -9.856649212868619E-004 -9.856920580581601E-004
 -9.856877923221747E-004 -9.856692365046433E-004
 -9.856808372727471E-004 -9.856761611194843E-004
 -9.856495388759193E-004 -9.857074629435862E-004
 -9.856709477858243E-004 -9.856861224450083E-004
 -9.856827354179740E-004 -9.856742331542929E-004
 -9.856736738137475E-004 -9.856833465959817E-004
 -9.856712073689853E-004 -9.856858669167728E-004
 -9.857061258040959E-004 -9.856508806343424E-004
 -9.856406166068976E-004 -9.857163672325668E-004
 -9.856753288043712E-004 -9.856817387384239E-004
 -9.856784079728953E-004 -9.856785751322288E-004
 -9.856717066729272E-004 -9.856852722369839E-004
 -9.856759505943466E-004 -9.856810643218241E-004
 -9.856810604495525E-004 -9.856759491682907E-004
 -9.856463406792092E-004 -9.857106828044184E-004
 -9.856705297601783E-004 -9.856865469851544E-004
 -9.856750002971754E-004 -9.856819700086903E-004
 -9.857119799757358E-004 -9.856450464943256E-004
 -9.856915839589586E-004 -9.856654750883796E-004
 -9.856722323510138E-004 -9.856847345621521E-004
 -9.856721006270151E-004 -9.856849229468642E-004
 -9.856743612890902E-004 -9.856827112473632E-004
 -9.856597007665692E-004 -9.856973008190053E-004
 -9.856352492039480E-004 -9.857217446058875E-004
 -9.856694254652702E-004 -9.856876408971798E-004
 -9.856771610024645E-004 -9.856798182423865E-004
 -9.856714146508781E-004 -9.856855696792088E-004
 -9.856810273216174E-004 -9.856759880051973E-004
 -9.856796429711554E-004 -9.856773539925335E-004
 -9.856453976507097E-004 -9.857115906680813E-004
 -9.856753167459716E-004 -9.856817430445588E-004
 -9.856796100860461E-004 -9.856774155620905E-004
 -9.856945648677124E-004 -9.856624002468511E-004
 -9.856882167433563E-004 -9.856688183505907E-004
 -9.856807836097596E-004 -9.856761628993297E-004
 -9.857060619902936E-004 -9.856509866966910E-004
 -9.856897099623117E-004 -9.856673531057319E-004
 -9.856763321002108E-004 -9.856806328083641E-004
 -9.856621820385821E-004 -9.856948370157031E-004
 -9.856802735694048E-004 -9.856767452806824E-004
 -9.856807006036546E-004 -9.856763022974518E-004
 -9.856458563773077E-004 -9.857111329228036E-004
 -9.856768759343288E-004 -9.856801817559053E-004
 -9.856740826396685E-004 -9.856829443695590E-004
 -9.856940979002977E-004 -9.856628685924866E-004
 -9.856878914361452E-004 -9.856691419673881E-004
 -9.856708593160564E-004 -9.856860887804413E-004
 -9.857048739727739E-004 -9.856521653644904E-004
 -9.856884831948986E-004 -9.856685780705748E-004
 -9.856818950145358E-004 -9.856750683088296E-004
 -9.856633081592155E-004 -9.856937063772121E-004
 -9.856819407867495E-004 -9.856750754279353E-004
 -9.856761399330172E-004 -9.856808571777078E-004
 -9.856793893699236E-004 -9.856775964055633E-004
 -9.856886891024411E-004 -9.856683087253123E-004
 -9.856242790348808E-004 -9.857326991952768E-004
 -9.856765092230548E-004 -9.856804862432961E-004
 -9.856848160379368E-004 -9.856721700838118E-004
 -9.856793934237607E-004 -9.856776233576748E-004
 -9.856791314641850E-004 -9.856778692184135E-004
 -9.856854075575244E-004 -9.856715612801517E-004
 -9.856532596927443E-004 -9.857037319434556E-004
 -9.856778631777440E-004 -9.856791325271524E-004
 -9.856698581761098E-004 -9.856871194073552E-004
 -9.856359467891806E-004 -9.857210552716685E-004
 -9.856770051010235E-004 -9.856799966577714E-004
 -9.856570979211807E-004 -9.856998903268687E-004
 -9.856801549104816E-004 -9.856768878882143E-004
 -9.856794318248098E-004 -9.856775746871316E-004
 -9.856933669894008E-004 -9.856635876836634E-004
 -9.856591682142924E-004 -9.856978615224656E-004
 -9.856777651691003E-004 -9.856792412417711E-004
 -9.856664364229929E-004 -9.856905259744381E-004
 -9.856459130252401E-004 -9.857110826473688E-004
 -9.856769204384689E-004 -9.856800767006275E-004
 -9.856426744315058E-004 -9.857143147425078E-004
 -9.856971549233341E-004 -9.856598294013528E-004
 -9.856802846244521E-004 -9.856767044969248E-004
 -9.857008205319806E-004 -9.856561809626692E-004
 -9.856665369694375E-004 -9.856904275625949E-004
 -9.856779480008533E-004 -9.856790469970874E-004
 -9.856711915005041E-004 -9.856858134430959E-004
 -9.856707498725650E-004 -9.856862415563445E-004
 -9.856682567129069E-004 -9.856887339262815E-004
 -9.856711000481744E-004 -9.856858929077716E-004
 -9.856697636794333E-004 -9.856872272534726E-004
 -9.856875199172927E-004 -9.856694729684975E-004
 -9.856705993794388E-004 -9.856863910093982E-004
 -9.856573083714957E-004 -9.856996767167879E-004
 -9.856797035414856E-004 -9.856773095758993E-004
 -9.857031778917839E-004 -9.856538152195745E-004
 -9.856636121202045E-004 -9.856934083939202E-004
 -9.856780683830605E-004 -9.856789348526320E-004
 -9.856857904932328E-004 -9.856712118891094E-004
 -9.856623557825536E-004 -9.856946354468645E-004
 -9.856709131114178E-004 -9.856860778877593E-004
 -9.856762904759755E-004 -9.856806992843822E-004
 -9.856630155987253E-004 -9.856939712494424E-004
 -9.856846607555435E-004 -9.856723326711163E-004
 -9.856768072585189E-004 -9.856801777368778E-004
 -9.856875532551442E-004 -9.856694541837353E-004
 -9.856789520788581E-004 -9.856780581678354E-004
 -9.856614635018867E-004 -9.856955139249380E-004
 -9.856632542370454E-004 -9.856937615729203E-004
 -9.856783507263911E-004 -9.856786488007985E-004
 -9.856592513214442E-004 -9.856977339436003E-004
 -9.856691889494073E-004 -9.856878019218419E-004
 -9.856926890214272E-004 -9.856643118613844E-004
 -9.856777456189599E-004 -9.856792506841025E-004
 -9.856698426902251E-004 -9.856871472051496E-004
 -9.856642898993411E-004 -9.856927121918914E-004
 -9.856781241313081E-004 -9.856788734338066E-004
 Gradient of SCF Energy
            1           2           3           4           5           6
    1   0.0004667  -0.0009680   0.0020095  -0.0140449   0.0044644   0.0077003
    2  -0.0001577  -0.0000583   0.0003510   0.0022026  -0.0119665   0.0094315
    3  -0.0197337   0.0181047  -0.0151146   0.0066375   0.0061855   0.0060166
            7           8           9          10          11          12
    1   0.0022695  -0.0036158   0.0010135   0.0046067  -0.0001738   0.0075448
    2  -0.0007585   0.0006463   0.0013229   0.0015763  -0.0000484  -0.0001128
    3  -0.0008070  -0.0062335  -0.0065691  -0.0033077   0.0005585   0.0053575
           13          14          15          16          17          18
    1  -0.0013171  -0.0010392  -0.0090393   0.0013565  -0.0010483  -0.0004277
    2  -0.0005433  -0.0005887  -0.0012494   0.0004786  -0.0000462   0.0001928
    3   0.0052332   0.0034374  -0.0003797   0.0006329   0.0006644  -0.0005585
           19          20          21          22          23          24
    1  -0.0003594   0.0087568  -0.0045266  -0.0004488  -0.0017017   0.0019621
    2  -0.0008143   0.0014075   0.0043515   0.0005955  -0.0062828   0.0001207
    3  -0.0007162   0.0017457  -0.0032580   0.0038701  -0.0018288  -0.0078498
           25          26          27          28          29          30
    1  -0.0020332   0.0007072  -0.0003287   0.0010441   0.0001375   0.0035333
    2  -0.0006669  -0.0024249   0.0030032  -0.0057729   0.0001436   0.0000074
    3   0.0015159   0.0027158   0.0042355   0.0001181  -0.0005091   0.0017756
           31          32          33          34          35          36
    1   0.0024154  -0.0008419  -0.0007699  -0.0032482  -0.0042029   0.0008202
    2   0.0046318  -0.0015965  -0.0017472  -0.0005766   0.0047828  -0.0050085
    3  -0.0001536  -0.0003600  -0.0004239  -0.0003898  -0.0033017   0.0018879
           37          38          39          40          41          42
    1  -0.0064619   0.0010176  -0.0014213   0.0001133  -0.0017126   0.0074113
    2  -0.0013320   0.0001261  -0.0014168  -0.0005426  -0.0044393  -0.0003391
    3  -0.0019622   0.0008257  -0.0010173   0.0003506  -0.0002710   0.0026837
           43          44          45          46          47          48
    1  -0.0010709   0.0062880  -0.0025422  -0.0000831  -0.0003949  -0.0052447
    2   0.0002384   0.0030871  -0.0016394   0.0086281  -0.0032437   0.0021571
    3   0.0000875   0.0018113  -0.0003530  -0.0015232   0.0005085  -0.0021269
           49          50          51          52          53          54
    1   0.0024152   0.0012170   0.0005607  -0.0028021  -0.0011358  -0.0009960
    2  -0.0012297   0.0088421  -0.0029847   0.0002185   0.0007586   0.0017765
    3   0.0014392  -0.0006800   0.0009853  -0.0004197  -0.0001385  -0.0000388
           55          56          57          58          59          60
    1  -0.0036774  -0.0043713   0.0023721   0.0007357   0.0026490   0.0044795
    2   0.0003292  -0.0083580   0.0045907   0.0005622   0.0003989  -0.0064226
    3  -0.0002903  -0.0023731   0.0009705  -0.0007040   0.0010825  -0.0011415
           61          62          63          64          65          66
    1   0.0014580  -0.0068203   0.0006593  -0.0008277  -0.0002971  -0.0025280
    2   0.0044878   0.0010369   0.0004903  -0.0022827   0.0016785   0.0044370
    3   0.0007115  -0.0009491   0.0004959  -0.0006580   0.0010013   0.0013585
           67          68          69          70          71          72
    1   0.0084060  -0.0016728   0.0008889  -0.0006808   0.0066594  -0.0030071
    2   0.0024118  -0.0001739  -0.0076117   0.0034679  -0.0013613   0.0016742
    3   0.0014375   0.0001978  -0.0017419   0.0009935   0.0005412   0.0003044
           73          74          75          76          77          78
    1   0.0016355   0.0003566  -0.0055524   0.0022667   0.0016283   0.0044743
    2  -0.0076392   0.0031904  -0.0018827   0.0015721   0.0006118   0.0002530
    3  -0.0018159   0.0010112  -0.0012770   0.0008012   0.0003566  -0.0025922
           79          80          81          82          83          84
    1   0.0000236   0.0003135  -0.0057124  -0.0047565  -0.0001838   0.0030276
    2   0.0000368   0.0000023  -0.0001933   0.0000997  -0.0000075   0.0003857
    3  -0.0069779   0.0018145  -0.0022290   0.0026592   0.0005623   0.0059159
           85          86          87          88          89          90
    1  -0.0023857   0.0006344   0.0010483   0.0010844  -0.0048096  -0.0004444
    2  -0.0001303   0.0000318  -0.0004149   0.0004638  -0.0004622   0.0000506
    3  -0.0020740   0.0017664   0.0005052   0.0005267  -0.0025765   0.0007181
           91          92          93          94          95          96
    1   0.0026527   0.0027176   0.0060839   0.0005124  -0.0023694  -0.0025018
    2   0.0036593  -0.0029294   0.0009523   0.0000107   0.0021754  -0.0026818
    3   0.0006575   0.0010320  -0.0065465   0.0050172   0.0010998   0.0010488
 Max gradient component =       1.973E-02
 RMS gradient           =       3.694E-03
 Computing fast IEFPCM-SWIG gradient.
 Updating gradient with PCM contributions...
 -- total gradient after adding PCM contribution --
---------------------------------------------------
  Atom         X              Y              Z     
---------------------------------------------------
   1       0.000159      -0.000153       0.004808
   2       0.000104       0.000114      -0.005598
   3       0.000151       0.000106       0.000870
   4       0.000373      -0.000053       0.000782
   5       0.000001       0.000268       0.000695
   6      -0.000052      -0.000346       0.000651
   7       0.001450       0.000046      -0.006582
   8      -0.002406      -0.000088       0.000103
   9       0.000332       0.000465      -0.002565
  10       0.000965       0.000201      -0.000738
  11       0.000053       0.000048       0.000131
  12       0.001162      -0.000074       0.000903
  13      -0.001291      -0.000270       0.001970
  14       0.000217      -0.000039       0.000623
  15      -0.000115       0.000381      -0.000441
  16       0.000399       0.000287       0.001188
  17      -0.000194      -0.000203       0.000179
  18       0.000208      -0.000262      -0.000302
  19       0.000138       0.000027      -0.000112
  20       0.000061       0.000273       0.001259
  21       0.000017      -0.000132      -0.000209
  22       0.000096      -0.000279       0.000353
  23      -0.000212      -0.000052       0.000212
  24       0.000675       0.000090      -0.000314
  25       0.000150      -0.000040       0.000512
  26      -0.000327      -0.000772       0.000116
  27      -0.000618       0.000643       0.000224
  28      -0.000910      -0.000881       0.000385
  29       0.000042      -0.000635       0.000843
  30       0.000349       0.000702      -0.000463
  31      -0.000255      -0.000902      -0.001499
  32      -0.000105       0.000382       0.000666
  33      -0.000954      -0.000992      -0.000051
  34       0.000126       0.000494       0.000358
  35      -0.001036      -0.000547      -0.001709
  36      -0.000630      -0.000370       0.000378
  37      -0.001178      -0.000835       0.000326
  38      -0.000045       0.000133       0.000167
  39      -0.001412      -0.002604      -0.001183
  40       0.000132       0.000538       0.000115
  41      -0.000275       0.000076      -0.000615
  42       0.001640      -0.000448       0.001331
  43       0.000463       0.000308       0.000153
  44       0.001506       0.000726       0.000652
  45       0.000198       0.000042       0.000138
  46       0.000122       0.002058      -0.000155
  47       0.000029       0.000218      -0.000040
  48      -0.000677       0.000466       0.000187
  49       0.000037       0.000031       0.000114
  50       0.000666       0.002320       0.000406
  51       0.000298       0.000264       0.000200
  52       0.000223       0.000125      -0.001135
  53      -0.000091      -0.000813       0.000205
  54      -0.001150       0.000956       0.000050
  55       0.000020      -0.000429       0.000373
  56      -0.001752      -0.002513      -0.001409
  57       0.000324       0.000025       0.000904
  58       0.000442       0.000491       0.000457
  59       0.000056      -0.000312      -0.000482
  60       0.000939      -0.001788      -0.001510
  61       0.000018      -0.000348      -0.000573
  62      -0.001349       0.001174       0.000170
  63      -0.000165       0.000196       0.000146
  64      -0.001000      -0.001126      -0.000798
  65      -0.000255       0.000608       0.000704
  66      -0.000947       0.000374       0.000313
  67       0.002247       0.001628       0.001138
  68       0.000363       0.000330       0.000089
  69       0.000562      -0.001198       0.000003
  70       0.000003       0.000052       0.000094
  71       0.001388       0.000482       0.000642
  72       0.000190       0.000235       0.000083
  73       0.000513      -0.001259      -0.000211
  74       0.000294       0.000063       0.000131
  75      -0.000900       0.000210      -0.000020
  76       0.000034       0.000204       0.000022
  77      -0.000272       0.000509      -0.000043
  78       0.001690       0.000319      -0.001045
  79      -0.000366       0.000145      -0.001682
  80       0.000265      -0.000031      -0.000038
  81      -0.001657       0.000025      -0.000514
  82      -0.001329       0.000152       0.001329
  83      -0.000118      -0.000028       0.000235
  84       0.000721       0.000090       0.000685
  85      -0.000401      -0.000075      -0.000432
  86       0.000360      -0.000013       0.000004
  87      -0.000038      -0.000112       0.000441
  88       0.000022       0.000129       0.000469
  89      -0.000163       0.000100       0.000624
  90       0.000043       0.000039       0.000202
  91       0.000269       0.000271       0.000035
  92       0.000164      -0.000047       0.000257
  93      -0.000747       0.000255       0.000752
  94       0.000415      -0.000011       0.000401
  95       0.000694       0.001075      -0.000263
  96       0.000813      -0.000886      -0.000224
---------------------------------------------------
 Number of fixed atoms: 0
 Gradient time:  CPU 1035.11 s  wall 293.87 s
 Geometry Optimization Parameters
   NAtoms,    NIC,     NZ,  NCons,   NDum,   NFix, NCnnct, MaxDiis
       96     756      96       0       0       0       0       0


** GEOMETRY OPTIMIZATION IN DELOCALIZED INTERNAL COORDINATES **
   Searching for a Minimum

   Optimization Cycle:   1

                       Coordinates (Angstroms)
     ATOM                X               Y               Z
      1  N         0.0000000000    0.0000000000    0.0000000000
      2  C         0.0000000000    0.0000000000    1.1410150000
      3  C         0.0123434575    0.0000000000    2.5844702245
      4  H        -0.9935934505    0.1628964370    2.9672988413
      5  H         0.3836123253   -0.9562205150    2.9491406613
      6  H         0.6643206151    0.7948006741    2.9434226454
      7  B         0.3972645675    0.0474171969   -1.5666674311
      8  C        -0.8654843410    0.0155879092   -2.5674318277
      9  C        -2.2022767296   -0.2807237078   -2.2449171054
     10  C        -3.1811537698   -0.2878932735   -3.2346485057
     11  H        -4.2037162820   -0.5230931135   -2.9561385593
     12  C        -2.8926177558   -0.0184026364   -4.5624987107
     13  C        -1.5721816051    0.2464073159   -4.8843022675
     14  H        -1.3073387849    0.4369542249   -5.9191153361
     15  C        -0.5681279885    0.2635504526   -3.9217176398
     16  C        -3.9738962779   -0.0186089364   -5.6028269991
     17  H        -3.5601704567   -0.0339100743   -6.6106705927
     18  H        -4.6278985279   -0.8856468406   -5.5005614858
     19  H        -4.6032083394    0.8701348876   -5.5224398191
     20  C         0.8335293130    0.5433767753   -4.3949243009
     21  H         1.5713297346   -0.1102042665   -3.9295355173
     22  H         0.9096898318    0.4013652141   -5.4731125213
     23  H         1.1360646511    1.5690502499   -4.1788594599
     24  C        -2.6649369280   -0.6286842979   -0.8516188524
     25  H        -3.7101027749   -0.9375663237   -0.8656184923
     26  H        -2.0997174763   -1.4549273862   -0.4185509505
     27  H        -2.5997116539    0.2185951568   -0.1668837390
     28  C         1.3249306170   -1.2728899928   -1.6220512622
     29  C         0.7393509505   -2.5196628270   -1.8490319011
     30  H        -0.2981681422   -2.5780174757   -2.1608849921
     31  C         1.4645751922   -3.6751097909   -1.6246418432
     32  C         2.6809136369   -1.1979054271   -1.2386630380
     33  C         3.4097081136   -2.3776649819   -1.0168467703
     34  H         4.4390443396   -2.3140150095   -0.6794895693
     35  C         2.8034700497   -3.6033817754   -1.1761581681
     36  C         3.2571133281   -4.9602296268   -0.8626516168
     37  C         4.3854938332   -5.5053523501   -0.3104652456
     38  H         5.2409985150   -4.8978462607   -0.0415284440
     39  C         2.1761080819   -5.8120256987   -1.1587913555
     40  C         2.1757174984   -7.1830146430   -0.9274519966
     41  C         1.0678718133   -5.0860695004   -1.6366375778
     42  C        -0.0850646790   -5.7694069170   -1.9192472897
     43  H        -0.9744786415   -5.2652934695   -2.2762732256
     44  C        -0.1063631179   -7.1709345494   -1.7248101161
     45  H        -1.0167748250   -7.7101931281   -1.9522868072
     46  C         0.9772809334   -7.8666928968   -1.2433722462
     47  H         0.9082448692   -8.9374735294   -1.0947774205
     48  C         4.4176349847   -6.9007095259   -0.0705796912
     49  H         5.3090627301   -7.3285532570    0.3699114698
     50  C         3.3579638885   -7.7241417666   -0.3654042508
     51  H         3.4228087612   -8.7846910657   -0.1548500557
     52  B         3.3571041353    0.1763021862   -1.0151565368
     53  C         2.5772065885    1.4890470927   -1.2647083136
     54  C         3.2231438034    2.7259470265   -1.0960590273
     55  H         4.2850136749    2.7487355066   -0.8742900897
     56  C         2.5003590730    3.8952651600   -1.1436676647
     57  C         1.1940160258    1.4526328435   -1.5301246065
     58  C         0.4683716029    2.6455746482   -1.5810448664
     59  H        -0.6020748580    2.6167890283   -1.7592782293
     60  C         1.1040574697    3.8519401821   -1.3633197996
     61  C         2.8787373392    5.2818941653   -0.8589947640
     62  C         4.0408130049    5.9267720120   -0.5307368774
     63  H         4.9893190150    5.4062235937   -0.4831166193
     64  C         1.6836015446    6.0256554842   -0.8817895512
     65  C         1.5965407855    7.3761718013   -0.5599344315
     66  C         0.5773491478    5.2099449786   -1.1890695801
     67  C        -0.6702826658    5.7756237974   -1.1789138913
     68  H        -1.5613752623    5.1980113257   -1.3915939542
     69  C         0.2970332794    7.9361400717   -0.5633297482
     70  H         0.1562205200    8.9816189376   -0.3170488813
     71  C        -0.7901645669    7.1503898970   -0.8645535642
     72  H        -1.7775840192    7.5935460339   -0.8536616748
     73  C         2.8135633151    8.0219421509   -0.2337832466
     74  H         2.8178955583    9.0743382801    0.0226610799
     75  C         3.9882464190    7.3093843523   -0.2289442083
     76  H         4.9092678949    7.8166318466    0.0279530313
     77  C         4.8208288038    0.2417031549   -0.4440147657
     78  C         5.0256856272    0.2971227881    0.9373494319
     79  C         6.3186580118    0.3549888164    1.4463310420
     80  H         6.4647401031    0.3957948862    2.5210267324
     81  C         7.4264010190    0.3586285794    0.6112035184
     82  C         7.2121606379    0.3055400642   -0.7616404689
     83  H         8.0656282469    0.3079828352   -1.4323293016
     84  C         5.9315805087    0.2473948552   -1.2950903012
     85  C         8.8198682469    0.4145774430    1.1681169961
     86  H         8.8156202079    0.4427199053    2.2574022359
     87  H         9.4058256960   -0.4548739570    0.8653248098
     88  H         9.3554378623    1.2991922676    0.8193283417
     89  C         5.7231677682    0.1926208640   -2.7819519896
     90  H         6.6669753271    0.2179165573   -3.3261137020
     91  H         5.1967018575   -0.7175477597   -3.0777857467
     92  H         5.1193647245    1.0341510059   -3.1291198035
     93  C         3.8467224108    0.2920559923    1.8730436539
     94  H         4.1605125755    0.3177852390    2.9168678503
     95  H         3.2021695786    1.1577962148    1.6982660645
     96  H         3.2375084254   -0.6051862796    1.7324412933
   Point Group: c1    Number of degrees of freedom:   282


   Energy is  -2106.198431299


 Attempting to Generate Delocalized Internal Coordinates

282 Hessian modes will be used to form the next step
  Hessian Eigenvalues:
     0.002000    0.004000    0.005628    0.008018    0.008436    0.008496
     0.008862    0.008957    0.009115    0.009156    0.011844    0.013808
     0.014213    0.014232    0.016361    0.016530    0.016719    0.017030
     0.017119    0.017558    0.017653    0.018114    0.018122    0.018170
     0.018411    0.018487    0.018831    0.019304    0.019785    0.020566
     0.020595    0.020878    0.020896    0.021130    0.021176    0.021441
     0.021468    0.021615    0.021623    0.021778    0.021787    0.021804
     0.022318    0.022339    0.022519    0.022532    0.022768    0.022783
     0.022805    0.023135    0.023185    0.023200    0.023225    0.023235
     0.023493    0.023663    0.023668    0.023756    0.023780    0.023784
     0.023831    0.023846    0.023858    0.023883    0.023886    0.023911
     0.023913    0.023920    0.023937    0.024007    0.024257    0.024417
     0.024423    0.024902    0.024907    0.040249    0.050292    0.054715
     0.059045    0.069302    0.070536    0.071436    0.071871    0.071897
     0.071995    0.072267    0.072495    0.072495    0.072542    0.072737
     0.072750    0.104462    0.144997    0.159728    0.159832    0.159839
     0.159896    0.159977    0.159977    0.159981    0.159983    0.159983
     0.159986    0.159988    0.159990    0.159990    0.159991    0.159992
     0.159994    0.159995    0.159995    0.159999    0.160000    0.160000
     0.160000    0.160000    0.160000    0.160000    0.160000    0.160000
     0.160000    0.160000    0.160000    0.160000    0.160000    0.160000
     0.160000    0.160000    0.160000    0.160000    0.160000    0.160000
     0.160000    0.160000    0.161825    0.195001    0.198551    0.199599
     0.200055    0.220589    0.220595    0.222096    0.222104    0.226593
     0.227451    0.230007    0.230160    0.231055    0.231467    0.233369
     0.233403    0.234501    0.234617    0.234807    0.234841    0.236782
     0.236854    0.236945    0.237487    0.243082    0.245333    0.246097
     0.246898    0.247003    0.248375    0.248529    0.248568    0.248650
     0.248840    0.249495    0.249696    0.249883    0.249958    0.249989
     0.249999    0.249999    0.249999    0.250000    0.250000    0.250000
     0.258181    0.274077    0.277232    0.314736    0.317955    0.318421
     0.321272    0.322020    0.323268    0.337176    0.337739    0.338580
     0.339423    0.344002    0.344238    0.345400    0.345497    0.345879
     0.346578    0.346595    0.346608    0.347007    0.347157    0.347281
     0.347811    0.347937    0.348124    0.348192    0.348432    0.348523
     0.348630    0.349440    0.349678    0.349775    0.353265    0.353302
     0.353419    0.353561    0.353877    0.353935    0.353945    0.354035
     0.356002    0.356052    0.356106    0.356115    0.356128    0.356328
     0.356336    0.356472    0.356984    0.357066    0.357107    0.357167
     0.365440    0.366390    0.380554    0.391074    0.391503    0.400563
     0.404435    0.408169    0.408349    0.414688    0.414769    0.418612
     0.418723    0.421496    0.422610    0.423885    0.426903    0.427638
     0.427822    0.432063    0.432309    0.433316    0.436535    0.451845
     0.452151    0.452641    0.453126    0.453589    0.462143    0.467840
     0.469797    0.470545    0.473660    0.475863    0.477103    0.479040
     0.480134    0.485274    0.485313    0.487917    0.488132    0.489425
     0.491550    0.501169    0.501297    0.502851    0.503277    1.410654

 Minimum Search - Taking Simple RFO Step
 Searching for Lamda that Minimizes Along All modes
 Value Taken    Lamda =  -0.00551377
 Calculated Step too Large.  Step scaled by  0.744954
 Step Taken.  Stepsize is  0.300000

                             Maximum     Tolerance    Cnvgd?
         Gradient           0.012702      0.000300      NO
         Displacement       0.206443      0.001200      NO
         Energy change     *********      0.000001      NO


 New Cartesian Coordinates Obtained by Inverse Iteration

 Displacement from previous Coordinates is:  3.612156
 Adding empirical dispersion correction 
 ----------------------------------------------------------------
 Doing -D3(BJ) with
 s6 =   1.00000
 s8 =   0.00000
 a1 =   0.48600
 a2 =   4.50000
 -D3 energy including 3body term =     -0.0901442999 hartrees
 ----------------------------------------------------------------
 Adding gCP correction 
 ----------------------------------------------------------------
 gCP energy =      0.1175618349 hartrees
 ----------------------------------------------------------------
             Standard Nuclear Orientation (Angstroms)
    I     Atom           X                Y                Z
 ----------------------------------------------------------------
    1      N      -0.0821653178     0.0269686116     0.1577635426
    2      C      -0.1285848141     0.0357646463     1.2985261669
    3      C      -0.1776341288     0.0472607175     2.7381741168
    4      H      -1.2002897357     0.2151802076     3.0715943897
    5      H       0.1757103772    -0.9078769625     3.1229220828
    6      H       0.4600337549     0.8453762641     3.1152780149
    7      B       0.3723686097     0.0612745292    -1.3901396240
    8      C      -0.8542856744     0.0247787557    -2.4382313253
    9      C      -2.2064474918    -0.2436635176    -2.1510783852
   10      C      -3.1556921570    -0.2593066658    -3.1713359821
   11      H      -4.1901666621    -0.4706480240    -2.9187772567
   12      C      -2.8236754831    -0.0287985057    -4.4980118964
   13      C      -1.4881104995     0.2027223992    -4.7863692977
   14      H      -1.1899335386     0.3599314978    -5.8183393698
   15      C      -0.5129541573     0.2294317415    -3.7924863372
   16      C      -3.8736237691    -0.0351556991    -5.5717033270
   17      H      -3.4301766554    -0.0840460017    -6.5660273147
   18      H      -4.5492038031    -0.8849989775    -5.4660138651
   19      H      -4.4868545132     0.8675678165    -5.5322992603
   20      C       0.9049598102     0.4700750199    -4.2403409336
   21      H       1.6194926335    -0.1819274493    -3.7379040762
   22      H       1.0029395099     0.2955590741    -5.3123250172
   23      H       1.2222991615     1.4961593663    -4.0484834539
   24      C      -2.7172933579    -0.5507904729    -0.7657587912
   25      H      -3.7665567600    -0.8435775335    -0.8061855986
   26      H      -2.1764853192    -1.3732341157    -0.2970546400
   27      H      -2.6560359965     0.3101666210    -0.0990205694
   28      C       1.2991462513    -1.2582237497    -1.4324771880
   29      C       0.7145615910    -2.4978649620    -1.6916108366
   30      H      -0.3245167030    -2.5522167304    -1.9998851705
   31      C       1.4510898424    -3.6560003516    -1.5350524223
   32      C       2.6588867227    -1.1904641114    -1.0622681419
   33      C       3.3996226330    -2.3758866477    -0.9024661756
   34      H       4.4400090193    -2.3212609416    -0.6001612314
   35      C       2.8014967000    -3.5995738868    -1.1165728293
   36      C       3.2793906909    -4.9755135611    -0.9342480650
   37      C       4.4366855491    -5.5590583179    -0.4891299207
   38      H       5.3023178393    -4.9714603822    -0.2089535098
   39      C       2.1943306967    -5.8132052245    -1.2623708940
   40      C       2.2137204931    -7.2022646378    -1.1649020561
   41      C       1.0625039001    -5.0652715654    -1.6402716802
   42      C      -0.0928151741    -5.7357151093    -1.9536767857
   43      H      -0.9965542471    -5.2145398400    -2.2451605874
   44      C      -0.0960707614    -7.1501507452    -1.8843555820
   45      H      -1.0071822149    -7.6781554461    -2.1353424166
   46      C       1.0108469658    -7.8721274698    -1.5015557589
   47      H       0.9596872487    -8.9533078041    -1.4527542656
   48      C       4.4896394422    -6.9728393656    -0.3873046429
   49      H       5.4052198932    -7.4298138708    -0.0345097229
   50      C       3.4242043340    -7.7804614946    -0.7105272622
   51      H       3.5075923487    -8.8559965202    -0.6102521240
   52      B       3.3350459930     0.1831277737    -0.8252420212
   53      C       2.5575124204     1.5032479393    -1.0756458660
   54      C       3.2027437987     2.7482692509    -0.9361845416
   55      H       4.2638808711     2.7805166156    -0.7125514115
   56      C       2.4837345615     3.9192696831    -1.0528691100
   57      C       1.1763862222     1.4616142121    -1.3574032324
   58      C       0.4563904430     2.6513060485    -1.4731811948
   59      H      -0.6082052559     2.6192100319    -1.6828910568
   60      C       1.0928871284     3.8640818981    -1.3088857451
   61      C       2.8523529063     5.3249079346    -0.8514094058
   62      C       4.0032903205     5.9964671192    -0.5368389646
   63      H       4.9500430612     5.4841776963    -0.4156897787
   64      C       1.6596531759     6.0651062591    -0.9831521690
   65      C       1.5599281530     7.4382081500    -0.7898345082
   66      C       0.5636700176     5.2271830515    -1.2665796878
   67      C      -0.6846141512     5.7839323560    -1.3683485609
   68      H      -1.5643012351     5.1858497612    -1.5745503513
   69      C       0.2605516012     7.9928154607    -0.9058540694
   70      H       0.1112563539     9.0563657115    -0.7647570773
   71      C      -0.8155614095     7.1813751737    -1.1865895636
   72      H      -1.8013341214     7.6215698043    -1.2650362626
   73      C       2.7651323615     8.1105887167    -0.4706592275
   74      H       2.7614205188     9.1817714436    -0.3105154291
   75      C       3.9382554024     7.4007572860    -0.3558845432
   76      H       4.8497488701     7.9298212770    -0.1098245680
   77      C       4.8208602600     0.2287804169    -0.3161202567
   78      C       5.0851779792     0.2626959513     1.0558003247
   79      C       6.4023259594     0.2971183919     1.5064506916
   80      H       6.5966801412     0.3238998295     2.5739179369
   81      C       7.4723224175     0.2945474701     0.6195481743
   82      C       7.1961815700     0.2552003798    -0.7442573887
   83      H       8.0182117584     0.2488311532    -1.4535071601
   84      C       5.8909237346     0.2208368927    -1.2186841491
   85      C       8.8912000075     0.3276610001     1.1097237406
   86      H       8.9385712096     0.3472066999     2.1981682685
   87      H       9.4500581437    -0.5462645620     0.7705463721
   88      H       9.4205100963     1.2075698469     0.7399792462
   89      C       5.6109365669     0.1702473192    -2.6953334650
   90      H       6.5272746783     0.1792286754    -3.2851810479
   91      H       5.0552214646    -0.7313540789    -2.9642166065
   92      H       5.0045909156     1.0211259494    -3.0149092133
   93      C       3.9437265903     0.2562335791     2.0378294732
   94      H       4.2969746418     0.2639648776     3.0686666376
   95      H       3.2983725730     1.1277008292     1.9022606989
   96      H       3.3159647492    -0.6297263511     1.9106070671
 ----------------------------------------------------------------
 Nuclear Repulsion Energy =  6856.4345626773 hartrees
 There are      185 alpha and      185 beta electrons
 Discretize the solute cavity surface with Lebedev spheres
	Using 302 Lebedev grid points for each H atom
	Using 302 Lebedev grid points for other atoms
	Atomic van der Waals radii will be scaled by 1.20
 Remove points where switching function is < 1.0e-08
 Keep 10201 surface tesserae and discard 18791 interior tesserae
 Molecular Surface Area = 754.528 Angst**2
 Nucleus-field energy     =     0.0000000457 hartrees
 Requested basis set is def2-mSVP
 There are 467 shells and 907 basis functions
 A cutoff of  1.0D-11 yielded  41139 shell pairs
 There are    162969 function pairs (    179639 Cartesian)
 Smallest overlap matrix eigenvalue = 1.99E-04
 Guess MOs from SCF MO coefficient file

 -----------------------------------------------------------------------
  General SCF calculation program by
  Eric Jon Sundstrom, Paul Horn, Yuezhi Mao, Dmitri Zuev, Alec White,
  David Stuck, Shaama M.S., Shane Yost, Joonho Lee, David Small,
  Daniel Levine, Susi Lehtola, Hugh Burton, Evgeny Epifanovsky
 -----------------------------------------------------------------------
 Exchange:     0.4200 Hartree-Fock + 0.5800 PBEh-3c
 Correlation:  1.0000 PBEh-3c
 Using SG-1 standard quadrature grid
 Dispersion:   Grimme D3
 using 8 threads for integral computing
 -------------------------------------------------------
 OpenMP Integral computing Module                
 Release: version 2.0, May 2017, Q-Chem Inc. Pleasanton 
 -------------------------------------------------------
 -------------------------------------------------------
 OpenMP BLAS3 based DFT computing Module                
 Release: version 1.0, May 2013, Q-Chem Inc. Pittsburgh 
 -------------------------------------------------------
 A restricted SCF calculation will be
 performed using DIIS
 SCF converges when DIIS error is below 1.0e-08
 ---------------------------------------
  Cycle       Energy         DIIS error
 ---------------------------------------
 Using non-symmetric K matrix
    1   -2100.9440139490      8.48e-04  
    2   -2106.1831797010      3.01e-04  
    3   -2106.1917209816      3.06e-04  
    4   -2106.2005167413      7.76e-05  
    5   -2106.2010170372      4.13e-05  
    6   -2106.2011531628      1.69e-05  
    7   -2106.2011823038      4.26e-06  
    8   -2106.2011841209      1.82e-06  
    9   -2106.2011844792      4.91e-07  
   10   -2106.2011845081      1.41e-07  
   11   -2106.2011845108      4.68e-08  
   12   -2106.2011845111      1.64e-08  
   13   -2106.2011845111      8.25e-09  Convergence criterion met
 ---------------------------------------
 SCF time:   CPU 11633.27s  wall 1586.00s 

************** Final PCM Free Energy Summary **************
 G_electrostatic  =      -0.04721697 hartree =     -29.62909547 kcal/mol
 G_cavitation     =       0.00000000 hartree =       0.00000000 kcal/mol
 G_dispersion     =       0.00000000 hartree =       0.00000000 kcal/mol
 G_repulsion      =       0.00000000 hartree =       0.00000000 kcal/mol
 --------------------------------------------------
 Non-electrostatic Free Energy =       0.00000000 hartree =       0.00000000 kcal/mol
 Total                         =      -0.04721697 hartree =     -29.62909547 kcal/mol
 --------------------------------------------------
 SCF Energy (H0 + V/2)                       =   -2106.20118451 
 Solute Internal Energy (H0)                 =   -2106.15396754 
 Total Free Energy (H0 + V/2 + non-elec)     =   -2106.20118451 hartree
                                             = -1321661.19111215 kcal/mol
***********************************************************

 SCF   energy in the final basis set =    -2106.2011845111
 Total energy in the final basis set =    -2106.2011845111
 
 --------------------------------------------------------------
 
                    Orbital Energies (a.u.)
 --------------------------------------------------------------
 
 Alpha MOs
 -- Occupied --
-14.710 -10.554 -10.486 -10.464 -10.464 -10.462 -10.462 -10.461
-10.461 -10.461 -10.461 -10.461 -10.460 -10.460 -10.460 -10.459
-10.459 -10.457 -10.457 -10.457 -10.457 -10.456 -10.456 -10.456
-10.455 -10.450 -10.450 -10.450 -10.450 -10.449 -10.447 -10.447
-10.446 -10.444 -10.444 -10.442 -10.441 -10.433 -10.433 -10.433
-10.432 -10.427 -10.427 -10.427 -10.426 -10.425 -10.425 -10.425
-10.425 -10.422 -10.420 -10.418 -10.418  -6.940  -6.937  -1.084
 -1.014  -1.014  -0.960  -0.956  -0.956  -0.951  -0.931  -0.931
 -0.906  -0.897  -0.881  -0.871  -0.869  -0.865  -0.864  -0.850
 -0.849  -0.844  -0.844  -0.818  -0.810  -0.808  -0.801  -0.780
 -0.776  -0.758  -0.758  -0.756  -0.750  -0.732  -0.724  -0.723
 -0.717  -0.694  -0.684  -0.676  -0.660  -0.654  -0.644  -0.643
 -0.640  -0.636  -0.635  -0.629  -0.590  -0.588  -0.585  -0.582
 -0.579  -0.573  -0.570  -0.559  -0.549  -0.542  -0.541  -0.540
 -0.538  -0.533  -0.527  -0.524  -0.523  -0.509  -0.503  -0.497
 -0.494  -0.491  -0.489  -0.487  -0.485  -0.485  -0.480  -0.479
 -0.478  -0.477  -0.474  -0.473  -0.466  -0.464  -0.464  -0.463
 -0.462  -0.461  -0.460  -0.455  -0.453  -0.451  -0.449  -0.446
 -0.444  -0.437  -0.436  -0.431  -0.429  -0.428  -0.424  -0.422
 -0.419  -0.411  -0.405  -0.403  -0.395  -0.395  -0.395  -0.395
 -0.388  -0.388  -0.383  -0.382  -0.379  -0.378  -0.372  -0.369
 -0.357  -0.348  -0.342  -0.330  -0.326  -0.313  -0.312  -0.295
 -0.295  -0.275  -0.274  -0.270  -0.266  -0.262  -0.255  -0.255
 -0.252
 -- Virtual --
 -0.072  -0.058  -0.032  -0.005  -0.004   0.008   0.015   0.018
  0.022   0.026   0.030   0.034   0.037   0.060   0.078   0.082
  0.092   0.119   0.126   0.138   0.150   0.154   0.155   0.157
  0.161   0.165   0.166   0.169   0.170   0.175   0.175   0.182
  0.184   0.188   0.191   0.193   0.195   0.196   0.200   0.203
  0.204   0.206   0.206   0.207   0.210   0.210   0.214   0.218
  0.220   0.222   0.224   0.225   0.227   0.228   0.228   0.235
  0.238   0.239   0.243   0.244   0.250   0.251   0.251   0.252
  0.253   0.255   0.256   0.260   0.264   0.268   0.270   0.271
  0.273   0.273   0.283   0.287   0.289   0.292   0.295   0.297
  0.299   0.305   0.311   0.313   0.315   0.320   0.322   0.325
  0.328   0.331   0.336   0.339   0.351   0.354   0.359   0.362
  0.366   0.377   0.385   0.386   0.395   0.401   0.402   0.405
  0.408   0.412   0.420   0.425   0.426   0.428   0.432   0.439
  0.448   0.453   0.459   0.463   0.465   0.476   0.476   0.481
  0.487   0.491   0.492   0.497   0.498   0.499   0.502   0.504
  0.507   0.509   0.513   0.522   0.525   0.526   0.528   0.530
  0.534   0.537   0.537   0.539   0.542   0.546   0.547   0.550
  0.554   0.556   0.558   0.560   0.564   0.565   0.568   0.574
[...]
C  24 1.376298 17 122.326192 16 0.173211 0
H  26 1.083501 24 119.942987 17 179.747562 0
C  20 1.416613 19 116.174240 16 -179.147075 0
H  28 1.083388 20 120.098968 19 179.915622 0
C  28 1.375492 20 119.736480 19 0.071765 0
H  30 1.082448 28 118.949765 20 179.898596 0
B  12 1.551377 8 120.131328 7 -3.557414 0
C  32 1.551752 12 120.733406 8 -3.756777 0
C  33 1.409733 32 119.804701 12 4.388208 0
C  34 1.395325 33 119.710959 32 179.524168 0
H  35 1.085684 34 119.996562 33 -179.828213 0
C  35 1.378628 34 120.087467 33 1.110238 0
C  33 1.409813 32 120.519392 12 -174.937999 0
H  38 1.085100 33 119.563542 32 -0.236165 0
C  38 1.379772 33 120.308200 32 179.703367 0
C  37 1.460170 35 130.653929 34 179.574280 0
C  41 1.370500 37 134.670096 35 0.287537 0
H  42 1.083460 41 121.986893 37 -0.126673 0
C  41 1.407582 37 106.220005 35 -179.873754 0
C  44 1.390031 41 123.913209 37 -179.846458 0
C  44 1.410715 41 111.325037 37 -0.010501 0
C  46 1.369173 44 118.179750 41 -179.793917 0
H  47 1.083067 46 121.952956 44 179.917027 0
C  42 1.415440 41 118.207919 37 179.880356 0
H  49 1.082478 42 118.526729 41 179.970922 0
C  49 1.377155 42 122.397536 41 -0.048987 0
H  51 1.083182 49 119.784617 42 -179.989966 0
C  45 1.416896 44 115.919321 41 179.797368 0
H  53 1.083059 45 120.085825 44 -179.970575 0
C  53 1.375908 45 119.890812 44 -0.015896 0
H  55 1.082300 53 118.928510 45 -179.937926 0
C  32 1.570871 12 118.701847 8 177.056827 0
C  57 1.397805 32 120.312881 12 -87.436988 0
C  58 1.392813 57 119.809578 32 178.821085 0
H  59 1.085434 58 119.254917 57 179.910756 0
C  59 1.389624 58 121.449512 57 -0.327629 0
C  61 1.391994 59 118.214135 58 -0.135983 0
H  62 1.085731 61 119.343203 59 -179.474679 0
C  62 1.390034 61 121.467531 59 0.272014 0
C  61 1.501782 59 121.273358 58 179.804932 0
H  65 1.089405 61 111.510497 59 5.446306 0
H  65 1.091157 61 111.415105 59 125.936141 0
H  65 1.091631 61 111.314210 59 -114.794618 0
C  58 1.504380 57 119.827366 32 -0.418196 0
H  69 1.089839 58 111.796453 57 -178.247335 0
H  69 1.092639 58 111.650286 57 -57.732208 0
H  69 1.092887 58 111.276359 57 61.497214 0
C  64 1.504560 62 120.387525 61 -179.303217 0
H  73 1.089750 64 111.751359 62 -0.578337 0
H  73 1.092566 64 111.567101 62 -121.064571 0
H  73 1.092974 64 111.452449 62 119.682180 0
C  7 1.624416 1 113.922308 2 -172.567133 0
C  77 1.408615 7 126.945762 1 -10.399072 0
C  78 1.396295 77 120.579456 7 179.720396 0
H  79 1.085550 78 118.632779 77 -179.926825 0
C  79 1.385011 78 122.499784 77 0.575226 0
C  81 1.386992 79 117.009020 78 1.149944 0
H  82 1.085654 81 119.045505 79 178.282319 0
C  82 1.391806 81 122.124987 79 -1.363673 0
C  81 1.501413 79 121.576906 78 -178.407913 0
H  85 1.090187 81 111.707015 79 -28.770779 0
H  85 1.090259 81 111.561817 79 -149.728855 0
H  85 1.092476 81 111.179070 79 90.846532 0
C  84 1.507194 82 116.125310 81 179.531594 0
H  89 1.089652 84 112.791554 82 -133.874912 0
H  89 1.090350 84 110.411128 82 -13.749836 0
H  89 1.091049 84 112.016596 82 105.650487 0
C  78 1.509370 77 124.009046 7 -1.144175 0
H  93 1.089961 78 110.121320 77 -172.653592 0
H  93 1.090071 78 112.621411 77 -53.532291 0
H  93 1.090533 78 112.534343 77 68.468857 0
$end

 
 --------------------------------------------------------------
 
                    Orbital Energies (a.u.)
 --------------------------------------------------------------
 
 Alpha MOs
 -- Occupied --
-14.712 -10.556 -10.486 -10.464 -10.464 -10.462 -10.462 -10.462
-10.461 -10.461 -10.460 -10.460 -10.460 -10.460 -10.459 -10.459
-10.459 -10.457 -10.457 -10.457 -10.457 -10.456 -10.456 -10.456
-10.455 -10.450 -10.450 -10.450 -10.450 -10.449 -10.447 -10.447
-10.447 -10.445 -10.444 -10.442 -10.441 -10.433 -10.432 -10.432
-10.432 -10.427 -10.427 -10.426 -10.426 -10.425 -10.425 -10.425
-10.425 -10.423 -10.422 -10.418 -10.417  -6.939  -6.935  -1.087
 -1.014  -1.014  -0.960  -0.956  -0.956  -0.951  -0.931  -0.931
 -0.905  -0.897  -0.883  -0.870  -0.869  -0.864  -0.864  -0.849
 -0.849  -0.844  -0.844  -0.818  -0.810  -0.808  -0.801  -0.780
 -0.776  -0.758  -0.758  -0.756  -0.749  -0.731  -0.725  -0.723
 -0.717  -0.697  -0.685  -0.676  -0.660  -0.656  -0.644  -0.643
 -0.640  -0.636  -0.634  -0.630  -0.590  -0.588  -0.585  -0.582
 -0.579  -0.572  -0.570  -0.560  -0.548  -0.542  -0.541  -0.540
 -0.539  -0.534  -0.528  -0.523  -0.522  -0.509  -0.503  -0.497
 -0.493  -0.491  -0.489  -0.487  -0.485  -0.485  -0.480  -0.479
 -0.478  -0.477  -0.474  -0.473  -0.465  -0.464  -0.464  -0.463
 -0.462  -0.462  -0.460  -0.455  -0.452  -0.451  -0.450  -0.446
 -0.444  -0.437  -0.436  -0.431  -0.429  -0.427  -0.424  -0.423
 -0.419  -0.411  -0.406  -0.403  -0.395  -0.395  -0.394  -0.394
 -0.388  -0.387  -0.383  -0.381  -0.379  -0.379  -0.372  -0.368
 -0.357  -0.349  -0.341  -0.329  -0.325  -0.313  -0.312  -0.295
 -0.294  -0.275  -0.274  -0.270  -0.266  -0.262  -0.255  -0.254
 -0.251
 -- Virtual --
 -0.071  -0.058  -0.032  -0.004  -0.003   0.008   0.015   0.018
  0.023   0.025   0.030   0.033   0.035   0.060   0.078   0.083
  0.093   0.126   0.127   0.139   0.148   0.154   0.155   0.158
  0.161   0.163   0.167   0.169   0.170   0.175   0.175   0.178
  0.182   0.185   0.190   0.193   0.195   0.197   0.199   0.204
  0.204   0.207   0.208   0.208   0.212   0.214   0.217   0.218
  0.220   0.223   0.223   0.224   0.225   0.228   0.229   0.231
  0.237   0.241   0.241   0.246   0.248   0.250   0.251   0.252
  0.253   0.254   0.257   0.259   0.263   0.268   0.271   0.272
  0.272   0.279   0.283   0.288   0.291   0.292   0.294   0.295
  0.300   0.305   0.310   0.313   0.314   0.323   0.324   0.327
  0.329   0.333   0.338   0.341   0.352   0.356   0.358   0.363
  0.367   0.379   0.385   0.388   0.393   0.400   0.405   0.407
  0.409   0.412   0.414   0.424   0.426   0.428   0.430   0.440
  0.452   0.457   0.461   0.463   0.466   0.477   0.478   0.481
  0.489   0.491   0.493   0.495   0.498   0.500   0.501   0.505
  0.506   0.510   0.518   0.523   0.525   0.526   0.527   0.528
  0.530   0.534   0.536   0.538   0.541   0.543   0.545   0.549
  0.555   0.555   0.558   0.560   0.563   0.566   0.569   0.572
  0.576   0.577   0.580   0.582   0.584   0.585   0.587   0.587
  0.589   0.591   0.593   0.594   0.599   0.600   0.601   0.605
  0.609   0.610   0.614   0.616   0.617   0.618   0.620   0.622
  0.625   0.627   0.632   0.632   0.634   0.634   0.639   0.643
  0.646   0.653   0.654   0.654   0.658   0.659   0.663   0.666
  0.674   0.679   0.683   0.685   0.690   0.691   0.696   0.698
  0.702   0.706   0.707   0.709   0.711   0.716   0.719   0.720
  0.725   0.729   0.732   0.735   0.740   0.746   0.747   0.749
  0.756   0.757   0.760   0.761   0.763   0.768   0.770   0.773
  0.777   0.784   0.786   0.790   0.793   0.796   0.808   0.815
  0.820   0.824   0.828   0.831   0.835   0.841   0.843   0.849
  0.852   0.861   0.865   0.874   0.880   0.884   0.886   0.896
  0.899   0.906   0.911   0.916   0.919   0.923   0.927   0.932
  0.944   0.953   0.954   0.956   0.958   0.963   0.966   0.971
  0.975   0.976   0.980   0.987   0.993   0.994   0.995   0.998
  1.002   1.005   1.009   1.011   1.013   1.015   1.018   1.021
  1.026   1.030   1.031   1.035   1.040   1.043   1.046   1.049
  1.051   1.055   1.059   1.061   1.069   1.069   1.070   1.075
  1.076   1.077   1.080   1.081   1.086   1.087   1.090   1.096
  1.098   1.109   1.110   1.111   1.115   1.120   1.123   1.123
  1.128   1.131   1.132   1.135   1.138   1.139   1.144   1.149
  1.150   1.154   1.156   1.161   1.166   1.172   1.178   1.181
  1.193   1.201   1.202   1.211   1.221   1.223   1.234   1.235
  1.239   1.246   1.253   1.257   1.259   1.264   1.271   1.274
  1.275   1.286   1.292   1.300   1.301   1.306   1.308   1.313
  1.320   1.323   1.330   1.331   1.339   1.343   1.345   1.347
  1.353   1.361   1.367   1.371   1.379   1.380   1.383   1.384
  1.392   1.402   1.404   1.408   1.410   1.412   1.422   1.429
  1.437   1.440   1.442   1.442   1.445   1.453   1.463   1.465
  1.470   1.473   1.481   1.484   1.500   1.512   1.513   1.514
  1.518   1.520   1.520   1.523   1.533   1.533   1.534   1.537
  1.539   1.543   1.546   1.549   1.552   1.558   1.559   1.564
  1.567   1.571   1.572   1.579   1.580   1.583   1.588   1.596
  1.597   1.612   1.616   1.617   1.620   1.634   1.637   1.649
  1.663   1.671   1.683   1.697   1.702   1.713   1.717   1.722
  1.750   1.754   1.775   1.789   1.797   1.802   1.809   1.809
  1.810   1.813   1.814   1.817   1.824   1.833   1.837   1.846
  1.853   1.855   1.861   1.865   1.877   1.903   1.903   1.906
  1.907   1.915   1.916   1.919   1.920   1.923   1.930   1.935
  1.942   1.944   1.948   1.953   1.955   1.957   1.962   1.968
  1.969   1.975   1.985   1.987   1.987   1.989   1.992   1.995
  1.997   2.004   2.018   2.021   2.032   2.043   2.048   2.052
  2.056   2.064   2.070   2.074   2.074   2.080   2.088   2.090
  2.099   2.110   2.112   2.123   2.136   2.141   2.144   2.158
  2.163   2.165   2.176   2.187   2.193   2.195   2.199   2.203
  2.205   2.208   2.214   2.221   2.228   2.231   2.232   2.234
  2.235   2.243   2.250   2.251   2.254   2.258   2.263   2.265
  2.277   2.279   2.280   2.285   2.291   2.292   2.297   2.306
  2.310   2.318   2.320   2.322   2.324   2.333   2.339   2.344
  2.351   2.352   2.355   2.356   2.361   2.361   2.363   2.372
  2.380   2.384   2.390   2.391   2.393   2.399   2.404   2.410
  2.412   2.414   2.420   2.421   2.423   2.429   2.435   2.436
  2.440   2.443   2.453   2.455   2.466   2.470   2.471   2.480
  2.482   2.489   2.493   2.498   2.499   2.508   2.515   2.535
  2.541   2.557   2.576   2.597   2.610   2.618   2.632   2.644
  2.646   2.648   2.668   2.683   2.686   2.713   2.716   2.727
  2.731   2.734   2.739   2.742   2.744   2.753   2.763   2.764
  2.767   2.785   2.785   2.788   2.789   2.790   2.792   2.806
  2.809   2.816   2.824   2.832   2.844   2.847   2.855   2.857
  2.860   2.878   2.887   2.907   2.909   2.911   2.915   2.925
  2.932   2.934   2.940   2.941   2.950   2.957   2.972   2.982
  2.989   2.994   3.009   3.015   3.015   3.056   3.072   3.081
  3.086   3.108   3.166   3.210   3.218   3.248   3.256   3.260
  3.408   3.436   3.449   3.487   3.491   3.493   3.509   3.537
  3.614   3.667   3.679   9.624   9.726  13.161  13.181  13.378
 13.440  13.511  13.527  13.531  13.547  13.553  13.714  13.715
 13.749  13.770  13.785  13.801  13.808  13.820  13.862  13.881
 13.900  13.902  13.918  13.947  13.957  13.994  14.002  14.024
 14.033  14.050  14.116  14.160  14.163  14.187  14.194  14.197
 14.217  14.230  14.256  14.265  14.292  14.305  14.309  14.327
 14.389  14.514  14.516  14.559  14.575  14.580  14.580  14.584
 14.594  19.589
 --------------------------------------------------------------
 
          Ground-State Mulliken Net Atomic Charges

     Atom                 Charge (a.u.)
  ----------------------------------------
      1 N                    -0.189310
      2 C                     0.268737
      3 C                    -0.721446
      4 H                     0.320437
      5 H                     0.321478
      6 H                     0.321119
      7 B                     0.817318
      8 C                    -0.188507
      9 C                     0.018283
     10 C                    -0.354006
     11 H                     0.222870
     12 C                     0.102159
     13 C                    -0.353129
     14 H                     0.222911
     15 C                     0.026133
     16 C                    -0.722775
     17 H                     0.237020
     18 H                     0.236510
     19 H                     0.240327
     20 C                    -0.768356
     21 H                     0.254730
     22 H                     0.242524
     23 H                     0.243342
     24 C                    -0.760516
     25 H                     0.248266
     26 H                     0.235895
     27 H                     0.235552
     28 C                    -0.163549
     29 C                    -0.415308
     30 H                     0.234069
     31 C                     0.068596
     32 C                    -0.160748
     33 C                    -0.406542
     34 H                     0.241213
     35 C                     0.072945
     36 C                     0.178268
     37 C                    -0.408996
     38 H                     0.252685
     39 C                    -0.071988
     40 C                     0.210448
     41 C                     0.164598
     42 C                    -0.399203
     43 H                     0.253637
     44 C                    -0.239040
     45 H                     0.260442
     46 C                    -0.351513
     47 H                     0.257959
     48 C                    -0.236585
     49 H                     0.258963
     50 C                    -0.356784
     51 H                     0.257022
     52 B                     0.643510
     53 C                    -0.151086
     54 C                    -0.412788
     55 H                     0.238679
     56 C                     0.074926
     57 C                    -0.192904
     58 C                    -0.412706
     59 H                     0.231888
     60 C                     0.069940
     61 C                     0.174996
     62 C                    -0.408490
     63 H                     0.252896
     64 C                    -0.070773
     65 C                     0.214227
     66 C                     0.163560
     67 C                    -0.397397
     68 H                     0.254116
     69 C                    -0.353016
     70 H                     0.257606
     71 C                    -0.239621
     72 H                     0.260279
     73 C                    -0.358920
     74 H                     0.256584
     75 C                    -0.236860
     76 H                     0.258861
     77 C                    -0.212362
     78 C                     0.039950
     79 C                    -0.377156
     80 H                     0.228354
     81 C                     0.103752
     82 C                    -0.364466
     83 H                     0.227110
     84 C                     0.048209
     85 C                    -0.723684
     86 H                     0.239371
     87 H                     0.239121
     88 H                     0.240230
     89 C                    -0.773342
     90 H                     0.251705
     91 H                     0.245077
     92 H                     0.245519
     93 C                    -0.775211
     94 H                     0.252827
     95 H                     0.244563
     96 H                     0.244771
  ----------------------------------------
  Sum of atomic charges =    -0.000000

 -----------------------------------------------------------------
                    Cartesian Multipole Moments
 -----------------------------------------------------------------
    Charge (ESU x 10^10)
                -0.0000
    Dipole Moment (Debye)
         X      -5.0287      Y      -0.2351      Z       8.6634
       Tot      10.0199
    Quadrupole Moments (Debye-Ang)
        XX    -283.9292     XY      -0.1662     YY    -279.5778
        XZ       2.8738     YZ      -1.1671     ZZ    -308.9755
    Octopole Moments (Debye-Ang^2)
       XXX   -1571.7022    XXY     -38.0044    XYY    -539.1234
       YYY    -101.2140    XXZ     348.1543    XYZ      -5.3632
       YYZ     311.1847    XZZ    -624.3480    YZZ     -31.8206
       ZZZ    1134.1920
    Hexadecapole Moments (Debye-Ang^3)
      XXXX  -20075.1505   XXXY     263.5459   XXYY   -8237.6782
      XYYY     145.6149   YYYY  -26731.9030   XXXZ      14.6102
      XXYZ     -75.0602   XYYZ     162.4801   YYYZ     -25.6395
      XXZZ   -4818.4416   XYZZ     137.7914   YYZZ   -7423.3813
      XZZZ     100.8652   YZZZ    -202.6720   ZZZZ   -7299.9550
 -----------------------------------------------------------------
Archival summary:
1\1\ctcp009\OPT\ProcedureUnspecified\BasisUnspecified\152241\mewes\TueDec1821:22:112018TueDec1821:22:112018\0\\#,OPT,ProcedureUnspecified,BasisUnspecified,\\0,1\N\C,1,1.14123\C,2,1.43956,1,178.716\H,3,1.08861,2,109.644,1,-119.812,0\H,3,1.08866,2,109.579,1,120.005,0\H,3,1.08909,2,109.303,1,0.155368,0\B,1,1.58244,2,170.236,3,-179.18,0\C,7,1.61191,1,101.981,2,66.1889,0\C,8,1.39587,7,118.629,1,79.6008,0\H,9,1.08544,8,120.174,7,3.23621,0\C,9,1.37917,8,120.134,7,-176.714,0\C,8,1.40968,7,121.729,1,-97.5472,0\C,12,1.40891,8,119.797,7,177.099,0\H,13,1.08468,12,119.626,8,179.997,0\C,13,1.37833,12,120.264,8,-0.450723,0\C,11,1.46476,9,130.836,8,178.415,0\C,16,1.37214,11,135.097,9,0.0619509,0\H,17,1.08334,16,121.971,11,1.01292,0\C,16,1.40755,11,106.089,9,-178.867,0\C,19,1.39313,16,123.805,11,178.831,0\C,19,1.41012,16,111.544,11,-0.210546,0\C,21,1.3708,19,117.989,16,179.269,0\H,22,1.083,21,121.95,19,-179.841,0\C,17,1.41618,16,118.563,11,-178.813,0\H,24,1.08255,17,118.552,16,179.986,0\C,24,1.3763,17,122.326,16,0.173211,0\H,26,1.0835,24,119.943,17,179.748,0\C,20,1.41661,19,116.174,16,-179.147,0\H,28,1.08339,20,120.099,19,179.916,0\C,28,1.37549,20,119.736,19,0.0717649,0\H,30,1.08245,28,118.95,20,179.899,0\B,12,1.55138,8,120.131,7,-3.55741,0\C,32,1.55175,12,120.733,8,-3.75678,0\C,33,1.40973,32,119.805,12,4.38821,0\C,34,1.39532,33,119.711,32,179.524,0\H,35,1.08568,34,119.997,33,-179.828,0\C,35,1.37863,34,120.087,33,1.11024,0\C,33,1.40981,32,120.519,12,-174.938,0\H,38,1.0851,33,119.564,32,-0.236165,0\C,38,1.37977,33,120.308,32,179.703,0\C,37,1.46017,35,130.654,34,179.574,0\C,41,1.3705,37,134.67,35,0.287537,0\H,42,1.08346,41,121.987,37,-0.126673,0\C,41,1.40758,37,106.22,35,-179.874,0\C,44,1.39003,41,123.913,37,-179.846,0\C,44,1.41071,41,111.325,37,-0.0105011,0\C,46,1.36917,44,118.18,41,-179.794,0\H,47,1.08307,46,121.953,44,179.917,0\C,42,1.41544,41,118.208,37,179.88,0\H,49,1.08248,42,118.527,41,179.971,0\C,49,1.37716,42,122.398,41,-0.0489874,0\H,51,1.08318,49,119.785,42,-179.99,0\C,45,1.4169,44,115.919,41,179.797,0\H,53,1.08306,45,120.086,44,-179.971,0\C,53,1.37591,45,119.891,44,-0.0158964,0\H,55,1.0823,53,118.929,45,-179.938,0\C,32,1.57087,12,118.702,8,177.057,0\C,57,1.3978,32,120.313,12,-87.437,0\C,58,1.39281,57,119.81,32,178.821,0\H,59,1.08543,58,119.255,57,179.911,0\C,59,1.38962,58,121.45,57,-0.327629,0\C,61,1.39199,59,118.214,58,-0.135983,0\H,62,1.08573,61,119.343,59,-179.475,0\C,62,1.39003,61,121.468,59,0.272014,0\C,61,1.50178,59,121.273,58,179.805,0\H,65,1.0894,61,111.51,59,5.44631,0\H,65,1.09116,61,111.415,59,125.936,0\H,65,1.09163,61,111.314,59,-114.795,0\C,58,1.50438,57,119.827,32,-0.418196,0\H,69,1.08984,58,111.796,57,-178.247,0\H,69,1.09264,58,111.65,57,-57.7322,0\H,69,1.09289,58,111.276,57,61.4972,0\C,64,1.50456,62,120.388,61,-179.303,0\H,73,1.08975,64,111.751,62,-0.578337,0\H,73,1.09257,64,111.567,62,-121.065,0\H,73,1.09297,64,111.452,62,119.682,0\C,7,1.62442,1,113.922,2,-172.567,0\C,77,1.40862,7,126.946,1,-10.3991,0\C,78,1.3963,77,120.579,7,179.72,0\H,79,1.08555,78,118.633,77,-179.927,0\C,79,1.38501,78,122.5,77,0.575226,0\C,81,1.38699,79,117.009,78,1.14994,0\H,82,1.08565,81,119.046,79,178.282,0\C,82,1.39181,81,122.125,79,-1.36367,0\C,81,1.50141,79,121.577,78,-178.408,0\H,85,1.09019,81,111.707,79,-28.7708,0\H,85,1.09026,81,111.562,79,-149.729,0\H,85,1.09248,81,111.179,79,90.8465,0\C,84,1.50719,82,116.125,81,179.532,0\H,89,1.08965,84,112.792,82,-133.875,0\H,89,1.09035,84,110.411,82,-13.7498,0\H,89,1.09105,84,112.017,82,105.65,0\C,78,1.50937,77,124.009,7,-1.14417,0\H,93,1.08996,78,110.121,77,-172.654,0\H,93,1.09007,78,112.621,77,-53.5323,0\H,93,1.09053,78,112.534,77,68.4689,0\\\@

 Total job time:  43196.38s(wall), 290474.59s(cpu) 
 Tue Dec 18 21:22:11 2018

        *************************************************************
        *                                                           *
        *  Thank you very much for using Q-Chem.  Have a nice day.  *
        *                                                           *
        *************************************************************


0 sent ACK to 0 
now end server 0 ... 
