mFile = /cm/shared/apps/q-chem/intel/QCHEM_5.1.0_Trunk/bin/mpi/machines
Process 0 of 1 is on big002 - thread support 0
initial socket setup ...start
initial socket setup ...done 
now start server 0 ... 
Q-Chem Developer Version!
                  Welcome to Q-Chem
     A Quantum Leap Into The Future Of Chemistry


 Q-Chem 5.1, Q-Chem, Inc., Pleasanton, CA (2018)

 Yihan Shao,  Zhengting Gan,  E. Epifanovsky,  A. T. B. Gilbert,  M. Wormit,  
 J. Kussmann,  A. W. Lange,  A. Behn,  Jia Deng,  Xintian Feng,  D. Ghosh,  
 M. Goldey,  P. R. Horn,  L. D. Jacobson,  I. Kaliman,  T. Kus,  A. Landau,  
 Jie Liu,  E. I. Proynov,  R. M. Richard,  R. P. Steele,  E. J. Sundstrom,  
 H. L. Woodcock III,  P. M. Zimmerman,  D. Zuev,  B. Albrecht,  E. Alguire,  
 S. A. Baeppler,  D. Barton,  Z. Benda,  Y. A. Bernard,  E. J. Berquist,  
 K. B. Bravaya,  H. Burton,  D. Casanova,  Chun-Min Chang,  Yunqing Chen,  
 A. Chien,  K. D. Closser,  M. P. Coons,  S. Coriani,  S. Dasgupta,  
 A. L. Dempwolff,  M. Diedenhofen,  Hainam Do,  R. G. Edgar,  Po-Tung Fang,  
 S. Faraji,  S. Fatehi,  Qingguo Feng,  K. D. Fenk,  J. Fosso-Tande,  
 Qinghui Ge,  A. Ghysels,  G. Gidofalvi,  J. Gomes,  J. Gonthier,  A. Gunina,  
 D. Hait,  M. W. D. Hanson-Heine,  P. H. P. Harbach,  A. W. Hauser,  
 J. E. Herr,  E. G. Hohenstein,  Z. C. Holden,  Kerwin Hui,  B. C. Huynh,  
 T.-C. Jagau,  Hyunjun Ji,  B. Kaduk,  K. Khistyaev,  Jaehoon Kim,  
 P. Klunzinger,  K. Koh,  D. Kosenkov,  L. Koulias,  T. Kowalczyk,  
 C. M. Krauter,  A. Kunitsa,  Ka Un Lao,  A. Laurent,  K. V. Lawler,  
 Joonho Lee,  D. Lefrancois,  S. Lehtola,  D. S. Levine,  Yi-Pei Li,  
 You-Sheng Lin,  Fenglai Liu,  E. Livshits,  A. Luenser,  P. Manohar,  
 E. Mansoor,  S. F. Manzer,  Shan-Ping Mao,  Yuezhi Mao,  N. Mardirossian,  
 A. V. Marenich,  T. Markovich,  L. A. Martinez-Martinez,  S. A. Maurer,  
 N. J. Mayhall,  S. C. McKenzie,  J.-M. Mewes,  A. F. Morrison,  
 J. W. Mullinax,  K. Nanda,  T. S. Nguyen-Beck,  R. Olivares-Amaya,  
 J. A. Parkhill,  T. M. Perrine,  F. Plasser,  P. Pokhilko,  S. Prager,  
 A. Prociuk,  E. Ramos,  D. R. Rehn,  F. Rob,  M. Schneider,  N. Sergueev,  
 S. M. Sharada,  S. Sharma,  D. W. Small,  T. Stauch,  T. Stein,  
 Yu-Chuan Su,  A. J. W. Thom,  A. Tkatchenko,  T. Tsuchimochi,  N. M. Tubman,  
 L. Vogt,  M. L. Vidal,  O. Vydrov,  M. A. Watson,  J. Wenzel,  
 M. de Wergifosse,  T. A. Wesolowski,  A. White,  J. Witte,  A. Yamada,  
 Jun Yang,  K. Yao,  S. Yeganeh,  S. R. Yost,  Zhi-Qiang You,  A. Zech,  
 Igor Ying Zhang,  Xing Zhang,  Yan Zhao,  Ying Zhu,  B. R. Brooks,  
 G. K. L. Chan,  C. J. Cramer,  M. S. Gordon,  W. J. Hehre,  A. Klamt,  
 M. W. Schmidt,  C. D. Sherrill,  D. G. Truhlar,  A. Aspuru-Guzik,  R. Baer,  
 A. T. Bell,  N. A. Besley,  Jeng-Da Chai,  A. E. DePrince, III,  
 R. A. DiStasio Jr.,  A. Dreuw,  B. D. Dunietz,  T. R. Furlani,  
 Chao-Ping Hsu,  Yousung Jung,  Jing Kong,  D. S. Lambrecht,  WanZhen Liang,  
 C. Ochsenfeld,  V. A. Rassolov,  L. V. Slipchenko,  J. E. Subotnik,  
 T. Van Voorhis,  J. M. Herbert,  A. I. Krylov,  P. M. W. Gill,  M. Head-Gordon

 Contributors to earlier versions of Q-Chem not listed above: 
 R. D. Adamson,  B. Austin,  J. Baker,  G. J. O. Beran,  K. Brandhorst,  
 S. T. Brown,  E. F. C. Byrd,  A. K. Chakraborty,  C.-L. Cheng,  
 Siu Hung Chien,  D. M. Chipman,  D. L. Crittenden,  H. Dachsel,  
 R. J. Doerksen,  A. D. Dutoi,  L. Fusti-Molnar,  W. A. Goddard III,  
 A. Golubeva-Zadorozhnaya,  S. R. Gwaltney,  G. Hawkins,  A. Heyden,  
 S. Hirata,  G. Kedziora,  F. J. Keil,  C. Kelley,  Jihan Kim,  R. A. King,  
 R. Z. Khaliullin,  P. P. Korambath,  W. Kurlancheek,  A. M. Lee,  M. S. Lee,  
 S. V. Levchenko,  Ching Yeh Lin,  D. Liotard,  R. C. Lochan,  I. Lotan,  
 P. E. Maslen,  N. Nair,  D. P. O'Neill,  D. Neuhauser,  E. Neuscamman,  
 C. M. Oana,  R. Olson,  B. Peters,  R. Peverati,  P. A. Pieniazek,  
 Y. M. Rhee,  J. Ritchie,  M. A. Rohrdanz,  E. Rosta,  N. J. Russ,  
 H. F. Schaefer III,  N. E. Schultz,  N. Shenvi,  A. C. Simmonett,  A. Sodt,  
 D. Stuck,  K. S. Thanthiriwatte,  V. Vanovschi,  Tao Wang,  A. Warshel,  
 C. F. Williams,  Q. Wu,  X. Xu,  W. Zhang

 Please cite Q-Chem as follows:
 Y. Shao et al., Mol. Phys. 113, 184-215 (2015)
 DOI: 10.1080/00268976.2014.952696

 Q-Chem 5.1.1 for Intel X86 EM64T Linux

 Parts of Q-Chem use Armadillo 8.300.2 (Tropical Shenanigans).
 http://arma.sourceforge.net/

 Q-Chem begins on Wed Jan 16 18:09:25 2019  

Host: big002
0

     Scratch files written to /scratch/mewes/143272/qchem19740//
 Parallel job on  1  processors
The previous job contains 0 fragments, simply inherited here
Symmetry turned off for PCM/SM12/SMD calculation
Input Ideriv = 2
Curr. Ideriv = -1
Max.  Ideriv = 2
Input Ideriv = 2
Curr. Ideriv = 2
Max.  Ideriv = 2

Checking the input file for inconsistencies... 	...done.

--------------------------------------------------------------
User input:
--------------------------------------------------------------
$rem
threads        26 
method sosadc(2)
adc_c_t 1202
basis  vdz
aux_basis rimp2-VDZ
mem_total     480000
mem_static    2000
ee_singlets   2
adc_davidson_maxsubspace        24
adc_davidson_maxiter            150
adc_davidson_conv		4
solvent_method    pcm
n_frozen_core 	fc
$end

$solvent
dielectric	2.38
dielectric_infi	2.25
$end

$pcm
vdwscale 1.3
theory iefpcm
$end

$molecule
read moms1opt_tol.mol
$end

--------------------------------------------------------------
 ----------------------------------------------------------------
             Standard Nuclear Orientation (Angstroms)
    I     Atom           X                Y                Z
 ----------------------------------------------------------------
    1      N       0.0000000000     0.0000000000     0.0000000000
    2      C       0.0000000000     0.0000000000     1.3777940000
    3      C       1.1582939163     0.0000000000    -0.7474551064
    4      C       1.2028907607    -0.1808698506     2.0839154358
    5      C       1.1311082926    -0.2263101379     3.4689172746
    6      H       2.0297665848    -0.3904260099     4.0471580676
    7      C      -0.0680179056    -0.0704370924     4.1446174175
    8      H      -0.0832545019    -0.1114165094     5.2252203347
    9      C      -1.2456466760     0.1511436374     3.4350913649
   10      H      -2.1812002989     0.2993537234     3.9557833668
   11      C      -1.2179473285     0.1878832393     2.0634578745
   12      H      -2.1302974962     0.3753933491     1.5177581630
   13      C       2.4063009813    -0.1218839390    -0.1029935401
   14      C       3.5425605545    -0.0911840833    -0.8968894792
   15      H       4.5167718082    -0.1968960956    -0.4406154582
   16      C       3.4698903827     0.0581619532    -2.2728517643
   17      H       4.3791682144     0.0853933400    -2.8576852199
   18      C       2.2304576972     0.1573521630    -2.8992593456
   19      H       2.1608009436     0.2664628106    -3.9721612748
   20      C       1.0811767388     0.1152473144    -2.1508230605
   21      H       0.1273000258     0.1870696149    -2.6508838727
   22      C      -1.2681914881    -0.0053643238    -0.6706748286
   23      C      -1.7136427770     1.1436216604    -1.2795566547
   24      H      -1.0923556311     2.0281151964    -1.2280930308
   25      C      -2.0193229773    -1.1691658861    -0.6945567089
   26      H      -1.6676601259    -2.0786184538    -0.2248870714
   27      C      -3.2458366306    -1.1114777875    -1.3179326275
   28      H      -3.8710398240    -1.9956903399    -1.3152828368
   29      C      -2.9196700397     1.1861691525    -1.9831037034
   30      C      -3.7265898720     0.0424870981    -1.9518732057
   31      C      -5.1274419578    -0.0188038698    -2.4860670870
   32      H      -5.6238973458    -0.8763047482    -2.0267856215
   33      H      -5.1286010726    -0.2065686262    -3.5633862255
   34      C       2.5209546297    -0.3825038082     1.3803469267
   35      C      -5.9144132476     1.2601170384    -2.1959847851
   36      H      -6.9791576699     1.0258668013    -2.1494001424
   37      H      -5.6442779226     1.6190347461    -1.1951485228
   38      C      -5.6824726533     2.2660758601    -3.2799847032
   39      C      -6.7544698169     2.6734072062    -4.0269232611
   40      H      -7.7476558070     2.3664553885    -3.7167884753
   41      C      -6.6416469136     3.4321409906    -5.2086701123
   42      C      -7.7869960057     3.8177580567    -5.9104819682
   43      N      -8.7514248325     4.1250324118    -6.4839239889
   44      C      -5.3039364493     3.7303569674    -5.6607423891
   45      C      -4.2196414124     3.3351459193    -4.8716088146
   46      H      -3.2385569060     3.6235124079    -5.2244650356
   47      C      -4.3453363197     2.6288335343    -3.6908521181
   48      C      -5.0614095426     4.4028809926    -6.8696250211
   49      N      -4.8524325437     4.9584034657    -7.8670154732
   50      C      -3.1273365006     2.4945328213    -2.7791581715
   51      C      -1.8310459094     2.6965044323    -3.5621005633
   52      C      -1.3145213234     1.8758687132    -4.5466192693
   53      H      -1.8586639648     0.9974429780    -4.8731959985
   54      C      -0.1009211714     2.2169134639    -5.1310406823
   55      H       0.3076024482     1.5992912850    -5.9208162890
   56      C       0.5821441311     3.3590945761    -4.7228604415
   57      H       1.5232128023     3.6156309100    -5.1916732903
   58      C       0.0626564190     4.1791910094    -3.7313605942
   59      H       0.5971354779     5.0692026540    -3.4235464582
   60      C      -1.1527199417     3.8408700617    -3.1520879615
   61      C      -1.9277228265     4.4793616083    -2.0925481525
   62      C      -1.6959798595     5.6455738462    -1.3802097907
   63      H      -0.8221629153     6.2535794989    -1.5794012474
   64      C      -2.6123090401     6.0306201190    -0.4111601114
   65      H      -2.4522976032     6.9426573212     0.1487283737
   66      C      -3.7416135090     5.2578536745    -0.1627594096
   67      H      -4.4532640669     5.5748717416     0.5885899714
   68      C      -3.9731917499     4.0886371584    -0.8768287423
   69      H      -4.8646502896     3.5060794574    -0.6855111382
   70      C      -3.0611772686     3.7026695748    -1.8412071552
   71      C       3.5801589634     0.5458609434     1.9977621344
   72      H       4.5552925066     0.3942725873     1.5388836804
   73      H       3.7068626968     0.3502277663     3.0610536285
   74      H       3.3032899829     1.5921185625     1.8748282763
   75      C       2.9386151376    -1.8588311289     1.5692435426
   76      H       3.8987998631    -2.0488715501     1.0901066359
   77      H       2.2029403078    -2.5374556571     1.1373270426
   78      H       3.0362140356    -2.0954933501     2.6288603689
 ----------------------------------------------------------------
 Nuclear Repulsion Energy =  5544.6877068736 hartrees
 There are      158 alpha and      158 beta electrons
 Requested basis set is VDZ
 There are 297 shells and 485 basis functions

 Total QAlloc Memory Limit 480000 MB
 Mega-Array Size      1956 MB
 MEM_STATIC part      2000 MB
 Discretize the solute cavity surface with Lebedev spheres
	Using 302 Lebedev grid points for each H atom
	Using 302 Lebedev grid points for other atoms
	Atomic van der Waals radii will be scaled by 1.30
 Remove points where switching function is < 1.0e-08
 Keep 7229 surface tesserae and discard 16327 interior tesserae
 Molecular Surface Area = 628.990 Angst**2
 Requested basis set is rimp2-VDZ
 There are 938 shells and 2690 basis functions
 A cutoff of  1.0D-11 yielded  26460 shell pairs
 There are     73520 function pairs
 
 -------------------------------------------------------
 OpenMP Integral Computing Module                       
 Release: version 1.0, May 2013, Q-Chem Inc. Pittsburgh 
 -------------------------------------------------------
 Integral Job Info:
 Integral job number is                      11
 Integral operator is                         1
 short-range coefficients                     0
 long-range coefficients              100000000
 Omega coefficients                           0
 if combine SR and LR in K                    0
 Integral screening is                        0
 Integral computing path is                   2
 max size of driver memory is            800000
 size of driver memory is                 45569
 size of scratch memory is              1477076
 max col of scratch BK array                289
 max len of scratch array in speh3           22
 max len of scratch index in speh4            8
 max int batch size is                      520
 min int batch size is                       52
 fixed nKL is                                52
 max L of basis functions is                  1
 order of int derivative is                   0
 number of shells is                        297
 number of basis is                         485
 number of cartesian basis is               485
 number of contracted shell pairs         26460
 number of primitive shell pairs          66951
 maxK2 (contraction) of shell pair           25
 max number of K2 of shell pair               1
 max number of CS2 of shell pair           6540
 max number of PS2 of shell pair          15885
 mem total for path MDJ                  828266
 -------------------------------------------------------
 Smallest overlap matrix eigenvalue = 2.07E-04

 Scale SEOQF with 1.000000e-02/1.000000e-02/1.000000e-02

 Standard Electronic Orientation quadrupole field applied
 Nucleus-field energy     =    -0.0000000065 hartrees
 Guess from superposition of atomic densities
 Warning:  Energy on first SCF cycle will be non-variational
 SAD guess density has 316.000000 electrons
 A restricted Hartree-Fock SCF calculation will be
 performed using Pulay DIIS extrapolation
 Polarizable Continuum solvation model will be applied
 SCF converges when DIIS error is below 1.0E-08
 using 26 threads for integral computing
 -------------------------------------------------------
 OpenMP Integral computing Module                
 Release: version 2.0, May 2017, Q-Chem Inc. Pleasanton 
 -------------------------------------------------------
 ---------------------------------------
  Cycle       Energy         DIIS Error
 ---------------------------------------
    1   -1869.6345483217      5.24E-02
 Using non-symmetric K matrix
 Warning: not using a symmetric Q
    2   -1844.8787907973      3.50E-03
    3   -1845.2790401454      2.29E-03
    4   -1845.4118092790      7.97E-04
    5   -1845.4330892659      1.66E-04
    6   -1845.4339754520      5.14E-05
    7   -1845.4340893434      1.92E-05
    8   -1845.4341102154      7.44E-06
    9   -1845.4341140996      3.40E-06
   10   -1845.4341152403      1.52E-06
   11   -1845.4341155618      7.39E-07
   12   -1845.4341156281      3.33E-07
   13   -1845.4341156413      1.20E-07
   14   -1845.4341156382      5.32E-08
   15   -1845.4341156432      2.79E-08
   16   -1845.4341156424      1.39E-08
   17   -1845.4341156484      7.23E-09 Convergence criterion met
 ---------------------------------------

************** Final PCM Free Energy Summary **************
 G_electrostatic  =      -0.01213369 hartree =      -7.61400563 kcal/mol
 G_cavitation     =       0.00000000 hartree =       0.00000000 kcal/mol
 G_dispersion     =       0.00000000 hartree =       0.00000000 kcal/mol
 G_repulsion      =       0.00000000 hartree =       0.00000000 kcal/mol
 --------------------------------------------------
 Non-electrostatic Free Energy =       0.00000000 hartree =       0.00000000 kcal/mol
 Total                         =      -0.01213369 hartree =      -7.61400563 kcal/mol
 --------------------------------------------------
 SCF Energy (H0 + V/2)                       =   -1845.43411565 
 Solute Internal Energy (H0)                 =   -1845.42198196 
 Total Free Energy (H0 + V/2 + non-elec)     =   -1845.43411565 hartree
                                             = -1158027.38567588 kcal/mol
***********************************************************

 SCF time:  CPU 2164.65 s  wall 320.08 s
 SCF   energy in the final basis set = -1845.43411565
 Total energy in the final basis set = -1845.43411565
================================================================================
|                                                                              |
|                                 A D C  M A N                                 |
|                                                                              |
 ------------------------------------------------------------------------------ 
|                                                                              |
| Components:                                                                  |
|                                                                              |
| - libvmm - 1.3-trunk                                                         |
|   Authors:                                                                   |
|   Evgeny Epifanovsky, Ilya Kaliman                                           |
|                                                                              |
| - libtensor - 2.5-trunk                                                      |
|   Authors:                                                                   |
|   Evgeny Epifanovsky, Michael Wormit, Dmitry Zuev, Sam Manzer,               |
|   Ilya Kaliman                                                               |
|                                                                              |
| - libwfa - 1.1-beta                                                          |
|   Authors:                                                                   |
|   Felix Plasser, Stefanie Baeppler, Benjamin Thomitzni, Michael Wormit       |
|                                                                              |
| - libadc - 1.1-trunk                                                         |
|   Authors:                                                                   |
|   Michael Wormit, Adrian L. Dempwolff, Philipp H. P. Harbach,                |
|   Caroline Krauter, Dirk Rehn, Matthias Schneider, Jan Wenzel                |
|                                                                              |
| - adcman - 2.6-trunk                                                         |
|   Authors:                                                                   |
|   Michael Wormit, Adrian L. Dempwolff, Philipp H. P. Harbach,                |
|   Caroline Krauter, Daniel Lefrancois, Jan-Michael Mewes, Dirk Rehn,         |
|   Matthias Schneider, Jan Wenzel, Andreas Dreuw                              |
|                                                                              |
| Authors of earlier versions of ADCMAN:                                       |
| Andreas Dreuw, Jan Hendrik Starcke, Dirk Rehn, Michael Wormit                |
|                                                                              |
================================================================================

 
 Alpha MOs, Restricted
 -- Occupied --                  
-15.616 -15.612 -15.592 -11.327 -11.324 -11.317 -11.314 -11.301
  1 A     2 A     3 A     4 A     5 A     6 A     7 A     8 A                  
-11.299 -11.293 -11.293 -11.293 -11.287 -11.286 -11.284 -11.273
  9 A    10 A    11 A    12 A    13 A    14 A    15 A    16 A                  
-11.266 -11.264 -11.261 -11.260 -11.259 -11.257 -11.256 -11.254
 17 A    18 A    19 A    20 A    21 A    22 A    23 A    24 A                  
-11.254 -11.254 -11.253 -11.252 -11.251 -11.251 -11.250 -11.250
 25 A    26 A    27 A    28 A    29 A    30 A    31 A    32 A                  
-11.250 -11.249 -11.248 -11.241 -11.240 -11.239 -11.238 -11.237
 33 A    34 A    35 A    36 A    37 A    38 A    39 A    40 A                  
-11.237 -11.232 -11.229 -11.228 -11.227 -11.218 -11.217  -1.301
 41 A    42 A    43 A    44 A    45 A    46 A    47 A    48 A                  
 -1.262  -1.253  -1.232  -1.202  -1.181  -1.159  -1.155  -1.153
 49 A    50 A    51 A    52 A    53 A    54 A    55 A    56 A                  
 -1.121  -1.114  -1.097  -1.077  -1.065  -1.058  -1.030  -1.025
 57 A    58 A    59 A    60 A    61 A    62 A    63 A    64 A                  
 -1.024  -1.012  -1.012  -0.990  -0.989  -0.969  -0.953  -0.930
 65 A    66 A    67 A    68 A    69 A    70 A    71 A    72 A                  
 -0.930  -0.892  -0.876  -0.872  -0.859  -0.858  -0.847  -0.825
 73 A    74 A    75 A    76 A    77 A    78 A    79 A    80 A                  
 -0.816  -0.812  -0.810  -0.805  -0.799  -0.776  -0.749  -0.743
 81 A    82 A    83 A    84 A    85 A    86 A    87 A    88 A                  
 -0.737  -0.732  -0.719  -0.705  -0.696  -0.687  -0.678  -0.678
 89 A    90 A    91 A    92 A    93 A    94 A    95 A    96 A                  
 -0.652  -0.651  -0.647  -0.645  -0.644  -0.640  -0.636  -0.632
 97 A    98 A    99 A   100 A   101 A   102 A   103 A   104 A                  
 -0.623  -0.619  -0.616  -0.613  -0.609  -0.605  -0.600  -0.597
105 A   106 A   107 A   108 A   109 A   110 A   111 A   112 A                  
 -0.593  -0.592  -0.591  -0.590  -0.578  -0.577  -0.570  -0.560
113 A   114 A   115 A   116 A   117 A   118 A   119 A   120 A                  
 -0.557  -0.551  -0.549  -0.542  -0.537  -0.531  -0.529  -0.526
121 A   122 A   123 A   124 A   125 A   126 A   127 A   128 A                  
 -0.526  -0.523  -0.521  -0.515  -0.511  -0.508  -0.504  -0.502
129 A   130 A   131 A   132 A   133 A   134 A   135 A   136 A                  
 -0.498  -0.496  -0.490  -0.489  -0.488  -0.485  -0.474  -0.466
137 A   138 A   139 A   140 A   141 A   142 A   143 A   144 A                  
 -0.456  -0.452  -0.401  -0.384  -0.373  -0.358  -0.350  -0.347
145 A   146 A   147 A   148 A   149 A   150 A   151 A   152 A                  
 -0.345  -0.339  -0.336  -0.333  -0.305  -0.263
153 A   154 A   155 A   156 A   157 A   158 A                                  
 -- Virtual --                   
  0.027   0.073   0.090   0.103   0.108   0.115   0.126   0.128
159 A   160 A   161 A   162 A   163 A   164 A   165 A   166 A                  
  0.141   0.149   0.170   0.172   0.175   0.177   0.181   0.183
167 A   168 A   169 A   170 A   171 A   172 A   173 A   174 A                  
  0.186   0.186   0.194   0.196   0.203   0.205   0.207   0.213
175 A   176 A   177 A   178 A   179 A   180 A   181 A   182 A                  
  0.217   0.219   0.229   0.236   0.238   0.240   0.244   0.247
183 A   184 A   185 A   186 A   187 A   188 A   189 A   190 A                  
  0.250   0.254   0.257   0.265   0.270   0.272   0.282   0.288
191 A   192 A   193 A   194 A   195 A   196 A   197 A   198 A                  
  0.297   0.298   0.301   0.305   0.315   0.321   0.324   0.326
199 A   200 A   201 A   202 A   203 A   204 A   205 A   206 A                  
  0.334   0.337   0.341   0.347   0.352   0.355   0.362   0.370
207 A   208 A   209 A   210 A   211 A   212 A   213 A   214 A                  
  0.371   0.373   0.382   0.384   0.388   0.392   0.397   0.408
215 A   216 A   217 A   218 A   219 A   220 A   221 A   222 A                  
  0.409   0.414   0.416   0.420   0.431   0.436   0.443   0.444
223 A   224 A   225 A   226 A   227 A   228 A   229 A   230 A                  
  0.449   0.455   0.457   0.457   0.461   0.465   0.467   0.471
231 A   232 A   233 A   234 A   235 A   236 A   237 A   238 A                  
  0.476   0.479   0.482   0.490   0.492   0.497   0.502   0.509
239 A   240 A   241 A   242 A   243 A   244 A   245 A   246 A                  
  0.521   0.525   0.527   0.532   0.542   0.546   0.551   0.555
247 A   248 A   249 A   250 A   251 A   252 A   253 A   254 A                  
  0.559   0.568   0.568   0.581   0.581   0.588   0.594   0.596
255 A   256 A   257 A   258 A   259 A   260 A   261 A   262 A                  
  0.600   0.606   0.611   0.619   0.622   0.625   0.629   0.633
263 A   264 A   265 A   266 A   267 A   268 A   269 A   270 A                  
  0.638   0.642   0.648   0.651   0.653   0.655   0.659   0.665
271 A   272 A   273 A   274 A   275 A   276 A   277 A   278 A                  
  0.673   0.678   0.680   0.681   0.684   0.687   0.690   0.696
279 A   280 A   281 A   282 A   283 A   284 A   285 A   286 A                  
  0.697   0.699   0.701   0.704   0.707   0.709   0.712   0.715
287 A   288 A   289 A   290 A   291 A   292 A   293 A   294 A                  
  0.717   0.719   0.726   0.730   0.740   0.742   0.747   0.755
295 A   296 A   297 A   298 A   299 A   300 A   301 A   302 A                  
  0.757   0.763   0.766   0.771   0.776   0.781   0.788   0.793
303 A   304 A   305 A   306 A   307 A   308 A   309 A   310 A                  
  0.794   0.799   0.805   0.806   0.812   0.821   0.824   0.829
311 A   312 A   313 A   314 A   315 A   316 A   317 A   318 A                  
  0.829   0.836   0.840   0.845   0.850   0.853   0.863   0.869
319 A   320 A   321 A   322 A   323 A   324 A   325 A   326 A                  
  0.872   0.872   0.876   0.877   0.884   0.886   0.888   0.900
327 A   328 A   329 A   330 A   331 A   332 A   333 A   334 A                  
  0.904   0.906   0.907   0.912   0.917   0.919   0.921   0.923
335 A   336 A   337 A   338 A   339 A   340 A   341 A   342 A                  
  0.924   0.929   0.931   0.937   0.938   0.939   0.943   0.943
343 A   344 A   345 A   346 A   347 A   348 A   349 A   350 A                  
  0.950   0.954   0.956   0.957   0.960   0.962   0.967   0.968
351 A   352 A   353 A   354 A   355 A   356 A   357 A   358 A                  
  0.970   0.973   0.976   0.979   0.982   0.983   0.985   0.989
359 A   360 A   361 A   362 A   363 A   364 A   365 A   366 A                  
  0.994   0.995   0.999   1.002   1.004   1.008   1.010   1.013
367 A   368 A   369 A   370 A   371 A   372 A   373 A   374 A                  
  1.019   1.021   1.021   1.025   1.030   1.032   1.037   1.040
375 A   376 A   377 A   378 A   379 A   380 A   381 A   382 A                  
  1.042   1.043   1.050   1.054   1.059   1.062   1.067   1.071
383 A   384 A   385 A   386 A   387 A   388 A   389 A   390 A                  
  1.072   1.078   1.080   1.082   1.091   1.095   1.096   1.099
391 A   392 A   393 A   394 A   395 A   396 A   397 A   398 A                  
  1.104   1.108   1.109   1.115   1.118   1.119   1.129   1.134
399 A   400 A   401 A   402 A   403 A   404 A   405 A   406 A                  
  1.139   1.144   1.147   1.152   1.160   1.162   1.169   1.173
407 A   408 A   409 A   410 A   411 A   412 A   413 A   414 A                  
  1.180   1.187   1.198   1.204   1.205   1.214   1.221   1.229
415 A   416 A   417 A   418 A   419 A   420 A   421 A   422 A                  
  1.232   1.237   1.238   1.247   1.261   1.267   1.272   1.292
423 A   424 A   425 A   426 A   427 A   428 A   429 A   430 A                  
  1.300   1.303   1.313   1.329   1.330   1.340   1.343   1.351
431 A   432 A   433 A   434 A   435 A   436 A   437 A   438 A                  
  1.363   1.366   1.378   1.381   1.391   1.407   1.416   1.427
439 A   440 A   441 A   442 A   443 A   444 A   445 A   446 A                  
  1.436   1.438   1.440   1.449   1.460   1.474   1.480   1.492
447 A   448 A   449 A   450 A   451 A   452 A   453 A   454 A                  
  1.494   1.501   1.510   1.527   1.531   1.538   1.560   1.566
455 A   456 A   457 A   458 A   459 A   460 A   461 A   462 A                  
  1.577   1.583   1.597   1.614   1.631   1.643   1.659   1.681
463 A   464 A   465 A   466 A   467 A   468 A   469 A   470 A                  
  1.682   1.701   1.718   1.735   1.770   1.793   1.815   1.839
471 A   472 A   473 A   474 A   475 A   476 A   477 A   478 A                  
  1.862   1.869   1.882   1.903   1.946   2.011   2.076
479 A   480 A   481 A   482 A   483 A   484 A   485 A                          
 
 Beta MOs, Restricted
 -- Occupied --                  
-15.616 -15.612 -15.592 -11.327 -11.324 -11.317 -11.314 -11.301
  1 A     2 A     3 A     4 A     5 A     6 A     7 A     8 A                  
-11.299 -11.293 -11.293 -11.293 -11.287 -11.286 -11.284 -11.273
  9 A    10 A    11 A    12 A    13 A    14 A    15 A    16 A                  
-11.266 -11.264 -11.261 -11.260 -11.259 -11.257 -11.256 -11.254
 17 A    18 A    19 A    20 A    21 A    22 A    23 A    24 A                  
-11.254 -11.254 -11.253 -11.252 -11.251 -11.251 -11.250 -11.250
 25 A    26 A    27 A    28 A    29 A    30 A    31 A    32 A                  
-11.250 -11.249 -11.248 -11.241 -11.240 -11.239 -11.238 -11.237
 33 A    34 A    35 A    36 A    37 A    38 A    39 A    40 A                  
-11.237 -11.232 -11.229 -11.228 -11.227 -11.218 -11.217  -1.301
 41 A    42 A    43 A    44 A    45 A    46 A    47 A    48 A                  
 -1.262  -1.253  -1.232  -1.202  -1.181  -1.159  -1.155  -1.153
 49 A    50 A    51 A    52 A    53 A    54 A    55 A    56 A                  
 -1.121  -1.114  -1.097  -1.077  -1.065  -1.058  -1.030  -1.025
 57 A    58 A    59 A    60 A    61 A    62 A    63 A    64 A                  
 -1.024  -1.012  -1.012  -0.990  -0.989  -0.969  -0.953  -0.930
 65 A    66 A    67 A    68 A    69 A    70 A    71 A    72 A                  
 -0.930  -0.892  -0.876  -0.872  -0.859  -0.858  -0.847  -0.825
 73 A    74 A    75 A    76 A    77 A    78 A    79 A    80 A                  
 -0.816  -0.812  -0.810  -0.805  -0.799  -0.776  -0.749  -0.743
 81 A    82 A    83 A    84 A    85 A    86 A    87 A    88 A                  
 -0.737  -0.732  -0.719  -0.705  -0.696  -0.687  -0.678  -0.678
 89 A    90 A    91 A    92 A    93 A    94 A    95 A    96 A                  
 -0.652  -0.651  -0.647  -0.645  -0.644  -0.640  -0.636  -0.632
 97 A    98 A    99 A   100 A   101 A   102 A   103 A   104 A                  
 -0.623  -0.619  -0.616  -0.613  -0.609  -0.605  -0.600  -0.597
105 A   106 A   107 A   108 A   109 A   110 A   111 A   112 A                  
 -0.593  -0.592  -0.591  -0.590  -0.578  -0.577  -0.570  -0.560
113 A   114 A   115 A   116 A   117 A   118 A   119 A   120 A                  
 -0.557  -0.551  -0.549  -0.542  -0.537  -0.531  -0.529  -0.526
121 A   122 A   123 A   124 A   125 A   126 A   127 A   128 A                  
 -0.526  -0.523  -0.521  -0.515  -0.511  -0.508  -0.504  -0.502
129 A   130 A   131 A   132 A   133 A   134 A   135 A   136 A                  
 -0.498  -0.496  -0.490  -0.489  -0.488  -0.485  -0.474  -0.466
137 A   138 A   139 A   140 A   141 A   142 A   143 A   144 A                  
 -0.456  -0.452  -0.401  -0.384  -0.373  -0.358  -0.350  -0.347
145 A   146 A   147 A   148 A   149 A   150 A   151 A   152 A                  
 -0.345  -0.339  -0.336  -0.333  -0.305  -0.263
153 A   154 A   155 A   156 A   157 A   158 A                                  
 -- Virtual --                   
  0.027   0.073   0.090   0.103   0.108   0.115   0.126   0.128
159 A   160 A   161 A   162 A   163 A   164 A   165 A   166 A                  
  0.141   0.149   0.170   0.172   0.175   0.177   0.181   0.183
167 A   168 A   169 A   170 A   171 A   172 A   173 A   174 A                  
  0.186   0.186   0.194   0.196   0.203   0.205   0.207   0.213
175 A   176 A   177 A   178 A   179 A   180 A   181 A   182 A                  
  0.217   0.219   0.229   0.236   0.238   0.240   0.244   0.247
183 A   184 A   185 A   186 A   187 A   188 A   189 A   190 A                  
  0.250   0.254   0.257   0.265   0.270   0.272   0.282   0.288
191 A   192 A   193 A   194 A   195 A   196 A   197 A   198 A                  
  0.297   0.298   0.301   0.305   0.315   0.321   0.324   0.326
199 A   200 A   201 A   202 A   203 A   204 A   205 A   206 A                  
  0.334   0.337   0.341   0.347   0.352   0.355   0.362   0.370
207 A   208 A   209 A   210 A   211 A   212 A   213 A   214 A                  
  0.371   0.373   0.382   0.384   0.388   0.392   0.397   0.408
215 A   216 A   217 A   218 A   219 A   220 A   221 A   222 A                  
  0.409   0.414   0.416   0.420   0.431   0.436   0.443   0.444
223 A   224 A   225 A   226 A   227 A   228 A   229 A   230 A                  
  0.449   0.455   0.457   0.457   0.461   0.465   0.467   0.471
231 A   232 A   233 A   234 A   235 A   236 A   237 A   238 A                  
  0.476   0.479   0.482   0.490   0.492   0.497   0.502   0.509
239 A   240 A   241 A   242 A   243 A   244 A   245 A   246 A                  
  0.521   0.525   0.527   0.532   0.542   0.546   0.551   0.555
247 A   248 A   249 A   250 A   251 A   252 A   253 A   254 A                  
  0.559   0.568   0.568   0.581   0.581   0.588   0.594   0.596
255 A   256 A   257 A   258 A   259 A   260 A   261 A   262 A                  
  0.600   0.606   0.611   0.619   0.622   0.625   0.629   0.633
263 A   264 A   265 A   266 A   267 A   268 A   269 A   270 A                  
  0.638   0.642   0.648   0.651   0.653   0.655   0.659   0.665
271 A   272 A   273 A   274 A   275 A   276 A   277 A   278 A                  
  0.673   0.678   0.680   0.681   0.684   0.687   0.690   0.696
279 A   280 A   281 A   282 A   283 A   284 A   285 A   286 A                  
  0.697   0.699   0.701   0.704   0.707   0.709   0.712   0.715
287 A   288 A   289 A   290 A   291 A   292 A   293 A   294 A                  
  0.717   0.719   0.726   0.730   0.740   0.742   0.747   0.755
295 A   296 A   297 A   298 A   299 A   300 A   301 A   302 A                  
  0.757   0.763   0.766   0.771   0.776   0.781   0.788   0.793
303 A   304 A   305 A   306 A   307 A   308 A   309 A   310 A                  
  0.794   0.799   0.805   0.806   0.812   0.821   0.824   0.829
311 A   312 A   313 A   314 A   315 A   316 A   317 A   318 A                  
  0.829   0.836   0.840   0.845   0.850   0.853   0.863   0.869
319 A   320 A   321 A   322 A   323 A   324 A   325 A   326 A                  
  0.872   0.872   0.876   0.877   0.884   0.886   0.888   0.900
327 A   328 A   329 A   330 A   331 A   332 A   333 A   334 A                  
  0.904   0.906   0.907   0.912   0.917   0.919   0.921   0.923
335 A   336 A   337 A   338 A   339 A   340 A   341 A   342 A                  
  0.924   0.929   0.931   0.937   0.938   0.939   0.943   0.943
343 A   344 A   345 A   346 A   347 A   348 A   349 A   350 A                  
  0.950   0.954   0.956   0.957   0.960   0.962   0.967   0.968
351 A   352 A   353 A   354 A   355 A   356 A   357 A   358 A                  
  0.970   0.973   0.976   0.979   0.982   0.983   0.985   0.989
359 A   360 A   361 A   362 A   363 A   364 A   365 A   366 A                  
  0.994   0.995   0.999   1.002   1.004   1.008   1.010   1.013
367 A   368 A   369 A   370 A   371 A   372 A   373 A   374 A                  
  1.019   1.021   1.021   1.025   1.030   1.032   1.037   1.040
375 A   376 A   377 A   378 A   379 A   380 A   381 A   382 A                  
  1.042   1.043   1.050   1.054   1.059   1.062   1.067   1.071
383 A   384 A   385 A   386 A   387 A   388 A   389 A   390 A                  
  1.072   1.078   1.080   1.082   1.091   1.095   1.096   1.099
391 A   392 A   393 A   394 A   395 A   396 A   397 A   398 A                  
  1.104   1.108   1.109   1.115   1.118   1.119   1.129   1.134
399 A   400 A   401 A   402 A   403 A   404 A   405 A   406 A                  
  1.139   1.144   1.147   1.152   1.160   1.162   1.169   1.173
407 A   408 A   409 A   410 A   411 A   412 A   413 A   414 A                  
  1.180   1.187   1.198   1.204   1.205   1.214   1.221   1.229
415 A   416 A   417 A   418 A   419 A   420 A   421 A   422 A                  
  1.232   1.237   1.238   1.247   1.261   1.267   1.272   1.292
423 A   424 A   425 A   426 A   427 A   428 A   429 A   430 A                  
  1.300   1.303   1.313   1.329   1.330   1.340   1.343   1.351
431 A   432 A   433 A   434 A   435 A   436 A   437 A   438 A                  
  1.363   1.366   1.378   1.381   1.391   1.407   1.416   1.427
439 A   440 A   441 A   442 A   443 A   444 A   445 A   446 A                  
  1.436   1.438   1.440   1.449   1.460   1.474   1.480   1.492
447 A   448 A   449 A   450 A   451 A   452 A   453 A   454 A                  
  1.494   1.501   1.510   1.527   1.531   1.538   1.560   1.566
455 A   456 A   457 A   458 A   459 A   460 A   461 A   462 A                  
  1.577   1.583   1.597   1.614   1.631   1.643   1.659   1.681
463 A   464 A   465 A   466 A   467 A   468 A   469 A   470 A                  
  1.682   1.701   1.718   1.735   1.770   1.793   1.815   1.839
471 A   472 A   473 A   474 A   475 A   476 A   477 A   478 A                  
  1.862   1.869   1.882   1.903   1.946   2.011   2.076
479 A   480 A   481 A   482 A   483 A   484 A   485 A                          
 Allocate memory from largest block for RI integral import:
 4294967296 Words
After allocate
After lock_rw
 RI intergral threshold: 1.0000000000e-08
 Allocate memory from largest block for RI integral import:
 4294967296 Words
After allocate
After lock_rw
 RI intergral threshold: 1.0000000000e-08
 Allocate memory from largest block for RI integral import:
 4294967296 Words
After allocate
After lock_rw
 RI intergral threshold: 1.0000000000e-08
 Allocate memory from largest block for RI integral import:
 4294967296 Words
After allocate
After lock_rw
 RI intergral threshold: 1.0000000000e-08
 Allocate memory from largest block for RI integral import:
 4294967296 Words
After allocate
After lock_rw
 RI intergral threshold: 1.0000000000e-08
 Allocate memory from largest block for RI integral import:
 4294967296 Words
After allocate
After lock_rw
 RI intergral threshold: 1.0000000000e-08

--------------------------------------------------------------------------------
                                   HF Summary                                   
--------------------------------------------------------------------------------
  Energy:                                                 -1845.4341156484 a.u.
  Dip. moment [a.u.]:                  [   1.155937,   -1.555925,    2.692884]
  Total dipole [Debye]:                                               8.433360
  <r^2> [a.u.]:                        [15284.398427,  8775.998285, 13142.624168]
  Total <r^2> [a.u.]:                                              37203.020880
--------------------------------------------------------------------------------

--------------------------------------------------------------------------------
                               SOS-MP(2) Summary                                
--------------------------------------------------------------------------------
  MP energy contribution:                                   -3.6722577708 a.u.
  Total energy (PTE-PCM approach):                       -1849.1063734192 a.u.
  Dip. moment [a.u.]:                  [   1.014726,   -1.407593,    2.430251]
  Total dipole [Debye]:                                               7.590044
  <r^2> [a.u.]:                        [15282.631308,  8773.378153, 13137.640944]
  Total <r^2> [a.u.]:                                              37193.650406
--------------------------------------------------------------------------------
  Starting Davidson for singlet states of irrep A ... 
--------------------------------------------------------------------------------
   It NVec Conv  Avg. Norm  Max. Norm  Conv. states           Remark
--------------------------------------------------------------------------------
         2    0  3.289e-01  4.768e-01  0.3232 n n             Guess.
    1    4    0  2.090e-01  3.450e-01  0.2026 n n             
    2    6    0  5.261e-02  8.060e-02  0.1682 n n             
    3    8    0  2.838e-02  4.074e-02  0.1636 n n             
    4   10    0  2.368e-02  4.066e-02  0.1615 n n             
    5   12    0  2.555e-02  4.886e-02  0.1610 n n             
    6   14    0  2.745e-02  5.264e-02  0.1606 n n             
    7   16    0  2.128e-02  3.477e-02  0.1601 n n             
    8   18    0  3.889e-02  5.912e-02  0.1569 n n             
    9   20    0  2.478e-02  4.178e-02  0.1527 n n             
   10   22    0  2.163e-02  3.133e-02  0.1504 n n             
   11   24    0  2.148e-02  3.795e-02  0.1493 n n             
   12    4    0  1.305e-02  2.263e-02  0.1489 n n             Subspace collapsed.
   13    6    0  1.593e-02  2.976e-02  0.1487 n n             
   14    8    0  1.443e-02  2.643e-02  0.1485 n n             
   15   10    0  1.275e-02  2.334e-02  0.1483 n n             
   16   12    0  1.488e-02  2.742e-02  0.1481 n n             
   17   14    0  1.515e-02  2.676e-02  0.1478 n n             
   18   16    0  1.519e-02  2.409e-02  0.1474 n n             
   19   18    0  1.383e-02  1.959e-02  0.1467 n n             
   20   20    0  1.457e-02  2.276e-02  0.1459 n n             
   21   22    0  1.489e-02  2.592e-02  0.1447 n n             
   22   24    0  1.532e-02  2.797e-02  0.1435 n n             
   23    4    0  8.349e-03  1.541e-02  0.1429 n n             Subspace collapsed.
   24    6    0  8.232e-03  1.529e-02  0.1424 n n             
   25    8    0  6.321e-03  1.178e-02  0.1421 n n             
   26   10    0  6.344e-03  1.185e-02  0.1419 n n             
   27   12    0  5.940e-03  1.104e-02  0.1417 n n             
   28   14    0  4.387e-03  8.101e-03  0.1415 n n             
   29   16    0  3.497e-03  6.385e-03  0.1415 n n             
   30   18    0  2.608e-03  4.702e-03  0.1414 n n             
   31   20    0  2.364e-03  4.211e-03  0.1414 n n             
   32   22    0  1.525e-03  2.650e-03  0.1414 n n             
   33   24    0  1.372e-03  2.323e-03  0.1414 n n             
   34    4    0  1.148e-03  1.918e-03  0.1413 n n             Subspace collapsed.
   35    6    0  1.506e-03  2.438e-03  0.1413 n n             
   36    8    0  1.351e-03  2.057e-03  0.1413 n n             
   37   10    0  1.318e-03  1.883e-03  0.1413 n n             
   38   12    0  1.227e-03  1.903e-03  0.1413 n n             
   39   14    0  1.171e-03  1.944e-03  0.1413 n n             
   40   16    0  9.991e-04  1.743e-03  0.1413 n n             
   41   18    0  9.237e-04  1.679e-03  0.1413 n n             
   42   20    0  9.061e-04  1.687e-03  0.1413 n n             
   43   22    0  8.360e-04  1.596e-03  0.1413 n n             
   44   24    0  1.382e-03  2.682e-03  0.1413 n n             
   45    4    0  7.229e-04  1.405e-03  0.1413 n n             Subspace collapsed.
   46    6    0  7.462e-04  1.451e-03  0.1413 n n             
   47    8    0  7.360e-04  1.438e-03  0.1413 n n             
   48   10    0  7.863e-04  1.543e-03  0.1413 n n             
   49   12    0  8.987e-04  1.774e-03  0.1413 n n             
   50   14    0  7.836e-04  1.553e-03  0.1413 n n             
   51   16    0  7.238e-04  1.438e-03  0.1413 n n             
   52   18    0  7.266e-04  1.446e-03  0.1413 n n             
   53   20    0  7.102e-04  1.415e-03  0.1413 n n             
   54   22    1  5.694e-04  1.136e-03  0.1413 y n             
   55   24    1  7.607e-04  1.519e-03  0.1413 y n             
   56    4    1  4.543e-04  9.071e-04  0.1413 y n             Subspace collapsed.
   57    6    1  6.279e-04  1.254e-03  0.1413 y n             
   58    8    1  6.130e-04  1.224e-03  0.1413 y n             
   59   10    1  5.718e-04  1.143e-03  0.1413 y n             
   60   12    1  6.926e-04  1.384e-03  0.1413 y n             
   61   14    1  6.836e-04  1.367e-03  0.1413 y n             
   62   16    1  5.810e-04  1.162e-03  0.1413 y n             
   63   18    1  5.735e-04  1.147e-03  0.1413 y n             
   64   20    1  6.284e-04  1.257e-03  0.1413 y n             
   65   22    1  6.401e-04  1.280e-03  0.1413 y n             
   66   24    1  8.967e-04  1.793e-03  0.1413 y n             
   67    4    1  5.303e-04  1.061e-03  0.1413 y n             Subspace collapsed.
   68    6    1  5.454e-04  1.091e-03  0.1413 y n             
   69    8    1  5.136e-04  1.027e-03  0.1413 y n             
   70   10    1  4.801e-04  9.601e-04  0.1413 y n             
   71   12    1  5.146e-04  1.029e-03  0.1413 y n             
   72   14    1  5.339e-04  1.068e-03  0.1413 y n             
   73   16    1  4.885e-04  9.771e-04  0.1413 y n             
   74   18    1  5.084e-04  1.017e-03  0.1413 y n             
   75   20    1  4.640e-04  9.280e-04  0.1413 y n             
   76   22    1  3.715e-04  7.429e-04  0.1413 y n             
   77   24    1  4.657e-04  9.314e-04  0.1413 y n             
   78    4    1  2.999e-04  5.998e-04  0.1413 y n             Subspace collapsed.
   79    6    1  4.233e-04  8.465e-04  0.1413 y n             
   80    8    1  4.383e-04  8.766e-04  0.1413 y n             
   81   10    1  4.011e-04  8.022e-04  0.1413 y n             
   82   12    1  4.775e-04  9.549e-04  0.1413 y n             
   83   14    1  4.180e-04  8.360e-04  0.1413 y n             
   84   16    1  4.239e-04  8.479e-04  0.1413 y n             
   85   18    1  3.690e-04  7.379e-04  0.1413 y n             
   86   20    1  4.443e-04  8.887e-04  0.1413 y n             
   87   22    1  4.473e-04  8.945e-04  0.1413 y n             
   88   24    1  5.910e-04  1.182e-03  0.1413 y n             
   89    4    1  3.852e-04  7.704e-04  0.1413 y n             Subspace collapsed.
   90    6    1  3.830e-04  7.659e-04  0.1413 y n             
   91    8    1  3.139e-04  6.277e-04  0.1413 y n             
   92   10    1  3.352e-04  6.703e-04  0.1413 y n             
   93   12    1  3.266e-04  6.533e-04  0.1413 y n             
   94   14    1  3.679e-04  7.358e-04  0.1413 y n             
   95   16    1  3.380e-04  6.760e-04  0.1413 y n             
   96   18    1  3.153e-04  6.305e-04  0.1413 y n             
   97   20    1  3.084e-04  6.168e-04  0.1413 y n             
   98   22    1  2.429e-04  4.858e-04  0.1413 y n             
   99   24    1  3.195e-04  6.390e-04  0.1413 y n             
  100    4    1  2.097e-04  4.195e-04  0.1413 y n             Subspace collapsed.
  101    6    1  2.679e-04  5.357e-04  0.1413 y n             
  102    8    1  2.827e-04  5.653e-04  0.1413 y n             
  103   10    1  2.815e-04  5.630e-04  0.1413 y n             
  104   12    1  3.076e-04  6.152e-04  0.1413 y n             
  105   14    1  2.566e-04  5.133e-04  0.1413 y n             
  106   16    1  2.573e-04  5.145e-04  0.1413 y n             
  107   18    1  2.636e-04  5.273e-04  0.1413 y n             
  108   20    1  2.706e-04  5.411e-04  0.1413 y n             
  109   22    1  2.990e-04  5.981e-04  0.1413 y n             
  110   24    1  4.132e-04  8.263e-04  0.1413 y n             
  111    4    1  2.607e-04  5.214e-04  0.1413 y n             Subspace collapsed.
  112    6    1  2.334e-04  4.668e-04  0.1413 y n             
  113    7    1  2.267e-04  4.534e-04  0.1413 y n             
  114    8    1  2.002e-04  4.003e-04  0.1413 y n             
  115    9    1  1.962e-04  3.924e-04  0.1413 y n             
  116   10    1  2.404e-04  4.807e-04  0.1413 y n             
  117   11    1  2.180e-04  4.359e-04  0.1413 y n             
  118   12    1  1.915e-04  3.830e-04  0.1413 y n             
  119   13    1  2.000e-04  4.000e-04  0.1413 y n             
  120   14    1  1.544e-04  3.089e-04  0.1413 y n             
  121   15    1  2.020e-04  4.041e-04  0.1413 y n             
  122   16    1  4.532e-04  9.063e-04  0.1413 y n             
  123   17    1  3.957e-04  7.914e-04  0.1413 y n             
  124   18    1  3.477e-04  6.953e-04  0.1413 y n             
  125   19    1  2.728e-04  5.457e-04  0.1413 y n             
  126   20    1  3.106e-04  6.213e-04  0.1413 y n             
  127   21    1  2.130e-04  4.260e-04  0.1413 y n             
  128   22    1  1.890e-04  3.780e-04  0.1413 y n             
  129   23    1  1.900e-04  3.799e-04  0.1413 y n             
  130   24    1  1.830e-04  3.660e-04  0.1413 y n             
  131    3    1  1.133e-04  2.266e-04  0.1413 y n             Subspace collapsed.
  132    4    1  1.141e-04  2.282e-04  0.1413 y n             
  133    5    1  1.062e-04  2.124e-04  0.1413 y n             
  134    6    1  1.020e-04  2.039e-04  0.1413 y n             
  135    7    1  9.552e-05  1.910e-04  0.1413 y n             
  136    8    1  9.049e-05  1.810e-04  0.1413 y n             
  137    9    1  6.845e-05  1.369e-04  0.1413 y n             
  138   10    1  6.201e-05  1.240e-04  0.1413 y n             
  139   11    2  4.455e-05  8.910e-05  0.1413 y y             Converged.
--------------------------------------------------------------------------------
  Davidson Summary: 
 ------------------------------------------------------------
  State  0: excitation energy =   0.1413 a.u.   (converged)
  State  1: excitation energy =   0.1485 a.u.   (converged)
 ------------------------------------------------------------

 Using non-symmetric K matrix
 Warning: not using a symmetric Q
 Using non-symmetric K matrix
 Warning: not using a symmetric Q
 Using non-symmetric K matrix
 Warning: not using a symmetric Q
### Total solute-solvent interaction energy of state 1: -0.5070 eV
 Using non-symmetric K matrix
 Warning: not using a symmetric Q
### Total solute-solvent interaction energy of state 2: -0.5352 eV

--------------------------------------------------------------------------------
                             Excited State Summary
--------------------------------------------------------------------------------
                   ## ADC calculation with PCM solvent model ##
     Please cite DOI: 10.1021/jp511163y  for ptSS non-equilibrium formalism
             and DOI: 10.1039/C6CP05986D for EqS solvent-field equilibration.
--------------------------------------------------------------------------------

  Excited state 1 (singlet, A)                                     [converged]
  ----------------------------------------------------------------------------
  Term symbol:  2 (1) A                                     R^2 =  1.65618e-09

  Total energy (PCM 0th order):                          -1848.9650624338 a.u.
  Total energy (PCM 1st order, incl. ptSS):              -1848.9892327553 a.u.
  Total energy (PCM 1st order, incl. ptSS & PTD):        -1848.9896484766 a.u.

  Excitation energy (PCM 0th order):                             3.845267 eV

  Excitation energy (PCM 1st order, incl. ptSS/ptLR and PTD terms):
   ADC(2)/ptSS-PCM(PTE):                                         3.187560 eV
   ADC(2)/ptSS-PCM(PTD): << used for fosc & etot                 3.176247 eV
   ADC(2)/ptSS-PCM(PTD*):                                        3.169460 eV

  Perturbative 1st order terms:
   ptLR fast term, use with ADC(1):                             -0.018644 eV
   ptSS fast term, use with ADC(2) and ADC(3):                  -0.657708 eV

  Perturbative PTD correction:
   PTD  slow-term correlation correction:                       -0.011312 eV
   with empirical scaling (*1.6) for ADC(2)/PTD*:               -0.018100 eV

  ### Transition properties computed with ptSS-PCM 1st order energies:
  Osc. strength:                                                      0.002273
  Trans. dip. moment [a.u.]:           [   0.105294,   -0.098387,    0.091855]
  <i|r^2|0> [a.u.]:                    [   1.621218,    0.495941,    0.079588]

  Dip. moment [a.u.]:                  [  10.985817,   -6.704328,   10.446599]
  Total dipole [Debye]:                                              42.132291
  <r^2> [a.u.]:                        [15370.044326,  8809.426409, 13196.414556]
  Total <r^2> [a.u.]:                                              37375.885291

  V1^2 = 0.8647, V2^2 = 0.1353

  Important amplitudes:
       occ i       occ j       vir a       vir b          v   
    -----------------------------------------------------------
     158 (A) A               159 (A) A                 -0.6057
     158 (A) A               162 (A) A                 -0.1533
    -----------------------------------------------------------
  ----------------------------------------------------------------------------


  Excited state 2 (singlet, A)                                     [converged]
  ----------------------------------------------------------------------------
  Term symbol:  3 (1) A                                     R^2 =  8.91020e-05

  Total energy (PCM 0th order):                          -1848.9578819602 a.u.
  Total energy (PCM 1st order, incl. ptSS):              -1848.9584264154 a.u.
  Total energy (PCM 1st order, incl. ptSS & PTD):        -1848.9585132223 a.u.

  Excitation energy (PCM 0th order):                             4.040658 eV

  Excitation energy (PCM 1st order, incl. ptSS/ptLR and PTD terms):
   ADC(2)/ptSS-PCM(PTE):                                         4.025843 eV
   ADC(2)/ptSS-PCM(PTD): << used for fosc & etot                 4.023481 eV
   ADC(2)/ptSS-PCM(PTD*):                                        4.022063 eV

  Perturbative 1st order terms:
   ptLR fast term, use with ADC(1):                             -0.217787 eV
   ptSS fast term, use with ADC(2) and ADC(3):                  -0.014815 eV

  Perturbative PTD correction:
   PTD  slow-term correlation correction:                       -0.002362 eV
   with empirical scaling (*1.6) for ADC(2)/PTD*:               -0.003779 eV

  ### Transition properties computed with ptSS-PCM 1st order energies:
  Osc. strength:                                                      0.015565
  Trans. dip. moment [a.u.]:           [  -0.345489,    0.146580,   -0.130579]
  <i|r^2|0> [a.u.]:                    [   0.737658,    0.242579,   -1.668831]

  Dip. moment [a.u.]:                  [   2.032841,   -1.537461,    1.991518]
  Total dipole [Debye]:                                               8.221430
  <r^2> [a.u.]:                        [15285.715029,  8775.163920, 13142.060926]
  Total <r^2> [a.u.]:                                              37202.939875

  V1^2 = 0.8964, V2^2 = 0.1036

  Important amplitudes:
       occ i       occ j       vir a       vir b          v   
    -----------------------------------------------------------
     158 (A) A               165 (A) A                 -0.3900
     158 (A) A               162 (A) A                  0.2736
    -----------------------------------------------------------
  ----------------------------------------------------------------------------


--------------------------------------------------------------------------------
  Time of ADC calculation:  CPU 353514.04 s  wall 37906.44 s
================================================================================
 
 --------------------------------------------------------------
 
                    Orbital Energies (a.u.)
 --------------------------------------------------------------
 
 Alpha MOs
 -- Occupied --
-15.616 -15.612 -15.592 -11.327 -11.324 -11.317 -11.314 -11.301
-11.299 -11.293 -11.293 -11.293 -11.287 -11.286 -11.284 -11.273
-11.266 -11.264 -11.261 -11.260 -11.259 -11.257 -11.256 -11.254
-11.254 -11.254 -11.253 -11.252 -11.251 -11.251 -11.250 -11.250
-11.250 -11.249 -11.248 -11.241 -11.240 -11.239 -11.238 -11.237
-11.237 -11.232 -11.229 -11.228 -11.227 -11.218 -11.217  -1.301
 -1.262  -1.253  -1.232  -1.202  -1.181  -1.159  -1.155  -1.153
 -1.121  -1.114  -1.097  -1.077  -1.065  -1.058  -1.030  -1.025
 -1.024  -1.012  -1.012  -0.990  -0.989  -0.969  -0.953  -0.930
 -0.930  -0.892  -0.876  -0.872  -0.859  -0.858  -0.847  -0.825
 -0.816  -0.812  -0.810  -0.805  -0.799  -0.776  -0.749  -0.743
 -0.737  -0.732  -0.719  -0.705  -0.696  -0.687  -0.678  -0.678
 -0.652  -0.651  -0.647  -0.645  -0.644  -0.640  -0.636  -0.632
 -0.623  -0.619  -0.616  -0.613  -0.609  -0.605  -0.600  -0.597
 -0.593  -0.592  -0.591  -0.590  -0.578  -0.577  -0.570  -0.560
 -0.557  -0.551  -0.549  -0.542  -0.537  -0.531  -0.529  -0.526
 -0.526  -0.523  -0.521  -0.515  -0.511  -0.508  -0.504  -0.502
 -0.498  -0.496  -0.490  -0.489  -0.488  -0.485  -0.474  -0.466
 -0.456  -0.452  -0.401  -0.384  -0.373  -0.358  -0.350  -0.347
 -0.345  -0.339  -0.336  -0.333  -0.305  -0.263
 -- Virtual --
  0.027   0.073   0.090   0.103   0.108   0.115   0.126   0.128
  0.141   0.149   0.170   0.172   0.175   0.177   0.181   0.183
  0.186   0.186   0.194   0.196   0.203   0.205   0.207   0.213
  0.217   0.219   0.229   0.236   0.238   0.240   0.244   0.247
  0.250   0.254   0.257   0.265   0.270   0.272   0.282   0.288
  0.297   0.298   0.301   0.305   0.315   0.321   0.324   0.326
  0.334   0.337   0.341   0.347   0.352   0.355   0.362   0.370
  0.371   0.373   0.382   0.384   0.388   0.392   0.397   0.408
  0.409   0.414   0.416   0.420   0.431   0.436   0.443   0.444
  0.449   0.455   0.457   0.457   0.461   0.465   0.467   0.471
  0.476   0.479   0.482   0.490   0.492   0.497   0.502   0.509
  0.521   0.525   0.527   0.532   0.542   0.546   0.551   0.555
  0.559   0.568   0.568   0.581   0.581   0.588   0.594   0.596
  0.600   0.606   0.611   0.619   0.622   0.625   0.629   0.633
  0.638   0.642   0.648   0.651   0.653   0.655   0.659   0.665
  0.673   0.678   0.680   0.681   0.684   0.687   0.690   0.696
  0.697   0.699   0.701   0.704   0.707   0.709   0.712   0.715
  0.717   0.719   0.726   0.730   0.740   0.742   0.747   0.755
  0.757   0.763   0.766   0.771   0.776   0.781   0.788   0.793
  0.794   0.799   0.805   0.806   0.812   0.821   0.824   0.829
  0.829   0.836   0.840   0.845   0.850   0.853   0.863   0.869
  0.872   0.872   0.876   0.877   0.884   0.886   0.888   0.900
  0.904   0.906   0.907   0.912   0.917   0.919   0.921   0.923
  0.924   0.929   0.931   0.937   0.938   0.939   0.943   0.943
  0.950   0.954   0.956   0.957   0.960   0.962   0.967   0.968
  0.970   0.973   0.976   0.979   0.982   0.983   0.985   0.989
  0.994   0.995   0.999   1.002   1.004   1.008   1.010   1.013
  1.019   1.021   1.021   1.025   1.030   1.032   1.037   1.040
  1.042   1.043   1.050   1.054   1.059   1.062   1.067   1.071
  1.072   1.078   1.080   1.082   1.091   1.095   1.096   1.099
  1.104   1.108   1.109   1.115   1.118   1.119   1.129   1.134
  1.139   1.144   1.147   1.152   1.160   1.162   1.169   1.173
  1.180   1.187   1.198   1.204   1.205   1.214   1.221   1.229
  1.232   1.237   1.238   1.247   1.261   1.267   1.272   1.292
  1.300   1.303   1.313   1.329   1.330   1.340   1.343   1.351
  1.363   1.366   1.378   1.381   1.391   1.407   1.416   1.427
  1.436   1.438   1.440   1.449   1.460   1.474   1.480   1.492
  1.494   1.501   1.510   1.527   1.531   1.538   1.560   1.566
  1.577   1.583   1.597   1.614   1.631   1.643   1.659   1.681
  1.682   1.701   1.718   1.735   1.770   1.793   1.815   1.839
  1.862   1.869   1.882   1.903   1.946   2.011   2.076
 --------------------------------------------------------------
 
          Ground-State Mulliken Net Atomic Charges

     Atom                 Charge (a.u.)
  ----------------------------------------
      1 N                    -0.940272
      2 C                     0.327759
      3 C                     0.346758
      4 C                    -0.009160
      5 C                    -0.162384
      6 H                     0.125803
      7 C                    -0.123919
      8 H                     0.111430
      9 C                    -0.074308
     10 H                     0.117506
     11 C                    -0.166410
     12 H                     0.145251
     13 C                    -0.012039
     14 C                    -0.163352
     15 H                     0.124050
     16 C                    -0.123043
     17 H                     0.109622
     18 C                    -0.076539
     19 H                     0.118528
     20 C                    -0.206832
     21 H                     0.181685
     22 C                     0.194097
     23 C                    -0.111302
     24 H                     0.169056
     25 C                    -0.026887
     26 H                     0.129827
     27 C                    -0.161749
     28 H                     0.118098
     29 C                     0.093639
     30 C                    -0.116911
     31 C                    -0.124829
     32 H                     0.139740
     33 H                     0.154523
     34 C                    -0.363712
     35 C                    -0.168271
     36 H                     0.142199
     37 H                     0.172385
     38 C                    -0.061214
     39 C                    -0.116007
     40 H                     0.150929
     41 C                    -0.002849
     42 C                    -0.230348
     43 N                     0.102228
     44 C                    -0.018757
     45 C                    -0.101321
     46 H                     0.199454
     47 C                     0.099654
     48 C                    -0.230791
     49 N                     0.101426
     50 C                    -0.383202
     51 C                    -0.082231
     52 C                    -0.051278
     53 H                     0.124715
     54 C                    -0.123718
     55 H                     0.130928
     56 C                    -0.097921
     57 H                     0.128600
     58 C                    -0.084310
     59 H                     0.125137
     60 C                    -0.008765
     61 C                    -0.031912
     62 C                    -0.086385
     63 H                     0.126134
     64 C                    -0.104455
     65 H                     0.128926
     66 C                    -0.117896
     67 H                     0.126581
     68 C                    -0.093854
     69 H                     0.133006
     70 C                     0.063371
     71 C                    -0.173215
     72 H                     0.119703
     73 H                     0.119176
     74 H                     0.125645
     75 C                    -0.145441
     76 H                     0.115079
     77 H                     0.120454
     78 H                     0.114685
  ----------------------------------------
  Sum of atomic charges =    -0.000000

 -----------------------------------------------------------------
                    Cartesian Multipole Moments
 -----------------------------------------------------------------
    Charge (ESU x 10^10)
                -0.0000
    Dipole Moment (Debye)
         X       2.9381      Y      -3.9548      Z       6.8446
       Tot       8.4334
    Quadrupole Moments (Debye-Ang)
        XX    -304.5828     XY      42.9331     YY    -300.2874
        XZ     -64.0684     YZ      52.1004     ZZ    -351.9374
    Octopole Moments (Debye-Ang^2)
       XXX    1943.2546    XXY    -835.0177    XYY     722.6552
       YYY   -1560.5440    XXZ    1048.2874    XYZ    -417.8993
       YYZ     810.4458    XZZ    1119.0945    YZZ    -968.4468
       ZZZ    2260.4691
    Hexadecapole Moments (Debye-Ang^3)
      XXXX  -27104.3390   XXXY    8654.1761   XXYY   -7706.9417
      XYYY    6866.7396   YYYY  -13181.3879   XXXZ  -11851.2105
      XXYZ    4835.4520   XYYZ   -4482.7336   YYYZ    7230.4493
      XXZZ  -11479.7370   XYZZ    5107.2908   YYZZ   -8028.3015
      XZZZ  -12172.1015   YZZZ    9661.0647   ZZZZ  -25494.1692
 -----------------------------------------------------------------
Archival summary:
1\1\big002\SP\HF\BasisUnspecified\34431\mewes\ThuJan1704:48:412019ThuJan1704:48:412019\0\\#,HF,BasisUnspecified,\\0,1\N\C,1,1.37779\C,1,1.37853,2,122.834\C,2,1.40651,1,120.135,3,-8.55109,0\C,4,1.3876,2,117.456,1,-177.412,0\H,5,1.08115,4,119.723,2,178.367,0\C,5,1.3852,4,121.869,2,-1.44514,0\H,7,1.08149,5,119.692,4,-179.957,0\C,7,1.3926,5,120.093,4,-0.590282,0\H,9,1.0809,7,120.551,5,-178.404,0\C,9,1.37241,7,119.762,5,1.2958,0\H,11,1.0795,9,119.526,7,-179.04,0\C,3,1.40986,1,119.731,2,5.71362,0\C,13,1.38647,3,117.503,1,-178.813,0\H,14,1.08095,13,119.653,3,-179.068,0\C,14,1.38595,13,121.863,3,0.237536,0\H,16,1.08146,14,119.704,13,179.514,0\C,16,1.39227,14,120.068,13,-1.20905,0\H,18,1.08068,16,120.747,14,-179.529,0\C,18,1.37214,16,119.87,14,0.401254,0\H,20,1.0794,18,119.042,16,-179.618,0\C,1,1.43462,2,117.872,3,179.758,0\C,22,1.37453,1,119.37,2,106.105,0\H,23,1.08212,22,118.432,1,-0.457719,0\C,22,1.38535,1,119.373,2,-74.0213,0\H,25,1.08229,22,121.484,1,-0.49253,0\C,25,1.37705,22,117.099,1,178.193,0\H,27,1.08292,25,118.614,22,-177.507,0\C,23,1.39689,22,121.895,1,177.936,0\C,29,1.40004,23,117.483,22,5.45999,0\C,30,1.5005,29,124.299,23,171.091,0\H,31,1.09211,30,107.863,29,-160.228,0\H,31,1.09356,30,111.022,29,83.8025,0\C,4,1.50763,2,122.046,1,-0.152804,0\C,31,1.52942,30,112.253,29,-38.8197,0\H,35,1.0912,31,109.309,30,-153.151,0\H,35,1.09703,31,108.658,30,-38.1892,0\C,35,1.49693,31,110.174,30,87.0371,0\C,38,1.36858,35,118.286,31,117.76,0\H,39,1.08481,38,118.482,35,8.74748,0\C,39,1.40888,38,123.735,35,-168.875,0\C,41,1.39752,39,120.278,38,-179.535,0\N,42,1.16335,41,178.984,39,-14.8583,0\C,41,1.44318,39,116.632,38,2.76384,0\C,44,1.39808,41,118.925,39,-4.11456,0\H,45,1.08175,44,116.354,41,-177.002,0\C,45,1.38162,44,123.803,41,2.2235,0\C,44,1.40446,41,121.913,39,175.772,0\N,48,1.16063,44,179.57,41,178.139,0\C,47,1.52733,45,118.851,44,-167.964,0\C,50,1.5278,47,111.045,45,-22.3543,0\C,51,1.38185,50,127.139,47,-66.9092,0\H,52,1.08369,51,120.557,50,2.68131,0\C,52,1.38949,51,118.71,50,-178.852,0\H,54,1.08263,52,119.761,51,-178.513,0\C,54,1.39204,52,120.44,51,0.438343,0\H,56,1.08222,54,119.615,52,-179.6,0\C,56,1.38762,54,120.713,52,-0.268408,0\H,58,1.08284,56,120.271,54,-179.629,0\C,58,1.38822,56,118.809,54,-0.013014,0\C,60,1.45977,58,131.382,56,178.857,0\C,61,1.38607,60,130.713,58,2.50723,0\H,62,1.08301,61,120.846,60,0.488403,0\C,62,1.38816,61,118.802,60,179.896,0\H,64,1.08208,62,119.827,61,-179.46,0\C,64,1.39076,62,120.436,61,-0.026342,0\H,66,1.08235,64,119.679,62,-179.377,0\C,66,1.38946,64,120.738,62,0.048829,0\H,68,1.08198,66,119.969,64,-178.927,0\C,68,1.3823,66,118.917,64,0.022802,0\C,34,1.53785,4,109.515,2,132.11,0\H,71,1.08832,34,111.331,4,177.611,0\H,71,1.08854,34,111.337,4,59.0444,0\H,71,1.08923,34,111.068,4,-61.6168,0\C,34,1.54585,4,107.873,2,-108.231,0\H,75,1.08979,34,110.54,4,-179.019,0\H,75,1.09009,34,111.333,4,60.726,0\H,75,1.0901,34,110.506,4,-59.3965,0\\HF=-1845.43412\\@

 Total job time:  38356.09s(wall), 355836.67s(cpu) 
 Thu Jan 17 04:48:41 2019

        *************************************************************
        *                                                           *
        *  Thank you very much for using Q-Chem.  Have a nice day.  *
        *                                                           *
        *************************************************************


0 sent ACK to 0 
now end server 0 ... 
 
*************************************************************
Job 2 of 3 
*************************************************************
 
mFile = /cm/shared/apps/q-chem/intel/QCHEM_5.1.0_Trunk/bin/mpi/machines
Process 0 of 1 is on big002 - thread support 0
initial socket setup ...start
initial socket setup ...done 
now start server 0 ... 
Q-Chem Developer Version!
                  Welcome to Q-Chem
     A Quantum Leap Into The Future Of Chemistry


 Q-Chem 5.1, Q-Chem, Inc., Pleasanton, CA (2018)

 Yihan Shao,  Zhengting Gan,  E. Epifanovsky,  A. T. B. Gilbert,  M. Wormit,  
 J. Kussmann,  A. W. Lange,  A. Behn,  Jia Deng,  Xintian Feng,  D. Ghosh,  
 M. Goldey,  P. R. Horn,  L. D. Jacobson,  I. Kaliman,  T. Kus,  A. Landau,  
 Jie Liu,  E. I. Proynov,  R. M. Richard,  R. P. Steele,  E. J. Sundstrom,  
 H. L. Woodcock III,  P. M. Zimmerman,  D. Zuev,  B. Albrecht,  E. Alguire,  
 S. A. Baeppler,  D. Barton,  Z. Benda,  Y. A. Bernard,  E. J. Berquist,  
 K. B. Bravaya,  H. Burton,  D. Casanova,  Chun-Min Chang,  Yunqing Chen,  
 A. Chien,  K. D. Closser,  M. P. Coons,  S. Coriani,  S. Dasgupta,  
 A. L. Dempwolff,  M. Diedenhofen,  Hainam Do,  R. G. Edgar,  Po-Tung Fang,  
 S. Faraji,  S. Fatehi,  Qingguo Feng,  K. D. Fenk,  J. Fosso-Tande,  
 Qinghui Ge,  A. Ghysels,  G. Gidofalvi,  J. Gomes,  J. Gonthier,  A. Gunina,  
 D. Hait,  M. W. D. Hanson-Heine,  P. H. P. Harbach,  A. W. Hauser,  
 J. E. Herr,  E. G. Hohenstein,  Z. C. Holden,  Kerwin Hui,  B. C. Huynh,  
 T.-C. Jagau,  Hyunjun Ji,  B. Kaduk,  K. Khistyaev,  Jaehoon Kim,  
 P. Klunzinger,  K. Koh,  D. Kosenkov,  L. Koulias,  T. Kowalczyk,  
 C. M. Krauter,  A. Kunitsa,  Ka Un Lao,  A. Laurent,  K. V. Lawler,  
 Joonho Lee,  D. Lefrancois,  S. Lehtola,  D. S. Levine,  Yi-Pei Li,  
 You-Sheng Lin,  Fenglai Liu,  E. Livshits,  A. Luenser,  P. Manohar,  
 E. Mansoor,  S. F. Manzer,  Shan-Ping Mao,  Yuezhi Mao,  N. Mardirossian,  
 A. V. Marenich,  T. Markovich,  L. A. Martinez-Martinez,  S. A. Maurer,  
 N. J. Mayhall,  S. C. McKenzie,  J.-M. Mewes,  A. F. Morrison,  
 J. W. Mullinax,  K. Nanda,  T. S. Nguyen-Beck,  R. Olivares-Amaya,  
 J. A. Parkhill,  T. M. Perrine,  F. Plasser,  P. Pokhilko,  S. Prager,  
 A. Prociuk,  E. Ramos,  D. R. Rehn,  F. Rob,  M. Schneider,  N. Sergueev,  
 S. M. Sharada,  S. Sharma,  D. W. Small,  T. Stauch,  T. Stein,  
 Yu-Chuan Su,  A. J. W. Thom,  A. Tkatchenko,  T. Tsuchimochi,  N. M. Tubman,  
 L. Vogt,  M. L. Vidal,  O. Vydrov,  M. A. Watson,  J. Wenzel,  
 M. de Wergifosse,  T. A. Wesolowski,  A. White,  J. Witte,  A. Yamada,  
 Jun Yang,  K. Yao,  S. Yeganeh,  S. R. Yost,  Zhi-Qiang You,  A. Zech,  
 Igor Ying Zhang,  Xing Zhang,  Yan Zhao,  Ying Zhu,  B. R. Brooks,  
 G. K. L. Chan,  C. J. Cramer,  M. S. Gordon,  W. J. Hehre,  A. Klamt,  
 M. W. Schmidt,  C. D. Sherrill,  D. G. Truhlar,  A. Aspuru-Guzik,  R. Baer,  
 A. T. Bell,  N. A. Besley,  Jeng-Da Chai,  A. E. DePrince, III,  
 R. A. DiStasio Jr.,  A. Dreuw,  B. D. Dunietz,  T. R. Furlani,  
 Chao-Ping Hsu,  Yousung Jung,  Jing Kong,  D. S. Lambrecht,  WanZhen Liang,  
 C. Ochsenfeld,  V. A. Rassolov,  L. V. Slipchenko,  J. E. Subotnik,  
 T. Van Voorhis,  J. M. Herbert,  A. I. Krylov,  P. M. W. Gill,  M. Head-Gordon

 Contributors to earlier versions of Q-Chem not listed above: 
 R. D. Adamson,  B. Austin,  J. Baker,  G. J. O. Beran,  K. Brandhorst,  
 S. T. Brown,  E. F. C. Byrd,  A. K. Chakraborty,  C.-L. Cheng,  
 Siu Hung Chien,  D. M. Chipman,  D. L. Crittenden,  H. Dachsel,  
 R. J. Doerksen,  A. D. Dutoi,  L. Fusti-Molnar,  W. A. Goddard III,  
 A. Golubeva-Zadorozhnaya,  S. R. Gwaltney,  G. Hawkins,  A. Heyden,  
 S. Hirata,  G. Kedziora,  F. J. Keil,  C. Kelley,  Jihan Kim,  R. A. King,  
 R. Z. Khaliullin,  P. P. Korambath,  W. Kurlancheek,  A. M. Lee,  M. S. Lee,  
 S. V. Levchenko,  Ching Yeh Lin,  D. Liotard,  R. C. Lochan,  I. Lotan,  
 P. E. Maslen,  N. Nair,  D. P. O'Neill,  D. Neuhauser,  E. Neuscamman,  
 C. M. Oana,  R. Olson,  B. Peters,  R. Peverati,  P. A. Pieniazek,  
 Y. M. Rhee,  J. Ritchie,  M. A. Rohrdanz,  E. Rosta,  N. J. Russ,  
 H. F. Schaefer III,  N. E. Schultz,  N. Shenvi,  A. C. Simmonett,  A. Sodt,  
 D. Stuck,  K. S. Thanthiriwatte,  V. Vanovschi,  Tao Wang,  A. Warshel,  
 C. F. Williams,  Q. Wu,  X. Xu,  W. Zhang

 Please cite Q-Chem as follows:
 Y. Shao et al., Mol. Phys. 113, 184-215 (2015)
 DOI: 10.1080/00268976.2014.952696

 Q-Chem 5.1.1 for Intel X86 EM64T Linux

 Parts of Q-Chem use Armadillo 8.300.2 (Tropical Shenanigans).
 http://arma.sourceforge.net/

 Q-Chem begins on Thu Jan 17 04:48:47 2019  

Host: big002
0

     Scratch files written to /scratch/mewes/143272/qchem19740//
 Parallel job on  1  processors
The previous job contains 0 fragments, simply inherited here
Symmetry turned off for PCM/SM12/SMD calculation
Input Ideriv = 2
Curr. Ideriv = -1
Max.  Ideriv = 2
Input Ideriv = 2
Curr. Ideriv = 2
Max.  Ideriv = 2

Checking the input file for inconsistencies... 	...done.

--------------------------------------------------------------
User input:
--------------------------------------------------------------

$rem
threads        26
method sosadc(2)
adc_c_t 1202
basis  vdz 
aux_basis rimp2-VDZ
mem_total     480000
mem_static    2000
ee_singlets   1
adc_davidson_maxsubspace        24  
adc_davidson_maxiter            100
adc_davidson_conv		6
solvent_method    pcm
n_frozen_core   fc
$end

$pcm
theory iefpcm
eqsolv  30
eqstate 1
vdwscale 1.3
$end

$solvent
dielectric      2.38
dielectric_infi 2.25
$end

$molecule
read
$end

--------------------------------------------------------------
 ----------------------------------------------------------------
             Standard Nuclear Orientation (Angstroms)
    I     Atom           X                Y                Z
 ----------------------------------------------------------------
    1      N       0.0000000000     0.0000000000     0.0000000000
    2      C       0.0000000000     0.0000000000     1.3777940000
    3      C       1.1582939163     0.0000000000    -0.7474551064
    4      C       1.2028907607    -0.1808698506     2.0839154358
    5      C       1.1311082926    -0.2263101379     3.4689172746
    6      H       2.0297665848    -0.3904260099     4.0471580676
    7      C      -0.0680179056    -0.0704370924     4.1446174175
    8      H      -0.0832545019    -0.1114165094     5.2252203347
    9      C      -1.2456466760     0.1511436374     3.4350913649
   10      H      -2.1812002989     0.2993537234     3.9557833668
   11      C      -1.2179473285     0.1878832393     2.0634578745
   12      H      -2.1302974962     0.3753933491     1.5177581630
   13      C       2.4063009813    -0.1218839390    -0.1029935401
   14      C       3.5425605545    -0.0911840833    -0.8968894792
   15      H       4.5167718082    -0.1968960956    -0.4406154582
   16      C       3.4698903827     0.0581619532    -2.2728517643
   17      H       4.3791682144     0.0853933400    -2.8576852199
   18      C       2.2304576972     0.1573521630    -2.8992593456
   19      H       2.1608009436     0.2664628106    -3.9721612748
   20      C       1.0811767388     0.1152473144    -2.1508230605
   21      H       0.1273000258     0.1870696149    -2.6508838727
   22      C      -1.2681914881    -0.0053643238    -0.6706748286
   23      C      -1.7136427770     1.1436216604    -1.2795566547
   24      H      -1.0923556311     2.0281151964    -1.2280930308
   25      C      -2.0193229773    -1.1691658861    -0.6945567089
   26      H      -1.6676601259    -2.0786184538    -0.2248870714
   27      C      -3.2458366306    -1.1114777875    -1.3179326275
   28      H      -3.8710398240    -1.9956903399    -1.3152828368
   29      C      -2.9196700397     1.1861691525    -1.9831037034
   30      C      -3.7265898720     0.0424870981    -1.9518732057
   31      C      -5.1274419578    -0.0188038698    -2.4860670870
   32      H      -5.6238973458    -0.8763047482    -2.0267856215
   33      H      -5.1286010726    -0.2065686262    -3.5633862255
   34      C       2.5209546297    -0.3825038082     1.3803469267
   35      C      -5.9144132476     1.2601170384    -2.1959847851
   36      H      -6.9791576699     1.0258668013    -2.1494001424
   37      H      -5.6442779226     1.6190347461    -1.1951485228
   38      C      -5.6824726533     2.2660758601    -3.2799847032
   39      C      -6.7544698169     2.6734072062    -4.0269232611
   40      H      -7.7476558070     2.3664553885    -3.7167884753
   41      C      -6.6416469136     3.4321409906    -5.2086701123
   42      C      -7.7869960057     3.8177580567    -5.9104819682
   43      N      -8.7514248325     4.1250324118    -6.4839239889
   44      C      -5.3039364493     3.7303569674    -5.6607423891
   45      C      -4.2196414124     3.3351459193    -4.8716088146
   46      H      -3.2385569060     3.6235124079    -5.2244650356
   47      C      -4.3453363197     2.6288335343    -3.6908521181
   48      C      -5.0614095426     4.4028809926    -6.8696250211
   49      N      -4.8524325437     4.9584034657    -7.8670154732
   50      C      -3.1273365006     2.4945328213    -2.7791581715
   51      C      -1.8310459094     2.6965044323    -3.5621005633
   52      C      -1.3145213234     1.8758687132    -4.5466192693
   53      H      -1.8586639648     0.9974429780    -4.8731959985
   54      C      -0.1009211714     2.2169134639    -5.1310406823
   55      H       0.3076024482     1.5992912850    -5.9208162890
   56      C       0.5821441311     3.3590945761    -4.7228604415
   57      H       1.5232128023     3.6156309100    -5.1916732903
   58      C       0.0626564190     4.1791910094    -3.7313605942
   59      H       0.5971354779     5.0692026540    -3.4235464582
   60      C      -1.1527199417     3.8408700617    -3.1520879615
   61      C      -1.9277228265     4.4793616083    -2.0925481525
   62      C      -1.6959798595     5.6455738462    -1.3802097907
   63      H      -0.8221629153     6.2535794989    -1.5794012474
   64      C      -2.6123090401     6.0306201190    -0.4111601114
   65      H      -2.4522976032     6.9426573212     0.1487283737
   66      C      -3.7416135090     5.2578536745    -0.1627594096
   67      H      -4.4532640669     5.5748717416     0.5885899714
   68      C      -3.9731917499     4.0886371584    -0.8768287423
   69      H      -4.8646502896     3.5060794574    -0.6855111382
   70      C      -3.0611772686     3.7026695748    -1.8412071552
   71      C       3.5801589634     0.5458609434     1.9977621344
   72      H       4.5552925066     0.3942725873     1.5388836804
   73      H       3.7068626968     0.3502277663     3.0610536285
   74      H       3.3032899829     1.5921185625     1.8748282763
   75      C       2.9386151376    -1.8588311289     1.5692435426
   76      H       3.8987998631    -2.0488715501     1.0901066359
   77      H       2.2029403078    -2.5374556571     1.1373270426
   78      H       3.0362140356    -2.0954933501     2.6288603689
 ----------------------------------------------------------------
 Nuclear Repulsion Energy =  5544.6877068736 hartrees
 There are      158 alpha and      158 beta electrons
 Requested basis set is VDZ
 There are 297 shells and 485 basis functions

 Total QAlloc Memory Limit 480000 MB
 Mega-Array Size      1956 MB
 MEM_STATIC part      2000 MB
 Discretize the solute cavity surface with Lebedev spheres
	Using 302 Lebedev grid points for each H atom
	Using 302 Lebedev grid points for other atoms
	Atomic van der Waals radii will be scaled by 1.30
 Remove points where switching function is < 1.0e-08
 Keep 7229 surface tesserae and discard 16327 interior tesserae
 Molecular Surface Area = 628.990 Angst**2
 Requested basis set is rimp2-VDZ
 There are 938 shells and 2690 basis functions
 A cutoff of  1.0D-11 yielded  26460 shell pairs
 There are     73520 function pairs
 
 -------------------------------------------------------
 OpenMP Integral Computing Module                       
 Release: version 1.0, May 2013, Q-Chem Inc. Pittsburgh 
 -------------------------------------------------------
 Integral Job Info:
 Integral job number is                      11
 Integral operator is                         1
 short-range coefficients                     0
 long-range coefficients              100000000
 Omega coefficients                           0
 if combine SR and LR in K                    0
 Integral screening is                        0
 Integral computing path is                   2
 max size of driver memory is            800000
 size of driver memory is                 45569
 size of scratch memory is              1477076
 max col of scratch BK array                289
 max len of scratch array in speh3           22
 max len of scratch index in speh4            8
 max int batch size is                      520
 min int batch size is                       52
 fixed nKL is                                52
 max L of basis functions is                  1
 order of int derivative is                   0
 number of shells is                        297
 number of basis is                         485
 number of cartesian basis is               485
 number of contracted shell pairs         26460
[...]
  2.073   2.074   2.079   2.088   2.096   2.100   2.107   2.113
535 A   536 A   537 A   538 A   539 A   540 A   541 A   542 A                  
  2.123   2.134   2.135   2.140   2.145   2.161   2.166   2.168
543 A   544 A   545 A   546 A   547 A   548 A   549 A   550 A                  
  2.173   2.177   2.179   2.186   2.190   2.195   2.206   2.212
551 A   552 A   553 A   554 A   555 A   556 A   557 A   558 A                  
  2.216   2.218   2.232   2.234   2.237   2.243   2.247   2.253
559 A   560 A   561 A   562 A   563 A   564 A   565 A   566 A                  
  2.261   2.264   2.271   2.276   2.288   2.304   2.313   2.332
567 A   568 A   569 A   570 A   571 A   572 A   573 A   574 A                  
  2.348   2.349   2.358   2.362   2.365   2.366   2.374   2.378
575 A   576 A   577 A   578 A   579 A   580 A   581 A   582 A                  
  2.386   2.392   2.396   2.401   2.417   2.424   2.429   2.437
583 A   584 A   585 A   586 A   587 A   588 A   589 A   590 A                  
  2.440   2.447   2.447   2.449   2.456   2.461   2.467   2.471
591 A   592 A   593 A   594 A   595 A   596 A   597 A   598 A                  
  2.474   2.477   2.487   2.490   2.497   2.507   2.512   2.514
599 A   600 A   601 A   602 A   603 A   604 A   605 A   606 A                  
  2.521   2.522   2.529   2.548   2.550   2.556   2.557   2.566
607 A   608 A   609 A   610 A   611 A   612 A   613 A   614 A                  
  2.570   2.574   2.578   2.581   2.587   2.593   2.596   2.600
615 A   616 A   617 A   618 A   619 A   620 A   621 A   622 A                  
  2.614   2.621   2.624   2.633   2.639   2.643   2.649   2.656
623 A   624 A   625 A   626 A   627 A   628 A   629 A   630 A                  
  2.662   2.667   2.682   2.690   2.693   2.703   2.710   2.724
631 A   632 A   633 A   634 A   635 A   636 A   637 A   638 A                  
  2.732   2.738   2.740   2.753   2.760   2.774   2.783   2.788
639 A   640 A   641 A   642 A   643 A   644 A   645 A   646 A                  
  2.794   2.802   2.820   2.829   2.840   2.861   2.871   2.884
647 A   648 A   649 A   650 A   651 A   652 A   653 A   654 A                  
  2.890   2.894   2.900   2.908   2.911   2.921   2.934   2.943
655 A   656 A   657 A   658 A   659 A   660 A   661 A   662 A                  
  2.963   2.965   2.982   2.990   2.997   3.004   3.008   3.013
663 A   664 A   665 A   666 A   667 A   668 A   669 A   670 A                  
  3.016   3.023   3.034   3.038   3.040   3.053   3.071   3.075
671 A   672 A   673 A   674 A   675 A   676 A   677 A   678 A                  
  3.096   3.100   3.107   3.115   3.129   3.135   3.137   3.155
679 A   680 A   681 A   682 A   683 A   684 A   685 A   686 A                  
  3.162   3.170   3.182   3.191   3.199   3.229   3.246   3.259
687 A   688 A   689 A   690 A   691 A   692 A   693 A   694 A                  
  3.262   3.265   3.273   3.292   3.305   3.334   3.367   3.367
695 A   696 A   697 A   698 A   699 A   700 A   701 A   702 A                  
  3.368   3.373   3.403   3.430   3.453   3.552   3.624   3.637
703 A   704 A   705 A   706 A   707 A   708 A   709 A   710 A                  
  3.660   3.675   3.698   3.720   3.806   3.837   3.880   3.928
711 A   712 A   713 A   714 A   715 A   716 A   717 A   718 A                  
  3.957   3.978
719 A   720 A                                                                  
 
 Beta MOs, Restricted
 -- Occupied --                  
-15.633 -15.627 -15.566 -11.350 -11.347 -11.339 -11.334 -11.320
  1 A     2 A     3 A     4 A     5 A     6 A     7 A     8 A                  
-11.314 -11.311 -11.306 -11.301 -11.271 -11.268 -11.265 -11.265
  9 A    10 A    11 A    12 A    13 A    14 A    15 A    16 A                  
-11.261 -11.259 -11.258 -11.258 -11.257 -11.257 -11.257 -11.256
 17 A    18 A    19 A    20 A    21 A    22 A    23 A    24 A                  
-11.254 -11.253 -11.252 -11.252 -11.252 -11.249 -11.248 -11.237
 25 A    26 A    27 A    28 A    29 A    30 A    31 A    32 A                  
-11.234 -11.233 -11.218 -11.205 -11.204 -11.203 -11.203 -11.202
 33 A    34 A    35 A    36 A    37 A    38 A    39 A    40 A                  
-11.201 -11.197 -11.197 -11.192 -11.191 -11.182 -11.181  -1.273
 41 A    42 A    43 A    44 A    45 A    46 A    47 A    48 A                  
 -1.272  -1.257  -1.237  -1.213  -1.169  -1.156  -1.136  -1.123
 49 A    50 A    51 A    52 A    53 A    54 A    55 A    56 A                  
 -1.117  -1.115  -1.090  -1.068  -1.060  -1.058  -1.027  -1.020
 57 A    58 A    59 A    60 A    61 A    62 A    63 A    64 A                  
 -1.012  -0.991  -0.989  -0.977  -0.970  -0.955  -0.949  -0.925
 65 A    66 A    67 A    68 A    69 A    70 A    71 A    72 A                  
 -0.902  -0.895  -0.880  -0.875  -0.843  -0.838  -0.829  -0.823
 73 A    74 A    75 A    76 A    77 A    78 A    79 A    80 A                  
 -0.819  -0.814  -0.808  -0.795  -0.779  -0.770  -0.745  -0.739
 81 A    82 A    83 A    84 A    85 A    86 A    87 A    88 A                  
 -0.722  -0.717  -0.710  -0.703  -0.697  -0.689  -0.678  -0.673
 89 A    90 A    91 A    92 A    93 A    94 A    95 A    96 A                  
 -0.667  -0.653  -0.647  -0.639  -0.632  -0.624  -0.623  -0.621
 97 A    98 A    99 A   100 A   101 A   102 A   103 A   104 A                  
 -0.617  -0.616  -0.613  -0.611  -0.610  -0.609  -0.606  -0.598
105 A   106 A   107 A   108 A   109 A   110 A   111 A   112 A                  
 -0.595  -0.585  -0.584  -0.576  -0.569  -0.568  -0.563  -0.561
113 A   114 A   115 A   116 A   117 A   118 A   119 A   120 A                  
 -0.551  -0.551  -0.546  -0.539  -0.535  -0.533  -0.524  -0.520
121 A   122 A   123 A   124 A   125 A   126 A   127 A   128 A                  
 -0.519  -0.518  -0.516  -0.515  -0.514  -0.510  -0.504  -0.502
129 A   130 A   131 A   132 A   133 A   134 A   135 A   136 A                  
 -0.501  -0.491  -0.490  -0.489  -0.473  -0.470  -0.461  -0.439
137 A   138 A   139 A   140 A   141 A   142 A   143 A   144 A                  
 -0.429  -0.424  -0.411  -0.400  -0.389  -0.366  -0.357  -0.337
145 A   146 A   147 A   148 A   149 A   150 A   151 A   152 A                  
 -0.335  -0.313  -0.305  -0.305  -0.304  -0.235
153 A   154 A   155 A   156 A   157 A   158 A                                  
 -- Virtual --                   
 -0.005   0.052   0.076   0.098   0.109   0.118   0.136   0.141
159 A   160 A   161 A   162 A   163 A   164 A   165 A   166 A                  
  0.151   0.154   0.156   0.159   0.169   0.174   0.174   0.178
167 A   168 A   169 A   170 A   171 A   172 A   173 A   174 A                  
  0.179   0.189   0.194   0.196   0.203   0.206   0.210   0.214
175 A   176 A   177 A   178 A   179 A   180 A   181 A   182 A                  
  0.216   0.224   0.230   0.233   0.238   0.245   0.246   0.258
183 A   184 A   185 A   186 A   187 A   188 A   189 A   190 A                  
  0.260   0.264   0.268   0.273   0.282   0.282   0.289   0.294
191 A   192 A   193 A   194 A   195 A   196 A   197 A   198 A                  
  0.298   0.304   0.307   0.317   0.321   0.324   0.328   0.331
199 A   200 A   201 A   202 A   203 A   204 A   205 A   206 A                  
  0.334   0.336   0.342   0.348   0.353   0.356   0.365   0.369
207 A   208 A   209 A   210 A   211 A   212 A   213 A   214 A                  
  0.374   0.378   0.382   0.384   0.394   0.399   0.403   0.405
215 A   216 A   217 A   218 A   219 A   220 A   221 A   222 A                  
  0.406   0.413   0.418   0.419   0.429   0.432   0.434   0.438
223 A   224 A   225 A   226 A   227 A   228 A   229 A   230 A                  
  0.440   0.445   0.447   0.452   0.460   0.467   0.470   0.478
231 A   232 A   233 A   234 A   235 A   236 A   237 A   238 A                  
  0.482   0.485   0.490   0.493   0.499   0.501   0.506   0.513
239 A   240 A   241 A   242 A   243 A   244 A   245 A   246 A                  
  0.515   0.520   0.527   0.530   0.539   0.544   0.548   0.552
247 A   248 A   249 A   250 A   251 A   252 A   253 A   254 A                  
  0.554   0.558   0.560   0.564   0.565   0.574   0.583   0.585
255 A   256 A   257 A   258 A   259 A   260 A   261 A   262 A                  
  0.589   0.595   0.599   0.601   0.608   0.610   0.612   0.620
263 A   264 A   265 A   266 A   267 A   268 A   269 A   270 A                  
  0.624   0.629   0.637   0.642   0.645   0.654   0.658   0.662
271 A   272 A   273 A   274 A   275 A   276 A   277 A   278 A                  
  0.668   0.670   0.671   0.674   0.676   0.682   0.684   0.687
279 A   280 A   281 A   282 A   283 A   284 A   285 A   286 A                  
  0.691   0.693   0.696   0.698   0.699   0.702   0.704   0.706
287 A   288 A   289 A   290 A   291 A   292 A   293 A   294 A                  
  0.713   0.716   0.720   0.726   0.729   0.731   0.732   0.736
295 A   296 A   297 A   298 A   299 A   300 A   301 A   302 A                  
  0.744   0.746   0.751   0.757   0.764   0.776   0.779   0.782
303 A   304 A   305 A   306 A   307 A   308 A   309 A   310 A                  
  0.786   0.789   0.792   0.798   0.799   0.805   0.812   0.814
311 A   312 A   313 A   314 A   315 A   316 A   317 A   318 A                  
  0.824   0.827   0.830   0.832   0.834   0.835   0.836   0.839
319 A   320 A   321 A   322 A   323 A   324 A   325 A   326 A                  
  0.850   0.856   0.858   0.863   0.868   0.878   0.881   0.885
327 A   328 A   329 A   330 A   331 A   332 A   333 A   334 A                  
  0.889   0.893   0.893   0.898   0.905   0.907   0.913   0.915
335 A   336 A   337 A   338 A   339 A   340 A   341 A   342 A                  
  0.920   0.925   0.926   0.927   0.930   0.933   0.935   0.937
343 A   344 A   345 A   346 A   347 A   348 A   349 A   350 A                  
  0.938   0.942   0.944   0.947   0.950   0.953   0.955   0.957
351 A   352 A   353 A   354 A   355 A   356 A   357 A   358 A                  
  0.959   0.964   0.966   0.970   0.974   0.976   0.979   0.980
359 A   360 A   361 A   362 A   363 A   364 A   365 A   366 A                  
  0.984   0.989   0.992   0.993   0.995   0.998   1.001   1.004
367 A   368 A   369 A   370 A   371 A   372 A   373 A   374 A                  
  1.006   1.007   1.008   1.012   1.017   1.019   1.022   1.024
375 A   376 A   377 A   378 A   379 A   380 A   381 A   382 A                  
  1.027   1.029   1.032   1.039   1.042   1.046   1.049   1.051
383 A   384 A   385 A   386 A   387 A   388 A   389 A   390 A                  
  1.053   1.055   1.061   1.068   1.072   1.074   1.076   1.085
391 A   392 A   393 A   394 A   395 A   396 A   397 A   398 A                  
  1.086   1.090   1.091   1.096   1.101   1.108   1.110   1.116
399 A   400 A   401 A   402 A   403 A   404 A   405 A   406 A                  
  1.117   1.120   1.123   1.127   1.135   1.139   1.145   1.149
407 A   408 A   409 A   410 A   411 A   412 A   413 A   414 A                  
  1.157   1.159   1.166   1.170   1.176   1.184   1.187   1.190
415 A   416 A   417 A   418 A   419 A   420 A   421 A   422 A                  
  1.203   1.206   1.208   1.212   1.219   1.223   1.239   1.244
423 A   424 A   425 A   426 A   427 A   428 A   429 A   430 A                  
  1.249   1.256   1.265   1.270   1.282   1.297   1.307   1.309
431 A   432 A   433 A   434 A   435 A   436 A   437 A   438 A                  
  1.318   1.319   1.322   1.334   1.343   1.345   1.357   1.358
439 A   440 A   441 A   442 A   443 A   444 A   445 A   446 A                  
  1.378   1.387   1.390   1.394   1.403   1.410   1.418   1.429
447 A   448 A   449 A   450 A   451 A   452 A   453 A   454 A                  
  1.435   1.444   1.453   1.464   1.475   1.484   1.488   1.499
455 A   456 A   457 A   458 A   459 A   460 A   461 A   462 A                  
  1.501   1.504   1.514   1.523   1.526   1.528   1.546   1.553
463 A   464 A   465 A   466 A   467 A   468 A   469 A   470 A                  
  1.557   1.566   1.571   1.591   1.593   1.602   1.613   1.616
471 A   472 A   473 A   474 A   475 A   476 A   477 A   478 A                  
  1.621   1.627   1.633   1.650   1.658   1.667   1.676   1.679
479 A   480 A   481 A   482 A   483 A   484 A   485 A   486 A                  
  1.690   1.702   1.704   1.711   1.731   1.735   1.739   1.746
487 A   488 A   489 A   490 A   491 A   492 A   493 A   494 A                  
  1.752   1.754   1.759   1.762   1.772   1.781   1.782   1.787
495 A   496 A   497 A   498 A   499 A   500 A   501 A   502 A                  
  1.795   1.802   1.808   1.811   1.816   1.819   1.822   1.829
503 A   504 A   505 A   506 A   507 A   508 A   509 A   510 A                  
  1.830   1.842   1.850   1.852   1.863   1.870   1.879   1.935
511 A   512 A   513 A   514 A   515 A   516 A   517 A   518 A                  
  1.949   1.957   1.962   1.975   1.985   1.995   1.996   2.014
519 A   520 A   521 A   522 A   523 A   524 A   525 A   526 A                  
  2.015   2.033   2.037   2.047   2.051   2.054   2.062   2.065
527 A   528 A   529 A   530 A   531 A   532 A   533 A   534 A                  
  2.073   2.074   2.079   2.088   2.096   2.100   2.107   2.113
535 A   536 A   537 A   538 A   539 A   540 A   541 A   542 A                  
  2.123   2.134   2.135   2.140   2.145   2.161   2.166   2.168
543 A   544 A   545 A   546 A   547 A   548 A   549 A   550 A                  
  2.173   2.177   2.179   2.186   2.190   2.195   2.206   2.212
551 A   552 A   553 A   554 A   555 A   556 A   557 A   558 A                  
  2.216   2.218   2.232   2.234   2.237   2.243   2.247   2.253
559 A   560 A   561 A   562 A   563 A   564 A   565 A   566 A                  
  2.261   2.264   2.271   2.276   2.288   2.304   2.313   2.332
567 A   568 A   569 A   570 A   571 A   572 A   573 A   574 A                  
  2.348   2.349   2.358   2.362   2.365   2.366   2.374   2.378
575 A   576 A   577 A   578 A   579 A   580 A   581 A   582 A                  
  2.386   2.392   2.396   2.401   2.417   2.424   2.429   2.437
583 A   584 A   585 A   586 A   587 A   588 A   589 A   590 A                  
  2.440   2.447   2.447   2.449   2.456   2.461   2.467   2.471
591 A   592 A   593 A   594 A   595 A   596 A   597 A   598 A                  
  2.474   2.477   2.487   2.490   2.497   2.507   2.512   2.514
599 A   600 A   601 A   602 A   603 A   604 A   605 A   606 A                  
  2.521   2.522   2.529   2.548   2.550   2.556   2.557   2.566
607 A   608 A   609 A   610 A   611 A   612 A   613 A   614 A                  
  2.570   2.574   2.578   2.581   2.587   2.593   2.596   2.600
615 A   616 A   617 A   618 A   619 A   620 A   621 A   622 A                  
  2.614   2.621   2.624   2.633   2.639   2.643   2.649   2.656
623 A   624 A   625 A   626 A   627 A   628 A   629 A   630 A                  
  2.662   2.667   2.682   2.690   2.693   2.703   2.710   2.724
631 A   632 A   633 A   634 A   635 A   636 A   637 A   638 A                  
  2.732   2.738   2.740   2.753   2.760   2.774   2.783   2.788
639 A   640 A   641 A   642 A   643 A   644 A   645 A   646 A                  
  2.794   2.802   2.820   2.829   2.840   2.861   2.871   2.884
647 A   648 A   649 A   650 A   651 A   652 A   653 A   654 A                  
  2.890   2.894   2.900   2.908   2.911   2.921   2.934   2.943
655 A   656 A   657 A   658 A   659 A   660 A   661 A   662 A                  
  2.963   2.965   2.982   2.990   2.997   3.004   3.008   3.013
663 A   664 A   665 A   666 A   667 A   668 A   669 A   670 A                  
  3.016   3.023   3.034   3.038   3.040   3.053   3.071   3.075
671 A   672 A   673 A   674 A   675 A   676 A   677 A   678 A                  
  3.096   3.100   3.107   3.115   3.129   3.135   3.137   3.155
679 A   680 A   681 A   682 A   683 A   684 A   685 A   686 A                  
  3.162   3.170   3.182   3.191   3.199   3.229   3.246   3.259
687 A   688 A   689 A   690 A   691 A   692 A   693 A   694 A                  
  3.262   3.265   3.273   3.292   3.305   3.334   3.367   3.367
695 A   696 A   697 A   698 A   699 A   700 A   701 A   702 A                  
  3.368   3.373   3.403   3.430   3.453   3.552   3.624   3.637
703 A   704 A   705 A   706 A   707 A   708 A   709 A   710 A                  
  3.660   3.675   3.698   3.720   3.806   3.837   3.880   3.928
711 A   712 A   713 A   714 A   715 A   716 A   717 A   718 A                  
  3.957   3.978
719 A   720 A                                                                  
 Allocate memory from largest block for RI integral import:
 4294967296 Words
After allocate
After lock_rw
 RI intergral threshold: 1.000000e-08
 Allocate memory from largest block for RI integral import:
 4294967296 Words
After allocate
After lock_rw
 RI intergral threshold: 1.000000e-08
 Allocate memory from largest block for RI integral import:
 4294967296 Words
After allocate
After lock_rw
 RI intergral threshold: 1.000000e-08
 Allocate memory from largest block for RI integral import:
 4294967296 Words
After allocate
After lock_rw
 RI intergral threshold: 1.000000e-08
 Allocate memory from largest block for RI integral import:
 4294967296 Words
After allocate
After lock_rw
 RI intergral threshold: 1.000000e-08
 Allocate memory from largest block for RI integral import:
 4294967296 Words
After allocate
After lock_rw
 RI intergral threshold: 1.000000e-08
 Using non-symmetric K matrix
 Warning: not using a symmetric Q

--------------------------------------------------------------------------------
                                   HF Summary                                   
--------------------------------------------------------------------------------
  Energy:                                                 -1846.1058077499 a.u.
  Energy (PCM 1st order, incl. ptSS):                    -1846.1356542078 a.u.

  ptSS term for HF-GS (wrt. emission from refstate):            -0.812163 eV

  Dip. moment [a.u.]:                  [   2.362892,   -2.016809,    3.495007]
  Total dipole [Debye]:                                              11.885447
  <r^2> [a.u.]:                        [15294.083711,  8775.531307, 13145.908191]
  Total <r^2> [a.u.]:                                              37215.523209
--------------------------------------------------------------------------------
 Using non-symmetric K matrix
 Warning: not using a symmetric Q

--------------------------------------------------------------------------------
                               SOS-MP(2) Summary                                
--------------------------------------------------------------------------------
  MP energy contribution:                                   -5.2269948259 a.u.
  Total energy (PCM 0th order):                          -1851.3328025759 a.u.
  Total energy (PCM 1st order, incl. ptSS):              -1851.3622815331 a.u.

  ptSS term for MP2-GS (wrt. emission from refstate):           -0.802163 eV

  Dip. moment [a.u.]:                  [   2.249796,   -1.891737,    3.266219]
  Total dipole [Debye]:                                              11.168784
  <r^2> [a.u.]:                        [15288.119683,  8770.155104, 13137.460773]
  Total <r^2> [a.u.]:                                              37195.735560
--------------------------------------------------------------------------------
  Starting Davidson for singlet states of irrep A ... 
--------------------------------------------------------------------------------
   It NVec Conv  Avg. Norm  Max. Norm  Conv. states           Remark
--------------------------------------------------------------------------------
         2    0  4.232e-01  6.168e-01  0.2995 n n             Guess.
    1    4    0  2.272e-01  4.388e-01  0.0913 n n             
    2    6    0  6.218e-02  1.120e-01  0.0820 n n             
    3    8    0  3.027e-02  5.138e-02  0.0790 n n             
