mFile = /cm/shared/apps/q-chem/intel/QCHEM_5.1.0_Trunk/bin/mpi/machines
Process 0 of 1 is on big006 - thread support 0
initial socket setup ...start
initial socket setup ...done 
now start server 0 ... 
Q-Chem Developer Version!
                  Welcome to Q-Chem
     A Quantum Leap Into The Future Of Chemistry


 Q-Chem 5.1, Q-Chem, Inc., Pleasanton, CA (2018)

 Yihan Shao,  Zhengting Gan,  E. Epifanovsky,  A. T. B. Gilbert,  M. Wormit,  
 J. Kussmann,  A. W. Lange,  A. Behn,  Jia Deng,  Xintian Feng,  D. Ghosh,  
 M. Goldey,  P. R. Horn,  L. D. Jacobson,  I. Kaliman,  T. Kus,  A. Landau,  
 Jie Liu,  E. I. Proynov,  R. M. Richard,  R. P. Steele,  E. J. Sundstrom,  
 H. L. Woodcock III,  P. M. Zimmerman,  D. Zuev,  B. Albrecht,  E. Alguire,  
 S. A. Baeppler,  D. Barton,  Z. Benda,  Y. A. Bernard,  E. J. Berquist,  
 K. B. Bravaya,  H. Burton,  D. Casanova,  Chun-Min Chang,  Yunqing Chen,  
 A. Chien,  K. D. Closser,  M. P. Coons,  S. Coriani,  S. Dasgupta,  
 A. L. Dempwolff,  M. Diedenhofen,  Hainam Do,  R. G. Edgar,  Po-Tung Fang,  
 S. Faraji,  S. Fatehi,  Qingguo Feng,  K. D. Fenk,  J. Fosso-Tande,  
 Qinghui Ge,  A. Ghysels,  G. Gidofalvi,  J. Gomes,  J. Gonthier,  A. Gunina,  
 D. Hait,  M. W. D. Hanson-Heine,  P. H. P. Harbach,  A. W. Hauser,  
 J. E. Herr,  E. G. Hohenstein,  Z. C. Holden,  Kerwin Hui,  B. C. Huynh,  
 T.-C. Jagau,  Hyunjun Ji,  B. Kaduk,  K. Khistyaev,  Jaehoon Kim,  
 P. Klunzinger,  K. Koh,  D. Kosenkov,  L. Koulias,  T. Kowalczyk,  
 C. M. Krauter,  A. Kunitsa,  Ka Un Lao,  A. Laurent,  K. V. Lawler,  
 Joonho Lee,  D. Lefrancois,  S. Lehtola,  D. S. Levine,  Yi-Pei Li,  
 You-Sheng Lin,  Fenglai Liu,  E. Livshits,  A. Luenser,  P. Manohar,  
 E. Mansoor,  S. F. Manzer,  Shan-Ping Mao,  Yuezhi Mao,  N. Mardirossian,  
 A. V. Marenich,  T. Markovich,  L. A. Martinez-Martinez,  S. A. Maurer,  
 N. J. Mayhall,  S. C. McKenzie,  J.-M. Mewes,  A. F. Morrison,  
 J. W. Mullinax,  K. Nanda,  T. S. Nguyen-Beck,  R. Olivares-Amaya,  
 J. A. Parkhill,  T. M. Perrine,  F. Plasser,  P. Pokhilko,  S. Prager,  
 A. Prociuk,  E. Ramos,  D. R. Rehn,  F. Rob,  M. Schneider,  N. Sergueev,  
 S. M. Sharada,  S. Sharma,  D. W. Small,  T. Stauch,  T. Stein,  
 Yu-Chuan Su,  A. J. W. Thom,  A. Tkatchenko,  T. Tsuchimochi,  N. M. Tubman,  
 L. Vogt,  M. L. Vidal,  O. Vydrov,  M. A. Watson,  J. Wenzel,  
 M. de Wergifosse,  T. A. Wesolowski,  A. White,  J. Witte,  A. Yamada,  
 Jun Yang,  K. Yao,  S. Yeganeh,  S. R. Yost,  Zhi-Qiang You,  A. Zech,  
 Igor Ying Zhang,  Xing Zhang,  Yan Zhao,  Ying Zhu,  B. R. Brooks,  
 G. K. L. Chan,  C. J. Cramer,  M. S. Gordon,  W. J. Hehre,  A. Klamt,  
 M. W. Schmidt,  C. D. Sherrill,  D. G. Truhlar,  A. Aspuru-Guzik,  R. Baer,  
 A. T. Bell,  N. A. Besley,  Jeng-Da Chai,  A. E. DePrince, III,  
 R. A. DiStasio Jr.,  A. Dreuw,  B. D. Dunietz,  T. R. Furlani,  
 Chao-Ping Hsu,  Yousung Jung,  Jing Kong,  D. S. Lambrecht,  WanZhen Liang,  
 C. Ochsenfeld,  V. A. Rassolov,  L. V. Slipchenko,  J. E. Subotnik,  
 T. Van Voorhis,  J. M. Herbert,  A. I. Krylov,  P. M. W. Gill,  M. Head-Gordon

 Contributors to earlier versions of Q-Chem not listed above: 
 R. D. Adamson,  B. Austin,  J. Baker,  G. J. O. Beran,  K. Brandhorst,  
 S. T. Brown,  E. F. C. Byrd,  A. K. Chakraborty,  C.-L. Cheng,  
 Siu Hung Chien,  D. M. Chipman,  D. L. Crittenden,  H. Dachsel,  
 R. J. Doerksen,  A. D. Dutoi,  L. Fusti-Molnar,  W. A. Goddard III,  
 A. Golubeva-Zadorozhnaya,  S. R. Gwaltney,  G. Hawkins,  A. Heyden,  
 S. Hirata,  G. Kedziora,  F. J. Keil,  C. Kelley,  Jihan Kim,  R. A. King,  
 R. Z. Khaliullin,  P. P. Korambath,  W. Kurlancheek,  A. M. Lee,  M. S. Lee,  
 S. V. Levchenko,  Ching Yeh Lin,  D. Liotard,  R. C. Lochan,  I. Lotan,  
 P. E. Maslen,  N. Nair,  D. P. O'Neill,  D. Neuhauser,  E. Neuscamman,  
 C. M. Oana,  R. Olson,  B. Peters,  R. Peverati,  P. A. Pieniazek,  
 Y. M. Rhee,  J. Ritchie,  M. A. Rohrdanz,  E. Rosta,  N. J. Russ,  
 H. F. Schaefer III,  N. E. Schultz,  N. Shenvi,  A. C. Simmonett,  A. Sodt,  
 D. Stuck,  K. S. Thanthiriwatte,  V. Vanovschi,  Tao Wang,  A. Warshel,  
 C. F. Williams,  Q. Wu,  X. Xu,  W. Zhang

 Please cite Q-Chem as follows:
 Y. Shao et al., Mol. Phys. 113, 184-215 (2015)
 DOI: 10.1080/00268976.2014.952696

 Q-Chem 5.1.1 for Intel X86 EM64T Linux

 Parts of Q-Chem use Armadillo 8.300.2 (Tropical Shenanigans).
 http://arma.sourceforge.net/

 Q-Chem begins on Fri Jan 11 14:32:45 2019  

Host: big006
0

     Scratch files written to /scratch/mewes/143171/qchem24167//
 Parallel job on  1  processors
The previous job contains 0 fragments, simply inherited here
Symmetry turned off for PCM/SM12/SMD calculation
Input Ideriv = 2
Curr. Ideriv = -1
Max.  Ideriv = 2
Input Ideriv = 2
Curr. Ideriv = 2
Max.  Ideriv = 2

Checking the input file for inconsistencies... 	...done.

--------------------------------------------------------------
User input:
--------------------------------------------------------------
$rem
threads        26 
method sosadc(2)
adc_c_t 1202
basis  vdz
aux_basis rimp2-VDZ
mem_total     480000
mem_static    2000
ee_triplets   2
adc_davidson_maxsubspace        24
adc_davidson_maxiter            150
adc_davidson_conv		4
solvent_method    pcm
n_frozen_core 	fc
$end

$solvent
dielectric	2.38
dielectric_infi	2.25
$end

$pcm
vdwscale 1.3
$end

$molecule
read ut1opt_tol.mol
$end

--------------------------------------------------------------
 ----------------------------------------------------------------
             Standard Nuclear Orientation (Angstroms)
    I     Atom           X                Y                Z
 ----------------------------------------------------------------
    1      N       0.0000000000     0.0000000000     0.0000000000
    2      C       0.0000000000     0.0000000000     1.3963950000
    3      C       1.1941266736     0.0000000000     2.1172208451
    4      H       2.1447815243     0.0177047019     1.6018638810
    5      C       1.1703080024    -0.0342724344     3.5012116744
    6      H       2.1046470794    -0.0334251455     4.0476701355
    7      C      -0.0370889350    -0.0871497633     4.1773941678
    8      H      -0.0615450724    -0.1259333305     5.2582811314
    9      C      -1.2215112238    -0.0726119447     3.4549695880
   10      H      -2.1580924764    -0.0899591038     3.9954729696
   11      C      -1.2278066875    -0.0053875249     2.0683684745
   12      C      -1.0792094983    -0.5709765256    -0.6841108658
   13      C      -0.9429558557    -1.1071930499    -1.9642569927
   14      H       0.0020380195    -1.0663525532    -2.4870775677
   15      C      -2.0200043126    -1.7196227350    -2.5819396393
   16      H      -1.8889555779    -2.1382776155    -3.5715234593
   17      C      -3.2391990828    -1.8131752247    -1.9327434440
   18      H      -4.0794195599    -2.3061265070    -2.4032565346
   19      C      -3.3798723890    -1.2464948524    -0.6743925159
   20      H      -4.3448555671    -1.2958993822    -0.1888923270
   21      C      -2.3267805792    -0.5976874002    -0.0444332262
   22      C       1.1890871126     0.3502708162    -0.6849280465
   23      C       2.0567620773    -0.6175282534    -1.1500404444
   24      H       1.8096837387    -1.6559940534    -0.9657793772
   25      C       1.4912630247     1.6891120487    -0.8895134944
   26      H       0.8215972506     2.4587992183    -0.5277499280
   27      C       2.6643368285     2.0186562863    -1.5361312607
   28      H       2.9204326859     3.0634673785    -1.6639119974
   29      C       3.2069919462    -0.2975201123    -1.8712355265
   30      C       3.5356316329     1.0483527184    -2.0367922371
   31      C       4.8302696114     1.5143082589    -2.6394018948
   32      H       4.9354187178     2.5842262564    -2.4557148539
   33      H       4.8376458822     1.4004462943    -3.7279814383
   34      C      -2.4824562218     0.1937434639     1.2424608839
   35      C      -3.7454082813    -0.1793116409     2.0112488255
   36      H      -4.6362978422     0.0030046476     1.4108243300
   37      H      -3.8523814187     0.4376600210     2.9033702519
   38      H      -3.7449059460    -1.2260315414     2.3175393956
   39      C       3.9249168368    -1.5066281273    -2.4789823534
   40      C       5.1808082818    -1.2932350080    -3.3054497629
   41      C       5.4096090363    -2.0418871403    -4.4439642988
   42      H       4.5966892472    -2.5691464602    -4.9223977953
   43      C       6.6829724862    -2.1943133025    -4.9785563026
   44      C       6.8827069797    -2.8913590427    -6.1738978778
   45      N       7.0584087932    -3.4697145377    -7.1631463818
   46      C       7.8592440336    -1.6335810100    -4.2369384944
   47      C       7.5996291727    -0.7211945799    -3.2162778612
   48      H       8.4249896887    -0.1571564338    -2.7985115070
   49      C       6.3214989092    -0.4554455215    -2.7936117366
   50      C       9.1616957910    -1.9519463995    -4.6210699654
   51      N      10.2460502367    -2.2110647871    -4.9428648910
   52      C       6.0284616844     0.7820602763    -2.0212034821
   53      H       6.9128411192     1.4203298691    -2.0216318971
   54      H       5.8048743539     0.5687084263    -0.9698469222
   55      C       2.8972846839    -2.3120179336    -3.2672786758
   56      C       2.1017337486    -1.8672867995    -4.3048858282
   57      H       2.1576593786    -0.8414753097    -4.6497139616
   58      C       1.2196895905    -2.7642270193    -4.8948960914
   59      H       0.5865386732    -2.4370915943    -5.7091611528
   60      C       1.1434115012    -4.0789384885    -4.4446582798
   61      H       0.4502585072    -4.7642605892    -4.9140657476
   62      C       1.9389348917    -4.5189510131    -3.3963838677
   63      H       1.8642626502    -5.5400453166    -3.0447436320
   64      C       2.8183362969    -3.6230714075    -2.8060248355
   65      C       3.7323756536    -3.7728818862    -1.6788958591
   66      C       4.0186290958    -4.8688535004    -0.8823207439
   67      H       3.5491790846    -5.8268206690    -1.0663385967
   68      C       4.9179268046    -4.7184476184     0.1652592326
   69      H       5.1525643649    -5.5661665707     0.7951485009
   70      C       5.5110884380    -3.4880659769     0.4212327806
   71      H       6.1980808531    -3.3848872029     1.2506216290
   72      C       5.2267702863    -2.3871771456    -0.3777427418
   73      H       5.6826375924    -1.4303446866    -0.1602060383
   74      C       4.3427076854    -2.5418281235    -1.4285124684
   75      C      -2.5737747191     1.6915915222     0.8777998019
   76      H      -1.6980873878     2.0323164567     0.3253842364
   77      H      -3.4531996555     1.8809336340     0.2596055298
   78      H      -2.6529678954     2.2957995010     1.7835013993
 ----------------------------------------------------------------
 Nuclear Repulsion Energy =  5540.9674729639 hartrees
 There are      158 alpha and      158 beta electrons
 Requested basis set is VDZ
 There are 297 shells and 485 basis functions

 Total QAlloc Memory Limit 480000 MB
 Mega-Array Size      1956 MB
 MEM_STATIC part      2000 MB
 Discretize the solute cavity surface with Lebedev spheres
	Using 302 Lebedev grid points for each H atom
	Using 302 Lebedev grid points for other atoms
	Atomic van der Waals radii will be scaled by 1.30
 Remove points where switching function is < 1.0e-08
 Keep 7268 surface tesserae and discard 16288 interior tesserae
 Molecular Surface Area = 633.703 Angst**2
 Requested basis set is rimp2-VDZ
 There are 938 shells and 2690 basis functions
 A cutoff of  1.0D-11 yielded  26371 shell pairs
 There are     73225 function pairs
 
 -------------------------------------------------------
 OpenMP Integral Computing Module                       
 Release: version 1.0, May 2013, Q-Chem Inc. Pittsburgh 
 -------------------------------------------------------
 Integral Job Info:
 Integral job number is                      11
 Integral operator is                         1
 short-range coefficients                     0
 long-range coefficients              100000000
 Omega coefficients                           0
 if combine SR and LR in K                    0
 Integral screening is                        0
 Integral computing path is                   2
 max size of driver memory is            800000
 size of driver memory is                 45569
 size of scratch memory is              1477076
 max col of scratch BK array                289
 max len of scratch array in speh3           22
 max len of scratch index in speh4            8
 max int batch size is                      520
 min int batch size is                       52
 fixed nKL is                                52
 max L of basis functions is                  1
 order of int derivative is                   0
 number of shells is                        297
 number of basis is                         485
 number of cartesian basis is               485
 number of contracted shell pairs         26371
 number of primitive shell pairs          66842
 maxK2 (contraction) of shell pair           25
 max number of K2 of shell pair               1
 max number of CS2 of shell pair           6520
 max number of PS2 of shell pair          15860
 mem total for path MDJ                  823250
 -------------------------------------------------------
 Smallest overlap matrix eigenvalue = 2.04E-04

 Scale SEOQF with 1.000000e-02/1.000000e-02/1.000000e-02

 Standard Electronic Orientation quadrupole field applied
 Nucleus-field energy     =     0.0000000011 hartrees
 Guess from superposition of atomic densities
 Warning:  Energy on first SCF cycle will be non-variational
 SAD guess density has 316.000000 electrons
 A restricted Hartree-Fock SCF calculation will be
 performed using Pulay DIIS extrapolation
 Polarizable Continuum solvation model will be applied
 SCF converges when DIIS error is below 1.0E-08
 using 26 threads for integral computing
 -------------------------------------------------------
 OpenMP Integral computing Module                
 Release: version 2.0, May 2017, Q-Chem Inc. Pleasanton 
 -------------------------------------------------------
 ---------------------------------------
  Cycle       Energy         DIIS Error
 ---------------------------------------
    1   -1869.5200307826      5.24E-02
    2   -1844.8721922884      3.47E-03
    3   -1845.2754629890      2.24E-03
    4   -1845.4018883501      7.85E-04
    5   -1845.4226815798      1.59E-04
    6   -1845.4235086934      5.10E-05
    7   -1845.4236212881      1.84E-05
    8   -1845.4236400413      6.99E-06
    9   -1845.4236436273      3.27E-06
   10   -1845.4236445831      1.49E-06
   11   -1845.4236449303      7.17E-07
   12   -1845.4236451104      3.18E-07
   13   -1845.4236451731      1.18E-07
   14   -1845.4236449470      5.27E-08
   15   -1845.4236450430      2.89E-08
   16   -1845.4236450150      1.59E-08
   17   -1845.4236450576      8.11E-09 Convergence criterion met
 ---------------------------------------

************** Final PCM Free Energy Summary **************
 G_electrostatic  =      -0.01575009 hartree =      -9.88333257 kcal/mol
 G_cavitation     =       0.00000000 hartree =       0.00000000 kcal/mol
 G_dispersion     =       0.00000000 hartree =       0.00000000 kcal/mol
 G_repulsion      =       0.00000000 hartree =       0.00000000 kcal/mol
 --------------------------------------------------
 Non-electrostatic Free Energy =       0.00000000 hartree =       0.00000000 kcal/mol
 Total                         =      -0.01575009 hartree =      -9.88333257 kcal/mol
 --------------------------------------------------
 SCF Energy (H0 + V/2)                       =   -1845.42364506 
 Solute Internal Energy (H0)                 =   -1845.40789496 
 Total Free Energy (H0 + V/2 + non-elec)     =   -1845.42364506 hartree
                                             = -1158020.81528098 kcal/mol
***********************************************************

 SCF time:  CPU 1939.97 s  wall 307.29 s
 SCF   energy in the final basis set = -1845.42364506
 Total energy in the final basis set = -1845.42364506
================================================================================
|                                                                              |
|                                 A D C  M A N                                 |
|                                                                              |
 ------------------------------------------------------------------------------ 
|                                                                              |
| Components:                                                                  |
|                                                                              |
| - libvmm - 1.3-trunk                                                         |
|   Authors:                                                                   |
|   Evgeny Epifanovsky, Ilya Kaliman                                           |
|                                                                              |
| - libtensor - 2.5-trunk                                                      |
|   Authors:                                                                   |
|   Evgeny Epifanovsky, Michael Wormit, Dmitry Zuev, Sam Manzer,               |
|   Ilya Kaliman                                                               |
|                                                                              |
| - libwfa - 1.1-beta                                                          |
|   Authors:                                                                   |
|   Felix Plasser, Stefanie Baeppler, Benjamin Thomitzni, Michael Wormit       |
|                                                                              |
| - libadc - 1.1-trunk                                                         |
|   Authors:                                                                   |
|   Michael Wormit, Adrian L. Dempwolff, Philipp H. P. Harbach,                |
|   Caroline Krauter, Dirk Rehn, Matthias Schneider, Jan Wenzel                |
|                                                                              |
| - adcman - 2.6-trunk                                                         |
|   Authors:                                                                   |
|   Michael Wormit, Adrian L. Dempwolff, Philipp H. P. Harbach,                |
|   Caroline Krauter, Daniel Lefrancois, Jan-Michael Mewes, Dirk Rehn,         |
|   Matthias Schneider, Jan Wenzel, Andreas Dreuw                              |
|                                                                              |
| Authors of earlier versions of ADCMAN:                                       |
| Andreas Dreuw, Jan Hendrik Starcke, Dirk Rehn, Michael Wormit                |
|                                                                              |
================================================================================

 
 Alpha MOs, Restricted
 -- Occupied --                  
-15.613 -15.610 -15.593 -11.327 -11.324 -11.315 -11.312 -11.305
  1 A     2 A     3 A     4 A     5 A     6 A     7 A     8 A                  
-11.298 -11.297 -11.292 -11.291 -11.289 -11.284 -11.283 -11.272
  9 A    10 A    11 A    12 A    13 A    14 A    15 A    16 A                  
-11.266 -11.265 -11.262 -11.261 -11.261 -11.259 -11.256 -11.256
 17 A    18 A    19 A    20 A    21 A    22 A    23 A    24 A                  
-11.256 -11.256 -11.254 -11.254 -11.253 -11.252 -11.251 -11.251
 25 A    26 A    27 A    28 A    29 A    30 A    31 A    32 A                  
-11.251 -11.250 -11.250 -11.244 -11.244 -11.241 -11.240 -11.240
 33 A    34 A    35 A    36 A    37 A    38 A    39 A    40 A                  
-11.239 -11.236 -11.234 -11.232 -11.231 -11.220 -11.219  -1.298
 41 A    42 A    43 A    44 A    45 A    46 A    47 A    48 A                  
 -1.261  -1.252  -1.234  -1.196  -1.183  -1.161  -1.158  -1.154
 49 A    50 A    51 A    52 A    53 A    54 A    55 A    56 A                  
 -1.120  -1.113  -1.100  -1.079  -1.065  -1.055  -1.030  -1.027
 57 A    58 A    59 A    60 A    61 A    62 A    63 A    64 A                  
 -1.025  -1.013  -1.012  -0.994  -0.992  -0.975  -0.954  -0.934
 65 A    66 A    67 A    68 A    69 A    70 A    71 A    72 A                  
 -0.931  -0.890  -0.877  -0.870  -0.860  -0.853  -0.846  -0.827
 73 A    74 A    75 A    76 A    77 A    78 A    79 A    80 A                  
 -0.817  -0.816  -0.811  -0.807  -0.797  -0.770  -0.753  -0.740
 81 A    82 A    83 A    84 A    85 A    86 A    87 A    88 A                  
 -0.739  -0.733  -0.716  -0.706  -0.697  -0.685  -0.681  -0.680
 89 A    90 A    91 A    92 A    93 A    94 A    95 A    96 A                  
 -0.655  -0.655  -0.652  -0.649  -0.642  -0.642  -0.635  -0.634
 97 A    98 A    99 A   100 A   101 A   102 A   103 A   104 A                  
 -0.625  -0.621  -0.618  -0.614  -0.611  -0.609  -0.608  -0.603
105 A   106 A   107 A   108 A   109 A   110 A   111 A   112 A                  
 -0.601  -0.593  -0.589  -0.584  -0.578  -0.575  -0.570  -0.560
113 A   114 A   115 A   116 A   117 A   118 A   119 A   120 A                  
 -0.556  -0.546  -0.544  -0.542  -0.538  -0.531  -0.530  -0.526
121 A   122 A   123 A   124 A   125 A   126 A   127 A   128 A                  
 -0.526  -0.521  -0.519  -0.516  -0.510  -0.508  -0.507  -0.503
129 A   130 A   131 A   132 A   133 A   134 A   135 A   136 A                  
 -0.502  -0.498  -0.490  -0.488  -0.487  -0.482  -0.471  -0.468
137 A   138 A   139 A   140 A   141 A   142 A   143 A   144 A                  
 -0.465  -0.447  -0.404  -0.383  -0.374  -0.358  -0.353  -0.347
145 A   146 A   147 A   148 A   149 A   150 A   151 A   152 A                  
 -0.342  -0.337  -0.333  -0.331  -0.307  -0.279
153 A   154 A   155 A   156 A   157 A   158 A                                  
 -- Virtual --                   
  0.017   0.073   0.095   0.104   0.107   0.115   0.124   0.130
159 A   160 A   161 A   162 A   163 A   164 A   165 A   166 A                  
  0.137   0.148   0.159   0.171   0.176   0.177   0.180   0.182
167 A   168 A   169 A   170 A   171 A   172 A   173 A   174 A                  
  0.183   0.185   0.192   0.197   0.200   0.206   0.207   0.211
175 A   176 A   177 A   178 A   179 A   180 A   181 A   182 A                  
  0.213   0.220   0.228   0.237   0.239   0.242   0.245   0.247
183 A   184 A   185 A   186 A   187 A   188 A   189 A   190 A                  
  0.250   0.253   0.256   0.264   0.267   0.272   0.278   0.285
191 A   192 A   193 A   194 A   195 A   196 A   197 A   198 A                  
  0.287   0.301   0.307   0.309   0.311   0.315   0.324   0.331
199 A   200 A   201 A   202 A   203 A   204 A   205 A   206 A                  
  0.334   0.337   0.343   0.348   0.353   0.355   0.361   0.362
207 A   208 A   209 A   210 A   211 A   212 A   213 A   214 A                  
  0.365   0.372   0.376   0.385   0.389   0.399   0.402   0.408
215 A   216 A   217 A   218 A   219 A   220 A   221 A   222 A                  
  0.410   0.413   0.419   0.420   0.424   0.429   0.439   0.446
223 A   224 A   225 A   226 A   227 A   228 A   229 A   230 A                  
  0.448   0.451   0.454   0.459   0.462   0.465   0.469   0.471
231 A   232 A   233 A   234 A   235 A   236 A   237 A   238 A                  
  0.477   0.480   0.485   0.488   0.493   0.499   0.504   0.506
239 A   240 A   241 A   242 A   243 A   244 A   245 A   246 A                  
  0.513   0.516   0.525   0.528   0.535   0.547   0.547   0.552
247 A   248 A   249 A   250 A   251 A   252 A   253 A   254 A                  
  0.564   0.567   0.571   0.573   0.578   0.585   0.591   0.593
255 A   256 A   257 A   258 A   259 A   260 A   261 A   262 A                  
  0.596   0.602   0.613   0.617   0.622   0.624   0.628   0.634
263 A   264 A   265 A   266 A   267 A   268 A   269 A   270 A                  
  0.636   0.640   0.642   0.644   0.652   0.659   0.665   0.666
271 A   272 A   273 A   274 A   275 A   276 A   277 A   278 A                  
  0.673   0.675   0.675   0.678   0.682   0.686   0.691   0.694
279 A   280 A   281 A   282 A   283 A   284 A   285 A   286 A                  
  0.695   0.699   0.703   0.705   0.705   0.707   0.711   0.715
287 A   288 A   289 A   290 A   291 A   292 A   293 A   294 A                  
  0.717   0.719   0.730   0.732   0.739   0.747   0.752   0.757
295 A   296 A   297 A   298 A   299 A   300 A   301 A   302 A                  
  0.759   0.764   0.771   0.776   0.779   0.787   0.790   0.796
303 A   304 A   305 A   306 A   307 A   308 A   309 A   310 A                  
  0.797   0.802   0.807   0.808   0.813   0.817   0.825   0.829
311 A   312 A   313 A   314 A   315 A   316 A   317 A   318 A                  
  0.830   0.834   0.837   0.842   0.845   0.857   0.859   0.862
319 A   320 A   321 A   322 A   323 A   324 A   325 A   326 A                  
  0.866   0.870   0.872   0.875   0.876   0.882   0.883   0.889
327 A   328 A   329 A   330 A   331 A   332 A   333 A   334 A                  
  0.897   0.905   0.908   0.911   0.913   0.916   0.918   0.922
335 A   336 A   337 A   338 A   339 A   340 A   341 A   342 A                  
  0.924   0.927   0.932   0.935   0.936   0.937   0.938   0.944
343 A   344 A   345 A   346 A   347 A   348 A   349 A   350 A                  
  0.946   0.947   0.950   0.953   0.955   0.956   0.961   0.964
351 A   352 A   353 A   354 A   355 A   356 A   357 A   358 A                  
  0.966   0.968   0.969   0.974   0.976   0.980   0.981   0.983
359 A   360 A   361 A   362 A   363 A   364 A   365 A   366 A                  
  0.989   0.990   0.995   0.998   1.000   1.007   1.008   1.012
367 A   368 A   369 A   370 A   371 A   372 A   373 A   374 A                  
  1.014   1.015   1.022   1.028   1.031   1.035   1.039   1.040
375 A   376 A   377 A   378 A   379 A   380 A   381 A   382 A                  
  1.042   1.047   1.051   1.052   1.057   1.062   1.064   1.067
383 A   384 A   385 A   386 A   387 A   388 A   389 A   390 A                  
  1.071   1.076   1.080   1.083   1.086   1.093   1.097   1.103
391 A   392 A   393 A   394 A   395 A   396 A   397 A   398 A                  
  1.110   1.113   1.116   1.118   1.123   1.127   1.129   1.138
399 A   400 A   401 A   402 A   403 A   404 A   405 A   406 A                  
  1.140   1.146   1.150   1.157   1.163   1.166   1.171   1.174
407 A   408 A   409 A   410 A   411 A   412 A   413 A   414 A                  
  1.181   1.190   1.199   1.204   1.210   1.215   1.224   1.226
415 A   416 A   417 A   418 A   419 A   420 A   421 A   422 A                  
  1.235   1.237   1.247   1.251   1.258   1.266   1.272   1.281
423 A   424 A   425 A   426 A   427 A   428 A   429 A   430 A                  
  1.297   1.308   1.314   1.315   1.324   1.330   1.339   1.345
431 A   432 A   433 A   434 A   435 A   436 A   437 A   438 A                  
  1.355   1.362   1.366   1.381   1.392   1.400   1.403   1.414
439 A   440 A   441 A   442 A   443 A   444 A   445 A   446 A                  
  1.423   1.426   1.440   1.445   1.459   1.462   1.475   1.480
447 A   448 A   449 A   450 A   451 A   452 A   453 A   454 A                  
  1.490   1.504   1.513   1.523   1.526   1.542   1.554   1.561
455 A   456 A   457 A   458 A   459 A   460 A   461 A   462 A                  
  1.564   1.576   1.594   1.611   1.624   1.635   1.658   1.671
463 A   464 A   465 A   466 A   467 A   468 A   469 A   470 A                  
  1.684   1.697   1.702   1.732   1.757   1.759   1.781   1.807
471 A   472 A   473 A   474 A   475 A   476 A   477 A   478 A                  
  1.809   1.846   1.861   1.888   1.926   1.964   2.036
479 A   480 A   481 A   482 A   483 A   484 A   485 A                          
 
 Beta MOs, Restricted
 -- Occupied --                  
-15.613 -15.610 -15.593 -11.327 -11.324 -11.315 -11.312 -11.305
  1 A     2 A     3 A     4 A     5 A     6 A     7 A     8 A                  
-11.298 -11.297 -11.292 -11.291 -11.289 -11.284 -11.283 -11.272
  9 A    10 A    11 A    12 A    13 A    14 A    15 A    16 A                  
-11.266 -11.265 -11.262 -11.261 -11.261 -11.259 -11.256 -11.256
 17 A    18 A    19 A    20 A    21 A    22 A    23 A    24 A                  
-11.256 -11.256 -11.254 -11.254 -11.253 -11.252 -11.251 -11.251
 25 A    26 A    27 A    28 A    29 A    30 A    31 A    32 A                  
-11.251 -11.250 -11.250 -11.244 -11.244 -11.241 -11.240 -11.240
 33 A    34 A    35 A    36 A    37 A    38 A    39 A    40 A                  
-11.239 -11.236 -11.234 -11.232 -11.231 -11.220 -11.219  -1.298
 41 A    42 A    43 A    44 A    45 A    46 A    47 A    48 A                  
 -1.261  -1.252  -1.234  -1.196  -1.183  -1.161  -1.158  -1.154
 49 A    50 A    51 A    52 A    53 A    54 A    55 A    56 A                  
 -1.120  -1.113  -1.100  -1.079  -1.065  -1.055  -1.030  -1.027
 57 A    58 A    59 A    60 A    61 A    62 A    63 A    64 A                  
 -1.025  -1.013  -1.012  -0.994  -0.992  -0.975  -0.954  -0.934
 65 A    66 A    67 A    68 A    69 A    70 A    71 A    72 A                  
 -0.931  -0.890  -0.877  -0.870  -0.860  -0.853  -0.846  -0.827
 73 A    74 A    75 A    76 A    77 A    78 A    79 A    80 A                  
 -0.817  -0.816  -0.811  -0.807  -0.797  -0.770  -0.753  -0.740
 81 A    82 A    83 A    84 A    85 A    86 A    87 A    88 A                  
 -0.739  -0.733  -0.716  -0.706  -0.697  -0.685  -0.681  -0.680
 89 A    90 A    91 A    92 A    93 A    94 A    95 A    96 A                  
 -0.655  -0.655  -0.652  -0.649  -0.642  -0.642  -0.635  -0.634
 97 A    98 A    99 A   100 A   101 A   102 A   103 A   104 A                  
 -0.625  -0.621  -0.618  -0.614  -0.611  -0.609  -0.608  -0.603
105 A   106 A   107 A   108 A   109 A   110 A   111 A   112 A                  
 -0.601  -0.593  -0.589  -0.584  -0.578  -0.575  -0.570  -0.560
113 A   114 A   115 A   116 A   117 A   118 A   119 A   120 A                  
 -0.556  -0.546  -0.544  -0.542  -0.538  -0.531  -0.530  -0.526
121 A   122 A   123 A   124 A   125 A   126 A   127 A   128 A                  
 -0.526  -0.521  -0.519  -0.516  -0.510  -0.508  -0.507  -0.503
129 A   130 A   131 A   132 A   133 A   134 A   135 A   136 A                  
 -0.502  -0.498  -0.490  -0.488  -0.487  -0.482  -0.471  -0.468
137 A   138 A   139 A   140 A   141 A   142 A   143 A   144 A                  
 -0.465  -0.447  -0.404  -0.383  -0.374  -0.358  -0.353  -0.347
145 A   146 A   147 A   148 A   149 A   150 A   151 A   152 A                  
 -0.342  -0.337  -0.333  -0.331  -0.307  -0.279
153 A   154 A   155 A   156 A   157 A   158 A                                  
 -- Virtual --                   
  0.017   0.073   0.095   0.104   0.107   0.115   0.124   0.130
159 A   160 A   161 A   162 A   163 A   164 A   165 A   166 A                  
  0.137   0.148   0.159   0.171   0.176   0.177   0.180   0.182
167 A   168 A   169 A   170 A   171 A   172 A   173 A   174 A                  
  0.183   0.185   0.192   0.197   0.200   0.206   0.207   0.211
175 A   176 A   177 A   178 A   179 A   180 A   181 A   182 A                  
  0.213   0.220   0.228   0.237   0.239   0.242   0.245   0.247
183 A   184 A   185 A   186 A   187 A   188 A   189 A   190 A                  
  0.250   0.253   0.256   0.264   0.267   0.272   0.278   0.285
191 A   192 A   193 A   194 A   195 A   196 A   197 A   198 A                  
  0.287   0.301   0.307   0.309   0.311   0.315   0.324   0.331
199 A   200 A   201 A   202 A   203 A   204 A   205 A   206 A                  
  0.334   0.337   0.343   0.348   0.353   0.355   0.361   0.362
207 A   208 A   209 A   210 A   211 A   212 A   213 A   214 A                  
  0.365   0.372   0.376   0.385   0.389   0.399   0.402   0.408
215 A   216 A   217 A   218 A   219 A   220 A   221 A   222 A                  
  0.410   0.413   0.419   0.420   0.424   0.429   0.439   0.446
223 A   224 A   225 A   226 A   227 A   228 A   229 A   230 A                  
  0.448   0.451   0.454   0.459   0.462   0.465   0.469   0.471
231 A   232 A   233 A   234 A   235 A   236 A   237 A   238 A                  
  0.477   0.480   0.485   0.488   0.493   0.499   0.504   0.506
239 A   240 A   241 A   242 A   243 A   244 A   245 A   246 A                  
  0.513   0.516   0.525   0.528   0.535   0.547   0.547   0.552
247 A   248 A   249 A   250 A   251 A   252 A   253 A   254 A                  
  0.564   0.567   0.571   0.573   0.578   0.585   0.591   0.593
255 A   256 A   257 A   258 A   259 A   260 A   261 A   262 A                  
  0.596   0.602   0.613   0.617   0.622   0.624   0.628   0.634
263 A   264 A   265 A   266 A   267 A   268 A   269 A   270 A                  
  0.636   0.640   0.642   0.644   0.652   0.659   0.665   0.666
271 A   272 A   273 A   274 A   275 A   276 A   277 A   278 A                  
  0.673   0.675   0.675   0.678   0.682   0.686   0.691   0.694
279 A   280 A   281 A   282 A   283 A   284 A   285 A   286 A                  
  0.695   0.699   0.703   0.705   0.705   0.707   0.711   0.715
287 A   288 A   289 A   290 A   291 A   292 A   293 A   294 A                  
  0.717   0.719   0.730   0.732   0.739   0.747   0.752   0.757
295 A   296 A   297 A   298 A   299 A   300 A   301 A   302 A                  
  0.759   0.764   0.771   0.776   0.779   0.787   0.790   0.796
303 A   304 A   305 A   306 A   307 A   308 A   309 A   310 A                  
  0.797   0.802   0.807   0.808   0.813   0.817   0.825   0.829
311 A   312 A   313 A   314 A   315 A   316 A   317 A   318 A                  
  0.830   0.834   0.837   0.842   0.845   0.857   0.859   0.862
319 A   320 A   321 A   322 A   323 A   324 A   325 A   326 A                  
  0.866   0.870   0.872   0.875   0.876   0.882   0.883   0.889
327 A   328 A   329 A   330 A   331 A   332 A   333 A   334 A                  
  0.897   0.905   0.908   0.911   0.913   0.916   0.918   0.922
335 A   336 A   337 A   338 A   339 A   340 A   341 A   342 A                  
  0.924   0.927   0.932   0.935   0.936   0.937   0.938   0.944
343 A   344 A   345 A   346 A   347 A   348 A   349 A   350 A                  
  0.946   0.947   0.950   0.953   0.955   0.956   0.961   0.964
351 A   352 A   353 A   354 A   355 A   356 A   357 A   358 A                  
  0.966   0.968   0.969   0.974   0.976   0.980   0.981   0.983
359 A   360 A   361 A   362 A   363 A   364 A   365 A   366 A                  
  0.989   0.990   0.995   0.998   1.000   1.007   1.008   1.012
367 A   368 A   369 A   370 A   371 A   372 A   373 A   374 A                  
  1.014   1.015   1.022   1.028   1.031   1.035   1.039   1.040
375 A   376 A   377 A   378 A   379 A   380 A   381 A   382 A                  
  1.042   1.047   1.051   1.052   1.057   1.062   1.064   1.067
383 A   384 A   385 A   386 A   387 A   388 A   389 A   390 A                  
  1.071   1.076   1.080   1.083   1.086   1.093   1.097   1.103
391 A   392 A   393 A   394 A   395 A   396 A   397 A   398 A                  
  1.110   1.113   1.116   1.118   1.123   1.127   1.129   1.138
399 A   400 A   401 A   402 A   403 A   404 A   405 A   406 A                  
  1.140   1.146   1.150   1.157   1.163   1.166   1.171   1.174
407 A   408 A   409 A   410 A   411 A   412 A   413 A   414 A                  
  1.181   1.190   1.199   1.204   1.210   1.215   1.224   1.226
415 A   416 A   417 A   418 A   419 A   420 A   421 A   422 A                  
  1.235   1.237   1.247   1.251   1.258   1.266   1.272   1.281
423 A   424 A   425 A   426 A   427 A   428 A   429 A   430 A                  
  1.297   1.308   1.314   1.315   1.324   1.330   1.339   1.345
431 A   432 A   433 A   434 A   435 A   436 A   437 A   438 A                  
  1.355   1.362   1.366   1.381   1.392   1.400   1.403   1.414
439 A   440 A   441 A   442 A   443 A   444 A   445 A   446 A                  
  1.423   1.426   1.440   1.445   1.459   1.462   1.475   1.480
447 A   448 A   449 A   450 A   451 A   452 A   453 A   454 A                  
  1.490   1.504   1.513   1.523   1.526   1.542   1.554   1.561
455 A   456 A   457 A   458 A   459 A   460 A   461 A   462 A                  
  1.564   1.576   1.594   1.611   1.624   1.635   1.658   1.671
463 A   464 A   465 A   466 A   467 A   468 A   469 A   470 A                  
  1.684   1.697   1.702   1.732   1.757   1.759   1.781   1.807
471 A   472 A   473 A   474 A   475 A   476 A   477 A   478 A                  
  1.809   1.846   1.861   1.888   1.926   1.964   2.036
479 A   480 A   481 A   482 A   483 A   484 A   485 A                          
 Allocate memory from largest block for RI integral import:
 4294967296 Words
After allocate
After lock_rw
 RI intergral threshold: 1.0000000000e-08
 Allocate memory from largest block for RI integral import:
 4294967296 Words
After allocate
After lock_rw
 RI intergral threshold: 1.0000000000e-08
 Allocate memory from largest block for RI integral import:
 4294967296 Words
After allocate
After lock_rw
 RI intergral threshold: 1.0000000000e-08
 Allocate memory from largest block for RI integral import:
 4294967296 Words
After allocate
After lock_rw
 RI intergral threshold: 1.0000000000e-08
 Allocate memory from largest block for RI integral import:
 4294967296 Words
After allocate
After lock_rw
 RI intergral threshold: 1.0000000000e-08
 Allocate memory from largest block for RI integral import:
 4294967296 Words
After allocate
After lock_rw
 RI intergral threshold: 1.0000000000e-08

--------------------------------------------------------------------------------
                                   HF Summary                                   
--------------------------------------------------------------------------------
  Energy:                                                 -1845.4236450576 a.u.
  Dip. moment [a.u.]:                  [  -2.180485,    1.736662,    2.323893]
  Total dipole [Debye]:                                               9.224471
  <r^2> [a.u.]:                        [21448.709356,  5718.338493, 10626.356522]
  Total <r^2> [a.u.]:                                              37793.404372
--------------------------------------------------------------------------------

--------------------------------------------------------------------------------
                               SOS-MP(2) Summary                                
--------------------------------------------------------------------------------
  MP energy contribution:                                   -3.6772732315 a.u.
  Total energy (PTE-PCM approach):                       -1849.1009182890 a.u.
  Dip. moment [a.u.]:                  [  -1.943781,    1.597279,    2.083284]
  Total dipole [Debye]:                                               8.302475
  <r^2> [a.u.]:                        [21443.482215,  5717.097432, 10622.484155]
  Total <r^2> [a.u.]:                                              37783.063802
--------------------------------------------------------------------------------
  Starting Davidson for triplet states of irrep A ... 
--------------------------------------------------------------------------------
   It NVec Conv  Avg. Norm  Max. Norm  Conv. states           Remark
--------------------------------------------------------------------------------
         2    0  3.156e-01  4.515e-01  0.2462 n n             Guess.
    1    4    0  1.307e-01  1.855e-01  0.1161 n n             
    2    6    0  3.854e-02  5.712e-02  0.0969 n n             
    3    8    0  2.993e-02  4.785e-02  0.0933 n n             
    4   10    0  1.861e-02  3.184e-02  0.0919 n n             
    5   12    0  1.440e-02  2.615e-02  0.0915 n n             
    6   14    0  8.778e-03  1.654e-02  0.0914 n n             
    7   16    0  7.078e-03  1.371e-02  0.0914 n n             
    8   18    0  3.375e-03  6.540e-03  0.0913 n n             
    9   20    0  2.337e-03  4.573e-03  0.0913 n n             
   10   22    0  1.458e-03  2.852e-03  0.0913 n n             
   11   24    0  7.326e-04  1.434e-03  0.0913 n n             
   12    4    0  4.924e-04  9.627e-04  0.0913 n n             Subspace collapsed.
   13    6    0  4.690e-04  9.273e-04  0.0913 n n             
   14    8    0  3.924e-04  7.774e-04  0.0913 n n             
   15   10    1  2.559e-04  5.090e-04  0.0913 y n             
   16   12    1  1.721e-04  3.425e-04  0.0913 y n             
   17   14    1  1.287e-04  2.568e-04  0.0913 y n             
   18   16    1  7.907e-05  1.578e-04  0.0913 y n             
   19   18    1  5.334e-05  1.065e-04  0.0913 y n             
   20   20    2  3.515e-05  7.020e-05  0.0913 y y             Converged.
--------------------------------------------------------------------------------
  Davidson Summary: 
 ------------------------------------------------------------
  State  0: excitation energy =   0.0913 a.u.   (converged)
  State  1: excitation energy =   0.1256 a.u.   (converged)
 ------------------------------------------------------------

 Reading last step's PCM charges for this step's initial guess.
 Reading last step's PCM charges for this step's initial guess.

 Q-Chem warning in module libscrf/pcm/pcm_setman.C, line 316:

 SS-PCM is not implemented for CG solver, sorry ~JMM

### Total solute-solvent interaction energy of state 1: 0.0000 eV

 Q-Chem warning in module libscrf/pcm/pcm_setman.C, line 316:

 SS-PCM is not implemented for CG solver, sorry ~JMM

### Total solute-solvent interaction energy of state 2: 0.0000 eV

--------------------------------------------------------------------------------
                             Excited State Summary
--------------------------------------------------------------------------------
                   ## ADC calculation with PCM solvent model ##
     Please cite DOI: 10.1021/jp511163y  for ptSS non-equilibrium formalism
             and DOI: 10.1039/C6CP05986D for EqS solvent-field equilibration.
--------------------------------------------------------------------------------

  Excited state 1 (triplet, A)                                     [converged]
  ----------------------------------------------------------------------------
  Term symbol:  1 (3) A                                     R^2 =  3.90810e-06

  Total energy (PCM 0th order):                          -1849.0095796189 a.u.
  Total energy (PCM 1st order, incl. ptSS):              -1849.0095796189 a.u.

  Excitation energy (PCM 0th order):                             2.485452 eV

  Excitation energy (PCM 1st order, incl. ptSS/ptLR and PTD terms):

  Perturbative 1st order terms:
   ptSS fast term, use with ADC(2) and ADC(3):                   0.000000 eV

  Dip. moment [a.u.]:                  [  -2.074950,    1.610924,    2.163308]
  Total dipole [Debye]:                                               8.649560
  <r^2> [a.u.]:                        [21447.131826,  5716.847064, 10623.558414]
  Total <r^2> [a.u.]:                                              37787.537304

  V1^2 = 0.9474, V2^2 = 0.0526

  Important amplitudes:
       occ i       occ j       vir a       vir b          v   
    -----------------------------------------------------------
     156 (A) A               159 (A) A                  0.5883
     150 (A) A               159 (A) A                 -0.1720
    -----------------------------------------------------------
  ----------------------------------------------------------------------------


  Excited state 2 (triplet, A)                                     [converged]
  ----------------------------------------------------------------------------
  Term symbol:  2 (3) A                                     R^2 =  7.01953e-05

  Total energy (PCM 0th order):                          -1848.9753494053 a.u.
  Total energy (PCM 1st order, incl. ptSS):              -1848.9753494053 a.u.

  Excitation energy (PCM 0th order):                             3.416903 eV

  Excitation energy (PCM 1st order, incl. ptSS/ptLR and PTD terms):

  Perturbative 1st order terms:
   ptSS fast term, use with ADC(2) and ADC(3):                   0.000000 eV

  Dip. moment [a.u.]:                  [  -2.055090,    1.567151,    2.185025]
  Total dipole [Debye]:                                               8.602112
  <r^2> [a.u.]:                        [21445.595121,  5717.470550, 10623.250656]
  Total <r^2> [a.u.]:                                              37786.316327

  V1^2 = 0.9549, V2^2 = 0.0451

  Important amplitudes:
       occ i       occ j       vir a       vir b          v   
    -----------------------------------------------------------
     157 (A) A               160 (A) A                  0.5051
     157 (A) A               161 (A) A                  0.2195
    -----------------------------------------------------------
  ----------------------------------------------------------------------------


--------------------------------------------------------------------------------
  Time of ADC calculation:  CPU 85606.07 s  wall 7488.91 s
================================================================================
 
 --------------------------------------------------------------
 
                    Orbital Energies (a.u.)
 --------------------------------------------------------------
 
 Alpha MOs
 -- Occupied --
-15.613 -15.610 -15.593 -11.327 -11.324 -11.315 -11.312 -11.305
-11.298 -11.297 -11.292 -11.291 -11.289 -11.284 -11.283 -11.272
-11.266 -11.265 -11.262 -11.261 -11.261 -11.259 -11.256 -11.256
-11.256 -11.256 -11.254 -11.254 -11.253 -11.252 -11.251 -11.251
-11.251 -11.250 -11.250 -11.244 -11.244 -11.241 -11.240 -11.240
-11.239 -11.236 -11.234 -11.232 -11.231 -11.220 -11.219  -1.298
 -1.261  -1.252  -1.234  -1.196  -1.183  -1.161  -1.158  -1.154
 -1.120  -1.113  -1.100  -1.079  -1.065  -1.055  -1.030  -1.027
 -1.025  -1.013  -1.012  -0.994  -0.992  -0.975  -0.954  -0.934
 -0.931  -0.890  -0.877  -0.870  -0.860  -0.853  -0.846  -0.827
 -0.817  -0.816  -0.811  -0.807  -0.797  -0.770  -0.753  -0.740
 -0.739  -0.733  -0.716  -0.706  -0.697  -0.685  -0.681  -0.680
 -0.655  -0.655  -0.652  -0.649  -0.642  -0.642  -0.635  -0.634
 -0.625  -0.621  -0.618  -0.614  -0.611  -0.609  -0.608  -0.603
 -0.601  -0.593  -0.589  -0.584  -0.578  -0.575  -0.570  -0.560
 -0.556  -0.546  -0.544  -0.542  -0.538  -0.531  -0.530  -0.526
 -0.526  -0.521  -0.519  -0.516  -0.510  -0.508  -0.507  -0.503
 -0.502  -0.498  -0.490  -0.488  -0.487  -0.482  -0.471  -0.468
 -0.465  -0.447  -0.404  -0.383  -0.374  -0.358  -0.353  -0.347
 -0.342  -0.337  -0.333  -0.331  -0.307  -0.279
 -- Virtual --
  0.017   0.073   0.095   0.104   0.107   0.115   0.124   0.130
  0.137   0.148   0.159   0.171   0.176   0.177   0.180   0.182
  0.183   0.185   0.192   0.197   0.200   0.206   0.207   0.211
  0.213   0.220   0.228   0.237   0.239   0.242   0.245   0.247
  0.250   0.253   0.256   0.264   0.267   0.272   0.278   0.285
  0.287   0.301   0.307   0.309   0.311   0.315   0.324   0.331
  0.334   0.337   0.343   0.348   0.353   0.355   0.361   0.362
  0.365   0.372   0.376   0.385   0.389   0.399   0.402   0.408
  0.410   0.413   0.419   0.420   0.424   0.429   0.439   0.446
  0.448   0.451   0.454   0.459   0.462   0.465   0.469   0.471
  0.477   0.480   0.485   0.488   0.493   0.499   0.504   0.506
  0.513   0.516   0.525   0.528   0.535   0.547   0.547   0.552
  0.564   0.567   0.571   0.573   0.578   0.585   0.591   0.593
  0.596   0.602   0.613   0.617   0.622   0.624   0.628   0.634
  0.636   0.640   0.642   0.644   0.652   0.659   0.665   0.666
  0.673   0.675   0.675   0.678   0.682   0.686   0.691   0.694
  0.695   0.699   0.703   0.705   0.705   0.707   0.711   0.715
  0.717   0.719   0.730   0.732   0.739   0.747   0.752   0.757
  0.759   0.764   0.771   0.776   0.779   0.787   0.790   0.796
  0.797   0.802   0.807   0.808   0.813   0.817   0.825   0.829
  0.830   0.834   0.837   0.842   0.845   0.857   0.859   0.862
  0.866   0.870   0.872   0.875   0.876   0.882   0.883   0.889
  0.897   0.905   0.908   0.911   0.913   0.916   0.918   0.922
  0.924   0.927   0.932   0.935   0.936   0.937   0.938   0.944
  0.946   0.947   0.950   0.953   0.955   0.956   0.961   0.964
  0.966   0.968   0.969   0.974   0.976   0.980   0.981   0.983
  0.989   0.990   0.995   0.998   1.000   1.007   1.008   1.012
  1.014   1.015   1.022   1.028   1.031   1.035   1.039   1.040
  1.042   1.047   1.051   1.052   1.057   1.062   1.064   1.067
  1.071   1.076   1.080   1.083   1.086   1.093   1.097   1.103
  1.110   1.113   1.116   1.118   1.123   1.127   1.129   1.138
  1.140   1.146   1.150   1.157   1.163   1.166   1.171   1.174
  1.181   1.190   1.199   1.204   1.210   1.215   1.224   1.226
  1.235   1.237   1.247   1.251   1.258   1.266   1.272   1.281
  1.297   1.308   1.314   1.315   1.324   1.330   1.339   1.345
  1.355   1.362   1.366   1.381   1.392   1.400   1.403   1.414
  1.423   1.426   1.440   1.445   1.459   1.462   1.475   1.480
  1.490   1.504   1.513   1.523   1.526   1.542   1.554   1.561
  1.564   1.576   1.594   1.611   1.624   1.635   1.658   1.671
  1.684   1.697   1.702   1.732   1.757   1.759   1.781   1.807
  1.809   1.846   1.861   1.888   1.926   1.964   2.036
 --------------------------------------------------------------
 
          Ground-State Mulliken Net Atomic Charges

     Atom                 Charge (a.u.)
  ----------------------------------------
      1 N                    -0.925990
      2 C                     0.331448
      3 C                    -0.171436
      4 H                     0.138216
      5 C                    -0.082376
      6 H                     0.121488
      7 C                    -0.111341
      8 H                     0.118208
      9 C                    -0.163240
     10 H                     0.125132
     11 C                     0.002462
     12 C                     0.363907
     13 C                    -0.227009
     14 H                     0.188647
     15 C                    -0.091411
     16 H                     0.122148
     17 C                    -0.109505
     18 H                     0.117481
     19 C                    -0.163300
     20 H                     0.124839
     21 C                    -0.007843
     22 C                     0.217304
     23 C                    -0.119471
     24 H                     0.158196
     25 C                    -0.062007
     26 H                     0.134830
     27 C                    -0.152050
     28 H                     0.121153
     29 C                     0.082651
     30 C                    -0.113539
     31 C                    -0.128392
     32 H                     0.138316
     33 H                     0.160828
     34 C                    -0.450181
     35 C                    -0.158502
     36 H                     0.131089
     37 H                     0.130738
     38 H                     0.125077
     39 C                    -0.403764
     40 C                     0.075700
     41 C                    -0.087155
     42 H                     0.201494
     43 C                     0.009544
     44 C                    -0.242628
     45 N                     0.079961
     46 C                     0.015057
     47 C                    -0.111807
     48 H                     0.158090
     49 C                    -0.029393
     50 C                    -0.236343
     51 N                     0.082171
     52 C                    -0.182284
     53 H                     0.148117
     54 H                     0.176242
     55 C                    -0.078310
     56 C                    -0.053256
     57 H                     0.130916
     58 C                    -0.128777
     59 H                     0.132647
     60 C                    -0.105204
     61 H                     0.131393
     62 C                    -0.088207
     63 H                     0.128865
     64 C                    -0.002298
     65 C                    -0.014295
     66 C                    -0.092990
     67 H                     0.128285
     68 C                    -0.106139
     69 H                     0.130726
     70 C                    -0.121879
     71 H                     0.129147
     72 C                    -0.082025
     73 H                     0.135535
     74 C                     0.039404
     75 C                    -0.160504
     76 H                     0.144678
     77 H                     0.116692
     78 H                     0.116036
  ----------------------------------------
  Sum of atomic charges =    -0.000000

 -----------------------------------------------------------------
                    Cartesian Multipole Moments
 -----------------------------------------------------------------
    Charge (ESU x 10^10)
                -0.0000
    Dipole Moment (Debye)
         X      -5.5422      Y       4.4142      Z       5.9067
       Tot       9.2245
    Quadrupole Moments (Debye-Ang)
        XX    -354.1721     XY      48.0961     YY    -278.7378
        XZ      75.4893     YZ     -31.9670     ZZ    -330.4395
    Octopole Moments (Debye-Ang^2)
       XXX   -3157.7593    XXY     799.9456    XYY    -789.1010
       YYY    1016.5362    XXZ    1243.7907    XYZ    -356.0851
       YYZ     520.4845    XZZ   -1288.9218    YZZ     584.8738
       ZZZ    1796.4762
    Hexadecapole Moments (Debye-Ang^3)
      XXXX  -44050.3555   XXXY    8749.9056   XXYY   -7868.4145
      XYYY    4552.0314   YYYY   -7790.7159   XXXZ   15837.1378
      XXYZ   -4092.9556   XYYZ    3749.4971   YYYZ   -3629.3310
      XXZZ  -13280.6498   XYZZ    3716.8638   YYZZ   -4892.9309
      XZZZ   12254.3220   YZZZ   -5167.2634   ZZZZ  -19242.7634
 -----------------------------------------------------------------
Archival summary:
1\1\big006\SP\HF\BasisUnspecified\34431\mewes\FriJan1116:45:032019FriJan1116:45:032019\0\\#,HF,BasisUnspecified,\\0,1\N\C,1,1.3964\C,2,1.39482,1,121.117\H,3,1.0815,2,120.416,1,1.08771,0\C,3,1.38462,2,120.121,1,-178.36,0\H,5,1.08241,3,119.325,2,-179.975,0\C,5,1.38486,3,120.264,2,0.883071,0\H,7,1.08186,5,120.591,3,179.272,0\C,7,1.38743,5,119.318,3,-1.55317,0\H,9,1.08149,7,118.613,5,-178.527,0\C,9,1.38824,7,121.632,5,-0.042647,0\C,1,1.39954,2,119.262,3,152.118,0\C,12,1.39458,1,122.021,2,-152.952,0\H,13,1.08075,12,120.995,1,-2.21979,0\C,13,1.38443,12,120.241,1,176.944,0\H,15,1.08246,13,118.999,12,-179.357,0\C,15,1.38443,13,120.384,12,-0.400636,0\H,17,1.08183,15,120.718,13,-178.905,0\C,17,1.38721,15,119.148,13,2.12457,0\H,19,1.08136,17,118.626,15,178.002,0\C,19,1.38809,17,121.714,15,-0.543396,0\C,1,1.41624,2,118.922,3,-16.4135,0\C,22,1.38052,1,121.149,2,96.6505,0\H,23,1.08324,22,118.125,1,-0.759593,0\C,22,1.38768,1,119.521,2,-83.1474,0\H,25,1.08247,22,120.135,1,-0.018762,0\C,25,1.37943,22,118.998,1,178.816,0\H,27,1.0833,25,119.127,22,-177.718,0\C,23,1.39483,22,122.118,1,177.504,0\C,29,1.39527,23,118.482,22,4.88161,0\C,30,1.50211,29,123.355,23,172.051,0\H,31,1.09065,30,108.653,29,-167.663,0\H,31,1.09454,30,111.872,29,76.1489,0\C,11,1.51523,9,123.679,7,-171.768,0\C,34,1.52488,11,112.262,9,-20.4179,0\H,35,1.08969,34,111.002,11,178.101,0\H,35,1.08994,34,110.822,11,60.5616,0\H,35,1.09061,34,112.087,11,-60.5183,0\C,29,1.5319,23,114.237,22,-171.236,0\C,39,1.5185,29,119.512,23,179.141,0\C,40,1.38168,39,120.617,29,-140.911,0\H,41,1.08062,40,120.306,39,17.9618,0\C,41,1.38942,40,121.887,39,-159.165,0\C,43,1.39807,41,120.97,40,-176.265,0\N,44,1.1593,43,179.492,41,-166.168,0\C,43,1.49934,41,119.187,40,5.47119,0\C,46,1.39341,43,117.453,41,-14.7366,0\H,47,1.08346,46,118.776,43,-168.111,0\C,47,1.37218,46,121.734,43,7.38932,0\C,46,1.39474,43,120.732,41,169.405,0\N,50,1.1604,46,179.693,43,108.015,0\C,49,1.48792,47,120.293,46,-161.45,0\H,52,1.09065,49,109.076,47,8.56637,0\H,52,1.09584,49,112.105,47,-108.818,0\C,39,1.52515,29,107.823,23,51.9379,0\C,55,1.38106,39,127.33,29,57.055,0\H,56,1.08366,55,120.942,39,-0.206369,0\C,56,1.38947,55,118.479,39,-179.867,0\H,58,1.08209,56,119.723,55,179.971,0\C,58,1.39176,56,120.478,55,0.077956,0\H,60,1.08188,58,119.547,56,179.914,0\C,60,1.38757,58,120.833,56,0.317585,0\H,62,1.08252,60,120.329,58,179.249,0\C,62,1.38725,60,118.695,58,-0.226472,0\C,64,1.45888,62,131.273,60,177.652,0\C,65,1.38478,64,130.936,62,1.87486,0\H,66,1.08256,65,120.859,64,1.6555,0\C,66,1.38881,65,118.819,64,-178.09,0\H,68,1.08187,66,119.653,65,-179.905,0\C,68,1.38968,66,120.745,65,0.673578,0\H,70,1.08189,68,119.781,66,179.079,0\C,70,1.38966,68,120.541,66,-0.767621,0\H,72,1.08197,70,119.919,68,179.068,0\C,72,1.38188,70,118.647,68,0.068893,0\C,34,1.5443,11,107.767,9,98.2619,0\H,75,1.08999,34,112.046,11,58.4056,0\H,75,1.09151,34,110.465,11,178.64,0\H,75,1.09162,34,110.195,11,-61.6239,0\\HF=-1845.42365\\@

 Total job time:  7938.63s(wall), 87713.24s(cpu) 
 Fri Jan 11 16:45:03 2019

        *************************************************************
        *                                                           *
        *  Thank you very much for using Q-Chem.  Have a nice day.  *
        *                                                           *
        *************************************************************


0 sent ACK to 0 
now end server 0 ... 
 
*************************************************************
Job 2 of 3 
*************************************************************
 
mFile = /cm/shared/apps/q-chem/intel/QCHEM_5.1.0_Trunk/bin/mpi/machines
Process 0 of 1 is on big006 - thread support 0
initial socket setup ...start
initial socket setup ...done 
now start server 0 ... 
Q-Chem Developer Version!
                  Welcome to Q-Chem
     A Quantum Leap Into The Future Of Chemistry


 Q-Chem 5.1, Q-Chem, Inc., Pleasanton, CA (2018)

 Yihan Shao,  Zhengting Gan,  E. Epifanovsky,  A. T. B. Gilbert,  M. Wormit,  
 J. Kussmann,  A. W. Lange,  A. Behn,  Jia Deng,  Xintian Feng,  D. Ghosh,  
 M. Goldey,  P. R. Horn,  L. D. Jacobson,  I. Kaliman,  T. Kus,  A. Landau,  
 Jie Liu,  E. I. Proynov,  R. M. Richard,  R. P. Steele,  E. J. Sundstrom,  
 H. L. Woodcock III,  P. M. Zimmerman,  D. Zuev,  B. Albrecht,  E. Alguire,  
 S. A. Baeppler,  D. Barton,  Z. Benda,  Y. A. Bernard,  E. J. Berquist,  
 K. B. Bravaya,  H. Burton,  D. Casanova,  Chun-Min Chang,  Yunqing Chen,  
 A. Chien,  K. D. Closser,  M. P. Coons,  S. Coriani,  S. Dasgupta,  
 A. L. Dempwolff,  M. Diedenhofen,  Hainam Do,  R. G. Edgar,  Po-Tung Fang,  
 S. Faraji,  S. Fatehi,  Qingguo Feng,  K. D. Fenk,  J. Fosso-Tande,  
 Qinghui Ge,  A. Ghysels,  G. Gidofalvi,  J. Gomes,  J. Gonthier,  A. Gunina,  
 D. Hait,  M. W. D. Hanson-Heine,  P. H. P. Harbach,  A. W. Hauser,  
 J. E. Herr,  E. G. Hohenstein,  Z. C. Holden,  Kerwin Hui,  B. C. Huynh,  
 T.-C. Jagau,  Hyunjun Ji,  B. Kaduk,  K. Khistyaev,  Jaehoon Kim,  
 P. Klunzinger,  K. Koh,  D. Kosenkov,  L. Koulias,  T. Kowalczyk,  
 C. M. Krauter,  A. Kunitsa,  Ka Un Lao,  A. Laurent,  K. V. Lawler,  
 Joonho Lee,  D. Lefrancois,  S. Lehtola,  D. S. Levine,  Yi-Pei Li,  
 You-Sheng Lin,  Fenglai Liu,  E. Livshits,  A. Luenser,  P. Manohar,  
 E. Mansoor,  S. F. Manzer,  Shan-Ping Mao,  Yuezhi Mao,  N. Mardirossian,  
 A. V. Marenich,  T. Markovich,  L. A. Martinez-Martinez,  S. A. Maurer,  
 N. J. Mayhall,  S. C. McKenzie,  J.-M. Mewes,  A. F. Morrison,  
 J. W. Mullinax,  K. Nanda,  T. S. Nguyen-Beck,  R. Olivares-Amaya,  
 J. A. Parkhill,  T. M. Perrine,  F. Plasser,  P. Pokhilko,  S. Prager,  
 A. Prociuk,  E. Ramos,  D. R. Rehn,  F. Rob,  M. Schneider,  N. Sergueev,  
 S. M. Sharada,  S. Sharma,  D. W. Small,  T. Stauch,  T. Stein,  
 Yu-Chuan Su,  A. J. W. Thom,  A. Tkatchenko,  T. Tsuchimochi,  N. M. Tubman,  
 L. Vogt,  M. L. Vidal,  O. Vydrov,  M. A. Watson,  J. Wenzel,  
 M. de Wergifosse,  T. A. Wesolowski,  A. White,  J. Witte,  A. Yamada,  
 Jun Yang,  K. Yao,  S. Yeganeh,  S. R. Yost,  Zhi-Qiang You,  A. Zech,  
 Igor Ying Zhang,  Xing Zhang,  Yan Zhao,  Ying Zhu,  B. R. Brooks,  
 G. K. L. Chan,  C. J. Cramer,  M. S. Gordon,  W. J. Hehre,  A. Klamt,  
 M. W. Schmidt,  C. D. Sherrill,  D. G. Truhlar,  A. Aspuru-Guzik,  R. Baer,  
 A. T. Bell,  N. A. Besley,  Jeng-Da Chai,  A. E. DePrince, III,  
 R. A. DiStasio Jr.,  A. Dreuw,  B. D. Dunietz,  T. R. Furlani,  
 Chao-Ping Hsu,  Yousung Jung,  Jing Kong,  D. S. Lambrecht,  WanZhen Liang,  
 C. Ochsenfeld,  V. A. Rassolov,  L. V. Slipchenko,  J. E. Subotnik,  
 T. Van Voorhis,  J. M. Herbert,  A. I. Krylov,  P. M. W. Gill,  M. Head-Gordon

 Contributors to earlier versions of Q-Chem not listed above: 
 R. D. Adamson,  B. Austin,  J. Baker,  G. J. O. Beran,  K. Brandhorst,  
 S. T. Brown,  E. F. C. Byrd,  A. K. Chakraborty,  C.-L. Cheng,  
 Siu Hung Chien,  D. M. Chipman,  D. L. Crittenden,  H. Dachsel,  
 R. J. Doerksen,  A. D. Dutoi,  L. Fusti-Molnar,  W. A. Goddard III,  
 A. Golubeva-Zadorozhnaya,  S. R. Gwaltney,  G. Hawkins,  A. Heyden,  
 S. Hirata,  G. Kedziora,  F. J. Keil,  C. Kelley,  Jihan Kim,  R. A. King,  
 R. Z. Khaliullin,  P. P. Korambath,  W. Kurlancheek,  A. M. Lee,  M. S. Lee,  
 S. V. Levchenko,  Ching Yeh Lin,  D. Liotard,  R. C. Lochan,  I. Lotan,  
 P. E. Maslen,  N. Nair,  D. P. O'Neill,  D. Neuhauser,  E. Neuscamman,  
 C. M. Oana,  R. Olson,  B. Peters,  R. Peverati,  P. A. Pieniazek,  
 Y. M. Rhee,  J. Ritchie,  M. A. Rohrdanz,  E. Rosta,  N. J. Russ,  
 H. F. Schaefer III,  N. E. Schultz,  N. Shenvi,  A. C. Simmonett,  A. Sodt,  
 D. Stuck,  K. S. Thanthiriwatte,  V. Vanovschi,  Tao Wang,  A. Warshel,  
 C. F. Williams,  Q. Wu,  X. Xu,  W. Zhang

 Please cite Q-Chem as follows:
 Y. Shao et al., Mol. Phys. 113, 184-215 (2015)
 DOI: 10.1080/00268976.2014.952696

 Q-Chem 5.1.1 for Intel X86 EM64T Linux

 Parts of Q-Chem use Armadillo 8.300.2 (Tropical Shenanigans).
 http://arma.sourceforge.net/

 Q-Chem begins on Fri Jan 11 16:45:07 2019  

Host: big006
0

     Scratch files written to /scratch/mewes/143171/qchem24167//
 Parallel job on  1  processors
The previous job contains 0 fragments, simply inherited here
Symmetry turned off for PCM/SM12/SMD calculation
Input Ideriv = 2
Curr. Ideriv = -1
Max.  Ideriv = 2
Input Ideriv = 2
Curr. Ideriv = 2
Max.  Ideriv = 2

Checking the input file for inconsistencies... 	...done.

--------------------------------------------------------------
User input:
--------------------------------------------------------------

$rem
threads        26
method sosadc(2)
adc_c_t 1202
basis  vdz 
aux_basis rimp2-VDZ
mem_total     480000
mem_static    2000
ee_triplets   1
adc_davidson_maxsubspace        24  
adc_davidson_maxiter            100
adc_davidson_conv		6
solvent_method    pcm
n_frozen_core   fc
$end

$pcm
theory iefpcm
eqsolv  30
eqstate 1
vdwscale 1.3
$end

$solvent
dielectric      2.38
dielectric_infi 2.25
$end

$molecule
read
$end

--------------------------------------------------------------
 ----------------------------------------------------------------
             Standard Nuclear Orientation (Angstroms)
    I     Atom           X                Y                Z
 ----------------------------------------------------------------
    1      N       0.0000000000     0.0000000000     0.0000000000
    2      C       0.0000000000     0.0000000000     1.3963950000
    3      C       1.1941266736     0.0000000000     2.1172208451
    4      H       2.1447815243     0.0177047019     1.6018638810
    5      C       1.1703080024    -0.0342724344     3.5012116744
    6      H       2.1046470794    -0.0334251455     4.0476701355
    7      C      -0.0370889350    -0.0871497633     4.1773941678
    8      H      -0.0615450724    -0.1259333305     5.2582811314
    9      C      -1.2215112238    -0.0726119447     3.4549695880
   10      H      -2.1580924764    -0.0899591038     3.9954729696
   11      C      -1.2278066875    -0.0053875249     2.0683684745
   12      C      -1.0792094983    -0.5709765256    -0.6841108658
   13      C      -0.9429558557    -1.1071930499    -1.9642569927
   14      H       0.0020380195    -1.0663525532    -2.4870775677
   15      C      -2.0200043126    -1.7196227350    -2.5819396393
   16      H      -1.8889555779    -2.1382776155    -3.5715234593
   17      C      -3.2391990828    -1.8131752247    -1.9327434440
   18      H      -4.0794195599    -2.3061265070    -2.4032565346
   19      C      -3.3798723890    -1.2464948524    -0.6743925159
   20      H      -4.3448555671    -1.2958993822    -0.1888923270
   21      C      -2.3267805792    -0.5976874002    -0.0444332262
   22      C       1.1890871126     0.3502708162    -0.6849280465
   23      C       2.0567620773    -0.6175282534    -1.1500404444
   24      H       1.8096837387    -1.6559940534    -0.9657793772
   25      C       1.4912630247     1.6891120487    -0.8895134944
   26      H       0.8215972506     2.4587992183    -0.5277499280
   27      C       2.6643368285     2.0186562863    -1.5361312607
   28      H       2.9204326859     3.0634673785    -1.6639119974
   29      C       3.2069919462    -0.2975201123    -1.8712355265
   30      C       3.5356316329     1.0483527184    -2.0367922371
   31      C       4.8302696114     1.5143082589    -2.6394018948
   32      H       4.9354187178     2.5842262564    -2.4557148539
   33      H       4.8376458822     1.4004462943    -3.7279814383
   34      C      -2.4824562218     0.1937434639     1.2424608839
   35      C      -3.7454082813    -0.1793116409     2.0112488255
   36      H      -4.6362978422     0.0030046476     1.4108243300
   37      H      -3.8523814187     0.4376600210     2.9033702519
   38      H      -3.7449059460    -1.2260315414     2.3175393956
   39      C       3.9249168368    -1.5066281273    -2.4789823534
   40      C       5.1808082818    -1.2932350080    -3.3054497629
   41      C       5.4096090363    -2.0418871403    -4.4439642988
   42      H       4.5966892472    -2.5691464602    -4.9223977953
   43      C       6.6829724862    -2.1943133025    -4.9785563026
   44      C       6.8827069797    -2.8913590427    -6.1738978778
   45      N       7.0584087932    -3.4697145377    -7.1631463818
   46      C       7.8592440336    -1.6335810100    -4.2369384944
   47      C       7.5996291727    -0.7211945799    -3.2162778612
   48      H       8.4249896887    -0.1571564338    -2.7985115070
   49      C       6.3214989092    -0.4554455215    -2.7936117366
   50      C       9.1616957910    -1.9519463995    -4.6210699654
   51      N      10.2460502367    -2.2110647871    -4.9428648910
   52      C       6.0284616844     0.7820602763    -2.0212034821
   53      H       6.9128411192     1.4203298691    -2.0216318971
   54      H       5.8048743539     0.5687084263    -0.9698469222
   55      C       2.8972846839    -2.3120179336    -3.2672786758
   56      C       2.1017337486    -1.8672867995    -4.3048858282
   57      H       2.1576593786    -0.8414753097    -4.6497139616
   58      C       1.2196895905    -2.7642270193    -4.8948960914
   59      H       0.5865386732    -2.4370915943    -5.7091611528
   60      C       1.1434115012    -4.0789384885    -4.4446582798
   61      H       0.4502585072    -4.7642605892    -4.9140657476
   62      C       1.9389348917    -4.5189510131    -3.3963838677
   63      H       1.8642626502    -5.5400453166    -3.0447436320
   64      C       2.8183362969    -3.6230714075    -2.8060248355
   65      C       3.7323756536    -3.7728818862    -1.6788958591
   66      C       4.0186290958    -4.8688535004    -0.8823207439
   67      H       3.5491790846    -5.8268206690    -1.0663385967
   68      C       4.9179268046    -4.7184476184     0.1652592326
   69      H       5.1525643649    -5.5661665707     0.7951485009
   70      C       5.5110884380    -3.4880659769     0.4212327806
   71      H       6.1980808531    -3.3848872029     1.2506216290
   72      C       5.2267702863    -2.3871771456    -0.3777427418
   73      H       5.6826375924    -1.4303446866    -0.1602060383
   74      C       4.3427076854    -2.5418281235    -1.4285124684
   75      C      -2.5737747191     1.6915915222     0.8777998019
   76      H      -1.6980873878     2.0323164567     0.3253842364
   77      H      -3.4531996555     1.8809336340     0.2596055298
   78      H      -2.6529678954     2.2957995010     1.7835013993
 ----------------------------------------------------------------
 Nuclear Repulsion Energy =  5540.9674729639 hartrees
 There are      158 alpha and      158 beta electrons
 Requested basis set is VDZ
 There are 297 shells and 485 basis functions

 Total QAlloc Memory Limit 480000 MB
 Mega-Array Size      1956 MB
 MEM_STATIC part      2000 MB
 Discretize the solute cavity surface with Lebedev spheres
	Using 302 Lebedev grid points for each H atom
	Using 302 Lebedev grid points for other atoms
	Atomic van der Waals radii will be scaled by 1.30
 Remove points where switching function is < 1.0e-08
 Keep 7268 surface tesserae and discard 16288 interior tesserae
 Molecular Surface Area = 633.703 Angst**2
 Requested basis set is rimp2-VDZ
 There are 938 shells and 2690 basis functions
 A cutoff of  1.0D-11 yielded  26371 shell pairs
 There are     73225 function pairs
 
 -------------------------------------------------------
 OpenMP Integral Computing Module                       
 Release: version 1.0, May 2013, Q-Chem Inc. Pittsburgh 
 -------------------------------------------------------
 Integral Job Info:
 Integral job number is                      11
 Integral operator is                         1
 short-range coefficients                     0
 long-range coefficients              100000000
 Omega coefficients                           0
 if combine SR and LR in K                    0
 Integral screening is                        0
 Integral computing path is                   2
 max size of driver memory is            800000
 size of driver memory is                 45569
 size of scratch memory is              1477076
 max col of scratch BK array                289
 max len of scratch array in speh3           22
 max len of scratch index in speh4            8
 max int batch size is                      520
 min int batch size is                       52
 fixed nKL is                                52
 max L of basis functions is                  1
 order of int derivative is                   0
 number of shells is                        297
 number of basis is                         485
 number of cartesian basis is               485
 number of contracted shell pairs         26371
 number of primitive shell pairs          66842
 maxK2 (contraction) of shell pair           25
 max number of K2 of shell pair               1
 max number of CS2 of shell pair           6520
 max number of PS2 of shell pair          15860
 mem total for path MDJ                  823250
 -------------------------------------------------------
 Smallest overlap matrix eigenvalue = 2.04E-04

 Scale SEOQF with 1.000000e-02/1.000000e-02/1.000000e-02

 Standard Electronic Orientation quadrupole field applied
 Nucleus-field energy     =     0.0000000011 hartrees
 Guess from superposition of atomic densities
 Warning:  Energy on first SCF cycle will be non-variational
 SAD guess density has 316.000000 electrons
 A restricted Hartree-Fock SCF calculation will be
 performed using Pulay DIIS extrapolation
 Polarizable Continuum solvation model will be applied
 SCF converges when DIIS error is below 1.0E-08
 using 26 threads for integral computing
 -------------------------------------------------------
 OpenMP Integral computing Module                
 Release: version 2.0, May 2017, Q-Chem Inc. Pleasanton 
 -------------------------------------------------------
 ---------------------------------------
  Cycle       Energy         DIIS Error
 ---------------------------------------
    1   -1869.5200307826      5.24E-02
### Frozen reaction-field calculation using stored ESP to compute ASC ###
Reading ESP for state 1 (0 is MP-GS) from file...

 Q-Chem fatal error occurred in module libmdc/newfileman.C, line 384:

 FileMan error: End of file reached prematurely reading (58144) bytes in file FILE_ESESP_FOR_FRFPCM
 Path: /scratch/mewes/143171/qchem24167/8870.0


 Please submit a crash report at q-chem.com/reporter 
 
 
[big006:30742] *** Process received signal ***
[big006:30742] Signal: Aborted (6)
[big006:30742] Signal code:  (-6)
[big006:30742] [ 0] /lib64/libpthread.so.0(+0xf100)[0x2aaaaaee2100]
[big006:30742] [ 1] /lib64/libc.so.6(gsignal+0x37)[0x2aaaac37e5f7]
[big006:30742] [ 2] /lib64/libc.so.6(abort+0x148)[0x2aaaac37fce8]
[big006:30742] [ 3] /cm/shared/apps/q-chem/intel/QCHEM_5.1.0_Trunk/exe/qcprog.exe[0x10a2c76b]
[big006:30742] [ 4] /cm/shared/apps/q-chem/intel/QCHEM_5.1.0_Trunk/exe/qcprog.exe[0x10a395c4]
[big006:30742] [ 5] /cm/shared/apps/q-chem/intel/QCHEM_5.1.0_Trunk/exe/qcprog.exe[0x10a37ec8]
[big006:30742] [ 6] /cm/shared/apps/q-chem/intel/QCHEM_5.1.0_Trunk/exe/qcprog.exe[0x10a2f0ee]
[big006:30742] [ 7] /cm/shared/apps/q-chem/intel/QCHEM_5.1.0_Trunk/exe/qcprog.exe[0x14be7707]
[big006:30742] [ 8] /cm/shared/apps/q-chem/intel/QCHEM_5.1.0_Trunk/exe/qcprog.exe[0x14b91dad]
[big006:30742] [ 9] /cm/shared/apps/q-chem/intel/QCHEM_5.1.0_Trunk/exe/qcprog.exe[0x40a7e37]
[big006:30742] [10] /cm/shared/apps/q-chem/intel/QCHEM_5.1.0_Trunk/exe/qcprog.exe[0x40c0816]
[big006:30742] [11] /cm/shared/apps/q-chem/intel/QCHEM_5.1.0_Trunk/exe/qcprog.exe[0x43fe44]
[big006:30742] [12] /cm/shared/apps/q-chem/intel/QCHEM_5.1.0_Trunk/exe/qcprog.exe[0x43d36e]
[big006:30742] [13] /cm/shared/apps/q-chem/intel/QCHEM_5.1.0_Trunk/exe/qcprog.exe[0x43c2b0]
[big006:30742] [14] /lib64/libc.so.6(__libc_start_main+0xf5)[0x2aaaac36ab15]
[big006:30742] [15] /cm/shared/apps/q-chem/intel/QCHEM_5.1.0_Trunk/exe/qcprog.exe[0x416029]
[big006:30742] *** End of error message ***
 
*************************************************************
Job 3 of 3 
*************************************************************
 
mFile = /cm/shared/apps/q-chem/intel/QCHEM_5.1.0_Trunk/bin/mpi/machines
Process 0 of 1 is on big006 - thread support 0
initial socket setup ...start
initial socket setup ...done 
now start server 0 ... 
Q-Chem Developer Version!
                  Welcome to Q-Chem
     A Quantum Leap Into The Future Of Chemistry


 Q-Chem 5.1, Q-Chem, Inc., Pleasanton, CA (2018)

 Yihan Shao,  Zhengting Gan,  E. Epifanovsky,  A. T. B. Gilbert,  M. Wormit,  
 J. Kussmann,  A. W. Lange,  A. Behn,  Jia Deng,  Xintian Feng,  D. Ghosh,  
 M. Goldey,  P. R. Horn,  L. D. Jacobson,  I. Kaliman,  T. Kus,  A. Landau,  
 Jie Liu,  E. I. Proynov,  R. M. Richard,  R. P. Steele,  E. J. Sundstrom,  
 H. L. Woodcock III,  P. M. Zimmerman,  D. Zuev,  B. Albrecht,  E. Alguire,  
 S. A. Baeppler,  D. Barton,  Z. Benda,  Y. A. Bernard,  E. J. Berquist,  
 K. B. Bravaya,  H. Burton,  D. Casanova,  Chun-Min Chang,  Yunqing Chen,  
 A. Chien,  K. D. Closser,  M. P. Coons,  S. Coriani,  S. Dasgupta,  
 A. L. Dempwolff,  M. Diedenhofen,  Hainam Do,  R. G. Edgar,  Po-Tung Fang,  
 S. Faraji,  S. Fatehi,  Qingguo Feng,  K. D. Fenk,  J. Fosso-Tande,  
 Qinghui Ge,  A. Ghysels,  G. Gidofalvi,  J. Gomes,  J. Gonthier,  A. Gunina,  
 D. Hait,  M. W. D. Hanson-Heine,  P. H. P. Harbach,  A. W. Hauser,  
 J. E. Herr,  E. G. Hohenstein,  Z. C. Holden,  Kerwin Hui,  B. C. Huynh,  
 T.-C. Jagau,  Hyunjun Ji,  B. Kaduk,  K. Khistyaev,  Jaehoon Kim,  
 P. Klunzinger,  K. Koh,  D. Kosenkov,  L. Koulias,  T. Kowalczyk,  
 C. M. Krauter,  A. Kunitsa,  Ka Un Lao,  A. Laurent,  K. V. Lawler,  
 Joonho Lee,  D. Lefrancois,  S. Lehtola,  D. S. Levine,  Yi-Pei Li,  
 You-Sheng Lin,  Fenglai Liu,  E. Livshits,  A. Luenser,  P. Manohar,  
 E. Mansoor,  S. F. Manzer,  Shan-Ping Mao,  Yuezhi Mao,  N. Mardirossian,  
 A. V. Marenich,  T. Markovich,  L. A. Martinez-Martinez,  S. A. Maurer,  
 N. J. Mayhall,  S. C. McKenzie,  J.-M. Mewes,  A. F. Morrison,  
 J. W. Mullinax,  K. Nanda,  T. S. Nguyen-Beck,  R. Olivares-Amaya,  
 J. A. Parkhill,  T. M. Perrine,  F. Plasser,  P. Pokhilko,  S. Prager,  
 A. Prociuk,  E. Ramos,  D. R. Rehn,  F. Rob,  M. Schneider,  N. Sergueev,  
 S. M. Sharada,  S. Sharma,  D. W. Small,  T. Stauch,  T. Stein,  
 Yu-Chuan Su,  A. J. W. Thom,  A. Tkatchenko,  T. Tsuchimochi,  N. M. Tubman,  
 L. Vogt,  M. L. Vidal,  O. Vydrov,  M. A. Watson,  J. Wenzel,  
 M. de Wergifosse,  T. A. Wesolowski,  A. White,  J. Witte,  A. Yamada,  
 Jun Yang,  K. Yao,  S. Yeganeh,  S. R. Yost,  Zhi-Qiang You,  A. Zech,  
 Igor Ying Zhang,  Xing Zhang,  Yan Zhao,  Ying Zhu,  B. R. Brooks,  
 G. K. L. Chan,  C. J. Cramer,  M. S. Gordon,  W. J. Hehre,  A. Klamt,  
 M. W. Schmidt,  C. D. Sherrill,  D. G. Truhlar,  A. Aspuru-Guzik,  R. Baer,  
 A. T. Bell,  N. A. Besley,  Jeng-Da Chai,  A. E. DePrince, III,  
 R. A. DiStasio Jr.,  A. Dreuw,  B. D. Dunietz,  T. R. Furlani,  
 Chao-Ping Hsu,  Yousung Jung,  Jing Kong,  D. S. Lambrecht,  WanZhen Liang,  
 C. Ochsenfeld,  V. A. Rassolov,  L. V. Slipchenko,  J. E. Subotnik,  
 T. Van Voorhis,  J. M. Herbert,  A. I. Krylov,  P. M. W. Gill,  M. Head-Gordon

 Contributors to earlier versions of Q-Chem not listed above: 
 R. D. Adamson,  B. Austin,  J. Baker,  G. J. O. Beran,  K. Brandhorst,  
 S. T. Brown,  E. F. C. Byrd,  A. K. Chakraborty,  C.-L. Cheng,  
 Siu Hung Chien,  D. M. Chipman,  D. L. Crittenden,  H. Dachsel,  
 R. J. Doerksen,  A. D. Dutoi,  L. Fusti-Molnar,  W. A. Goddard III,  
 A. Golubeva-Zadorozhnaya,  S. R. Gwaltney,  G. Hawkins,  A. Heyden,  
 S. Hirata,  G. Kedziora,  F. J. Keil,  C. Kelley,  Jihan Kim,  R. A. King,  
 R. Z. Khaliullin,  P. P. Korambath,  W. Kurlancheek,  A. M. Lee,  M. S. Lee,  
 S. V. Levchenko,  Ching Yeh Lin,  D. Liotard,  R. C. Lochan,  I. Lotan,  
 P. E. Maslen,  N. Nair,  D. P. O'Neill,  D. Neuhauser,  E. Neuscamman,  
 C. M. Oana,  R. Olson,  B. Peters,  R. Peverati,  P. A. Pieniazek,  
 Y. M. Rhee,  J. Ritchie,  M. A. Rohrdanz,  E. Rosta,  N. J. Russ,  
 H. F. Schaefer III,  N. E. Schultz,  N. Shenvi,  A. C. Simmonett,  A. Sodt,  
 D. Stuck,  K. S. Thanthiriwatte,  V. Vanovschi,  Tao Wang,  A. Warshel,  
 C. F. Williams,  Q. Wu,  X. Xu,  W. Zhang

 Please cite Q-Chem as follows:
 Y. Shao et al., Mol. Phys. 113, 184-215 (2015)
 DOI: 10.1080/00268976.2014.952696

 Q-Chem 5.1.1 for Intel X86 EM64T Linux

 Parts of Q-Chem use Armadillo 8.300.2 (Tropical Shenanigans).
 http://arma.sourceforge.net/

 Q-Chem begins on Fri Jan 11 16:45:14 2019  

Host: big006
0

     Scratch files written to /scratch/mewes/143171/qchem24167//
 Parallel job on  1  processors
The previous job contains 0 fragments, simply inherited here
Symmetry turned off for PCM/SM12/SMD calculation
Input Ideriv = 2
Curr. Ideriv = -1
Max.  Ideriv = 2
Input Ideriv = 2
Curr. Ideriv = 2
Max.  Ideriv = 2

Checking the input file for inconsistencies... 	...done.

--------------------------------------------------------------
User input:
--------------------------------------------------------------

$rem
threads        26
method sosadc(2)
adc_c_t 1202
basis vDZ*
aux_basis riMP2-VDZ
mem_total     480000
mem_static    2000
ee_triplets   2
ee_singlets   2
adc_davidson_maxsubspace        24 
adc_davidson_maxiter            100
solvent_method  pcm
n_frozen_core   fc
$end

$pcm
theory iefpcm
eqsolv  1
eqstate 1
vdwscale 1.3
$end

$solvent
dielectric      2.38
dielectric_infi 2.25
$end

$molecule
read
$end


--------------------------------------------------------------
 ----------------------------------------------------------------
             Standard Nuclear Orientation (Angstroms)
    I     Atom           X                Y                Z
 ----------------------------------------------------------------
    1      N       0.0000000000     0.0000000000     0.0000000000
    2      C       0.0000000000     0.0000000000     1.3963950000
    3      C       1.1941266736     0.0000000000     2.1172208451
    4      H       2.1447815243     0.0177047019     1.6018638810
    5      C       1.1703080024    -0.0342724344     3.5012116744
    6      H       2.1046470794    -0.0334251455     4.0476701355
    7      C      -0.0370889350    -0.0871497633     4.1773941678
    8      H      -0.0615450724    -0.1259333305     5.2582811314
    9      C      -1.2215112238    -0.0726119447     3.4549695880
   10      H      -2.1580924764    -0.0899591038     3.9954729696
   11      C      -1.2278066875    -0.0053875249     2.0683684745
   12      C      -1.0792094983    -0.5709765256    -0.6841108658
   13      C      -0.9429558557    -1.1071930499    -1.9642569927
   14      H       0.0020380195    -1.0663525532    -2.4870775677
   15      C      -2.0200043126    -1.7196227350    -2.5819396393
   16      H      -1.8889555779    -2.1382776155    -3.5715234593
   17      C      -3.2391990828    -1.8131752247    -1.9327434440
   18      H      -4.0794195599    -2.3061265070    -2.4032565346
   19      C      -3.3798723890    -1.2464948524    -0.6743925159
   20      H      -4.3448555671    -1.2958993822    -0.1888923270
   21      C      -2.3267805792    -0.5976874002    -0.0444332262
   22      C       1.1890871126     0.3502708162    -0.6849280465
   23      C       2.0567620773    -0.6175282534    -1.1500404444
   24      H       1.8096837387    -1.6559940534    -0.9657793772
   25      C       1.4912630247     1.6891120487    -0.8895134944
   26      H       0.8215972506     2.4587992183    -0.5277499280
   27      C       2.6643368285     2.0186562863    -1.5361312607
   28      H       2.9204326859     3.0634673785    -1.6639119974
   29      C       3.2069919462    -0.2975201123    -1.8712355265
   30      C       3.5356316329     1.0483527184    -2.0367922371
   31      C       4.8302696114     1.5143082589    -2.6394018948
   32      H       4.9354187178     2.5842262564    -2.4557148539
   33      H       4.8376458822     1.4004462943    -3.7279814383
   34      C      -2.4824562218     0.1937434639     1.2424608839
   35      C      -3.7454082813    -0.1793116409     2.0112488255
   36      H      -4.6362978422     0.0030046476     1.4108243300
   37      H      -3.8523814187     0.4376600210     2.9033702519
   38      H      -3.7449059460    -1.2260315414     2.3175393956
   39      C       3.9249168368    -1.5066281273    -2.4789823534
   40      C       5.1808082818    -1.2932350080    -3.3054497629
   41      C       5.4096090363    -2.0418871403    -4.4439642988
   42      H       4.5966892472    -2.5691464602    -4.9223977953
   43      C       6.6829724862    -2.1943133025    -4.9785563026
   44      C       6.8827069797    -2.8913590427    -6.1738978778
   45      N       7.0584087932    -3.4697145377    -7.1631463818
   46      C       7.8592440336    -1.6335810100    -4.2369384944
   47      C       7.5996291727    -0.7211945799    -3.2162778612
   48      H       8.4249896887    -0.1571564338    -2.7985115070
   49      C       6.3214989092    -0.4554455215    -2.7936117366
   50      C       9.1616957910    -1.9519463995    -4.6210699654
   51      N      10.2460502367    -2.2110647871    -4.9428648910
   52      C       6.0284616844     0.7820602763    -2.0212034821
   53      H       6.9128411192     1.4203298691    -2.0216318971
   54      H       5.8048743539     0.5687084263    -0.9698469222
   55      C       2.8972846839    -2.3120179336    -3.2672786758
   56      C       2.1017337486    -1.8672867995    -4.3048858282
   57      H       2.1576593786    -0.8414753097    -4.6497139616
   58      C       1.2196895905    -2.7642270193    -4.8948960914
   59      H       0.5865386732    -2.4370915943    -5.7091611528
   60      C       1.1434115012    -4.0789384885    -4.4446582798
   61      H       0.4502585072    -4.7642605892    -4.9140657476
   62      C       1.9389348917    -4.5189510131    -3.3963838677
   63      H       1.8642626502    -5.5400453166    -3.0447436320
   64      C       2.8183362969    -3.6230714075    -2.8060248355
   65      C       3.7323756536    -3.7728818862    -1.6788958591
   66      C       4.0186290958    -4.8688535004    -0.8823207439
   67      H       3.5491790846    -5.8268206690    -1.0663385967
   68      C       4.9179268046    -4.7184476184     0.1652592326
   69      H       5.1525643649    -5.5661665707     0.7951485009
   70      C       5.5110884380    -3.4880659769     0.4212327806
   71      H       6.1980808531    -3.3848872029     1.2506216290
   72      C       5.2267702863    -2.3871771456    -0.3777427418
   73      H       5.6826375924    -1.4303446866    -0.1602060383
   74      C       4.3427076854    -2.5418281235    -1.4285124684
   75      C      -2.5737747191     1.6915915222     0.8777998019
   76      H      -1.6980873878     2.0323164567     0.3253842364
   77      H      -3.4531996555     1.8809336340     0.2596055298
   78      H      -2.6529678954     2.2957995010     1.7835013993
 ----------------------------------------------------------------
 Nuclear Repulsion Energy =  5540.9674729639 hartrees
 There are      158 alpha and      158 beta electrons
 Requested basis set is VDZ(d)
 There are 344 shells and 720 basis functions

 Total QAlloc Memory Limit 480000 MB
 Mega-Array Size      1956 MB
 MEM_STATIC part      2000 MB
 Discretize the solute cavity surface with Lebedev spheres
	Using 302 Lebedev grid points for each H atom
	Using 302 Lebedev grid points for other atoms
	Atomic van der Waals radii will be scaled by 1.30
 Remove points where switching function is < 1.0e-08
 Keep 7268 surface tesserae and discard 16288 interior tesserae
 Molecular Surface Area = 633.703 Angst**2
 Requested basis set is rimp2-VDZ
 There are 938 shells and 2690 basis functions
 A cutoff of  1.0D-11 yielded  33340 shell pairs
 There are    137260 function pairs (    152059 Cartesian)
 
 -------------------------------------------------------
 OpenMP Integral Computing Module                       
 Release: version 1.0, May 2013, Q-Chem Inc. Pittsburgh 
 -------------------------------------------------------
 Integral Job Info:
 Integral job number is                      11
 Integral operator is                         1
 short-range coefficients                     0
 long-range coefficients              100000000
 Omega coefficients                           0
 if combine SR and LR in K                    0
 Integral screening is                        0
 Integral computing path is                   2
 max size of driver memory is            800000
 size of driver memory is                593474
 size of scratch memory is              1809772
 max col of scratch BK array               1296
 max len of scratch array in speh3          155
 max len of scratch index in speh4           18
 max int batch size is                      520
 min int batch size is                       52
 fixed nKL is                                52
 max L of basis functions is                  2
 order of int derivative is                   0
 number of shells is                        344
 number of basis is                         767
 number of cartesian basis is               767
 number of contracted shell pairs         33340
 number of primitive shell pairs          76569
 maxK2 (contraction) of shell pair           25
 max number of K2 of shell pair               1
 max number of CS2 of shell pair           6520
 max number of PS2 of shell pair          15860
 mem total for path MDJ                  879132
 -------------------------------------------------------
 Smallest overlap matrix eigenvalue = 1.81E-04

 Scale SEOQF with 1.000000e-02/1.000000e-02/1.000000e-02

 Standard Electronic Orientation quadrupole field applied
 Nucleus-field energy     =     0.0000000011 hartrees
 Guess from superposition of atomic densities
 Warning:  Energy on first SCF cycle will be non-variational
 SAD guess density has 316.000000 electrons
 A restricted Hartree-Fock SCF calculation will be
 performed using Pulay DIIS extrapolation
 Polarizable Continuum solvation model will be applied
 SCF converges when DIIS error is below 1.0E-08
 using 26 threads for integral computing
 -------------------------------------------------------
 OpenMP Integral computing Module                
 Release: version 2.0, May 2017, Q-Chem Inc. Pleasanton 
 -------------------------------------------------------
 ---------------------------------------
  Cycle       Energy         DIIS Error
 ---------------------------------------
    1   -1869.5200307826      3.54E-02
### Frozen reaction-field calculation using stored ESP to compute ASC ###
Reading ESP for state 1 (0 is MP-GS) from file...

 Q-Chem fatal error occurred in module libmdc/newfileman.C, line 384:

 FileMan error: End of file reached prematurely reading (58144) bytes in file FILE_ESESP_FOR_FRFPCM
 Path: /scratch/mewes/143171/qchem24167/8870.0


 Please submit a crash report at q-chem.com/reporter 
 
 
[big006:30839] *** Process received signal ***
[big006:30839] Signal: Aborted (6)
[big006:30839] Signal code:  (-6)
[big006:30839] [ 0] /lib64/libpthread.so.0(+0xf100)[0x2aaaaaee2100]
[big006:30839] [ 1] /lib64/libc.so.6(gsignal+0x37)[0x2aaaac37e5f7]
[big006:30839] [ 2] /lib64/libc.so.6(abort+0x148)[0x2aaaac37fce8]
[big006:30839] [ 3] /cm/shared/apps/q-chem/intel/QCHEM_5.1.0_Trunk/exe/qcprog.exe[0x10a2c76b]
[big006:30839] [ 4] /cm/shared/apps/q-chem/intel/QCHEM_5.1.0_Trunk/exe/qcprog.exe[0x10a395c4]
[big006:30839] [ 5] /cm/shared/apps/q-chem/intel/QCHEM_5.1.0_Trunk/exe/qcprog.exe[0x10a37ec8]
[big006:30839] [ 6] /cm/shared/apps/q-chem/intel/QCHEM_5.1.0_Trunk/exe/qcprog.exe[0x10a2f0ee]
[big006:30839] [ 7] /cm/shared/apps/q-chem/intel/QCHEM_5.1.0_Trunk/exe/qcprog.exe[0x14be7707]
[big006:30839] [ 8] /cm/shared/apps/q-chem/intel/QCHEM_5.1.0_Trunk/exe/qcprog.exe[0x14b91dad]
[big006:30839] [ 9] /cm/shared/apps/q-chem/intel/QCHEM_5.1.0_Trunk/exe/qcprog.exe[0x40a7e37]
[big006:30839] [10] /cm/shared/apps/q-chem/intel/QCHEM_5.1.0_Trunk/exe/qcprog.exe[0x40c0816]
[big006:30839] [11] /cm/shared/apps/q-chem/intel/QCHEM_5.1.0_Trunk/exe/qcprog.exe[0x43fe44]
[big006:30839] [12] /cm/shared/apps/q-chem/intel/QCHEM_5.1.0_Trunk/exe/qcprog.exe[0x43d36e]
[big006:30839] [13] /cm/shared/apps/q-chem/intel/QCHEM_5.1.0_Trunk/exe/qcprog.exe[0x43c2b0]
[big006:30839] [14] /lib64/libc.so.6(__libc_start_main+0xf5)[0x2aaaac36ab15]
[big006:30839] [15] /cm/shared/apps/q-chem/intel/QCHEM_5.1.0_Trunk/exe/qcprog.exe[0x416029]
[big006:30839] *** End of error message ***
