mFile = /cm/shared/apps/q-chem/intel/QCHEM_5.0.1_Trunk/bin/mpi/machines
Process 0 of 1 is on ctcp007 - thread support 0
initial socket setup ...start
initial socket setup ...done 
now start server 0 ... 
ctcp007.cm.cluster 10.141.0
Q-Chem Developer Version! Running on 10.141.0.*
                  Welcome to Q-Chem
     A Quantum Leap Into The Future Of Chemistry


 Q-Chem 5.0, Q-Chem, Inc., Pleasanton, CA (2017)

 Yihan Shao,  Zhengting Gan,  E. Epifanovsky,  A. T. B. Gilbert,  M. Wormit,  
 J. Kussmann,  A. W. Lange,  A. Behn,  Jia Deng,  Xintian Feng,  D. Ghosh,  
 M. Goldey,  P. R. Horn,  L. D. Jacobson,  I. Kaliman,  T. Kus,  A. Landau,  
 Jie Liu,  E. I. Proynov,  R. M. Richard,  R. P. Steele,  E. J. Sundstrom,  
 H. L. Woodcock III,  P. M. Zimmerman,  D. Zuev,  B. Albrecht,  E. Alguire,  
 S. A. Baeppler,  Z. Benda,  Y. A. Bernard,  E. J. Berquist,  K. B. Bravaya,  
 D. Casanova,  Chun-Min Chang,  Yunqing Chen,  A. Chien,  K. D. Closser,  
 M. P. Coons,  S. Dasgupta,  M. Diedenhofen,  Hainam Do,  R. G. Edgar,  
 Po-Tung Fang,  S. Fatehi,  Qingguo Feng,  Qinghui Ge,  A. Ghysels,  
 J. Gomes,  J. Gonthier,  A. Gunina,  M. W. D. Hanson-Heine,  
 P. H. P. Harbach,  A. W. Hauser,  J. E. Herr,  E. G. Hohenstein,  
 Z. C. Holden,  Kerwin Hui,  T.-C. Jagau,  Hyunjun Ji,  B. Kaduk,  
 K. Khistyaev,  Jaehoon Kim,  P. Klunzinger,  K. Koh,  D. Kosenkov,  
 T. Kowalczyk,  C. M. Krauter,  A. Kunitsa,  Ka Un Lao,  A. Laurent,  
 K. V. Lawler,  Joonho Lee,  D. Lefrancois,  S. Lehtola,  D. S. Levine,  
 Yi-Pei Li,  You-Sheng Lin,  Fenglai Liu,  E. Livshits,  A. Luenser,  
 P. Manohar,  E. Mansoor,  S. F. Manzer,  Shan-Ping Mao,  Yuezhi Mao,  
 N. Mardirossian,  A. V. Marenich,  L. A. Martinez-Martinez,  S. A. Maurer,  
 N. J. Mayhall,  S. C. McKenzie,  J.-M. Mewes,  A. F. Morrison,  K. Nanda,  
 T. S. Nguyen-Beck,  R. Olivares-Amaya,  J. A. Parkhill,  T. M. Perrine,  
 F. Plasser,  S. Prager,  A. Prociuk,  D. R. Rehn,  F. Rob,  M. Schneider,  
 N. Sergueev,  S. M. Sharada,  S. Sharma,  D. W. Small,  T. Stauch,  
 T. Stein,  Yu-Chuan Su,  A. J. W. Thom,  T. Tsuchimochi,  L. Vogt,  
 O. Vydrov,  M. A. Watson,  J. Wenzel,  M. de Wergifosse,  T. A. Wesolowski,  
 A. White,  J. Witte,  A. Yamada,  Jun Yang,  K. Yao,  S. Yeganeh,  
 S. R. Yost,  Zhi-Qiang You,  A. Zech,  Igor Ying Zhang,  Xing Zhang,  
 Yan Zhao,  Ying Zhu,  B. R. Brooks,  G. K. L. Chan,  C. J. Cramer,  
 M. S. Gordon,  W. J. Hehre,  A. Klamt,  M. W. Schmidt,  C. D. Sherrill,  
 D. G. Truhlar,  A. Aspuru-Guzik,  R. Baer,  A. T. Bell,  N. A. Besley,  
 Jeng-Da Chai,  A. Dreuw,  B. D. Dunietz,  T. R. Furlani,  Chao-Ping Hsu,  
 Yousung Jung,  Jing Kong,  D. S. Lambrecht,  WanZhen Liang,  C. Ochsenfeld,  
 V. A. Rassolov,  L. V. Slipchenko,  J. E. Subotnik,  T. Van Voorhis,  
 J. M. Herbert,  A. I. Krylov,  P. M. W. Gill,  M. Head-Gordon

 Contributors to earlier versions of Q-Chem not listed above: 
 R. D. Adamson,  B. Austin,  J. Baker,  G. J. O. Beran,  K. Brandhorst,  
 S. T. Brown,  E. F. C. Byrd,  A. K. Chakraborty,  C.-L. Cheng,  
 Siu Hung Chien,  D. M. Chipman,  D. L. Crittenden,  H. Dachsel,  
 R. A. DiStasio Jr.,  R. J. Doerksen,  A. D. Dutoi,  L. Fusti-Molnar,  
 W. A. Goddard III,  A. Golubeva-Zadorozhnaya,  S. R. Gwaltney,  G. Hawkins,  
 A. Heyden,  S. Hirata,  G. Kedziora,  F. J. Keil,  C. Kelley,  Jihan Kim,  
 R. A. King,  R. Z. Khaliullin,  P. P. Korambath,  W. Kurlancheek,  
 A. M. Lee,  M. S. Lee,  S. V. Levchenko,  Ching Yeh Lin,  D. Liotard,  
 R. C. Lochan,  I. Lotan,  P. E. Maslen,  N. Nair,  D. P. O'Neill,  
 D. Neuhauser,  E. Neuscamman,  C. M. Oana,  R. Olson,  B. Peters,  
 R. Peverati,  P. A. Pieniazek,  Y. M. Rhee,  J. Ritchie,  M. A. Rohrdanz,  
 E. Rosta,  N. J. Russ,  H. F. Schaefer III,  N. E. Schultz,  N. Shenvi,  
 A. C. Simmonett,  A. Sodt,  D. Stuck,  K. S. Thanthiriwatte,  V. Vanovschi,  
 Tao Wang,  A. Warshel,  C. F. Williams,  Q. Wu,  X. Xu,  W. Zhang

 Please cite Q-Chem as follows:
 Y. Shao et al., Mol. Phys. 113, 184-215 (2015)
 DOI: 10.1080/00268976.2014.952696

 Q-Chem 5.0.1 for Intel X86 EM64T Linux

 Parts of Q-Chem use Armadillo 5.200.1 (Boston Tea Smuggler).
 http://arma.sourceforge.net/

 Q-Chem begins on Thu Oct 18 11:03:37 2018  

Host: ctcp007
0

     Scratch files written to /scratch/mewes1/137682/qchem113063//
 Parallel job on  1  processors
The previous job contains 0 fragments, simply inherited here
Symmetry turned off for PCM/SM12/SMD calculation

Checking the input file for inconsistencies... 	...done.

--------------------------------------------------------------
User input:
--------------------------------------------------------------
$rem
threads 8
jobtype	sp
method PBEh-3c
basis def2-mSVP
mem_static	1024
mem_total	8000
sym_ignore	true
unrestricted true
scf_convergence	9
solvent_method	pcm
$end

$molecule
read incoords.mol
$end

$solvent
dielectric	4.33
$end

$pcm
theory iefpcm
$end
--------------------------------------------------------------
 Adding empirical dispersion correction 
 ----------------------------------------------------------------
 Doing -D3(BJ) with
 s6 =   1.00000
 s8 =   0.00000
 a1 =   0.48600
 a2 =   4.50000
 -D3 energy including 3body term =     -0.0962407747 hartrees
 ----------------------------------------------------------------
 Adding gCP correction 
 ----------------------------------------------------------------
 gCP energy =      0.1526568826 hartrees
 ----------------------------------------------------------------
             Standard Nuclear Orientation (Angstroms)
    I     Atom           X                Y                Z
 ----------------------------------------------------------------
    1      C       0.0000000000     0.0000000000     0.0000000000
    2      C       0.0000000000     0.0000000000     1.4054370000
    3      H       0.9488811653     0.0000000000     1.9314905685
    4      C      -1.1781645248    -0.0437869158     2.1119045308
    5      C      -2.4229914788    -0.1025402133     1.4211698630
    6      C      -2.4489229915    -0.0785325334     0.0508204419
    7      H      -3.4059819399    -0.1265078912    -0.4600356862
    8      C      -1.2476330848    -0.0189551233    -0.6912726415
    9      C      -1.4523060283    -0.1326291199     3.5419022201
   10      C      -0.6885922756    -0.1655689889     4.6818127644
   11      H       0.3907477581    -0.0893815197     4.6467367039
   12      C      -2.8500160683    -0.2583281533     3.6710288900
   13      C      -3.5131185107    -0.4332385143     4.8832105769
   14      C      -3.4870798306    -0.2518265628     2.4144093720
   15      C      -4.8476044099    -0.4286054362     2.3728713505
   16      H      -5.3933288576    -0.4500096593     1.4375790734
   17      C      -1.3372881018    -0.3209420174     5.9278611623
   18      H      -0.7315120612    -0.3487551425     6.8246356421
   19      C      -2.7015702209    -0.4528514966     6.0428585547
   20      H      -3.1529451344    -0.5846646865     7.0187256219
   21      C      -5.5474827066    -0.6025914816     3.5885272567
   22      H      -6.6200469209    -0.7459899776     3.5525389255
   23      C      -4.9160012779    -0.6052867554     4.8104431255
   24      H      -5.4920115626    -0.7519523831     5.7161609262
   25      B      -1.2413081097    -0.0297432152    -2.2167453834
   26      C       0.0614623559     0.0291791457    -3.0093596879
   27      C       0.0671018916    -0.0355028507    -4.4200072835
   28      H      -0.8710265696    -0.0715474560    -4.9663354431
   29      C       1.2471113779    -0.0983690306    -5.1150685505
   30      C       2.4909821525    -0.0840347015    -4.4192853409
   31      C       2.5043554005    -0.0367739852    -3.0445584787
   32      H       3.4449863820    -0.0832785004    -2.5057236638
   33      C       1.3065591454     0.0152089637    -2.3086232788
   34      C       1.5220304653    -0.3006309451    -6.5340381509
   35      C       0.7534437424    -0.4836687039    -7.6553416534
   36      H      -0.3283108634    -0.4415062925    -7.6193525129
   37      C       2.9224566455    -0.3903028204    -6.6553036743
   38      C       3.5858477303    -0.6645768759    -7.8475976827
   39      C       3.5560287859    -0.2549701450    -5.4025508813
   40      C       4.9223917637    -0.3697876996    -5.3509827142
   41      H       5.4654075181    -0.2917371667    -4.4175129788
   42      C       1.4008212277    -0.7526491282    -8.8818586115
   43      H       0.7943739286    -0.9021552167    -9.7661923138
   44      C       2.7693208813    -0.8436150975    -8.9897785650
   45      H       3.2209074181    -1.0647894055    -9.9491771278
   46      C       5.6253882516    -0.6197619365    -6.5517536558
   47      H       6.7029453513    -0.7132093258    -6.5069747191
   48      C       4.9954311501    -0.7699583118    -7.7655016152
   49      H       5.5768696737    -0.9812131230    -8.6544983978
   50      B       1.3311403303    -0.0637968829    -0.7704983392
   51      C      -2.6084085611    -0.2546200677    -2.9641834755
   52      C      -3.4866637763     0.8321797848    -3.2803837777
   53      C      -4.6578936439     0.5923656556    -3.9381880672
   54      H      -5.3435833000     1.3946702948    -4.1802744056
   55      C      -5.0076106171    -0.7273667230    -4.3251928048
   56      O      -6.1429662740    -0.8380988453    -4.9707468567
   57      C      -4.1680360563    -1.8117290927    -4.0125676648
   58      H      -4.4312312240    -2.8194747338    -4.3059811382
   59      C      -3.0000628020    -1.5933254849    -3.3275939475
   60      C      -6.6074789325    -2.1031021568    -5.4196464963
   61      H      -7.5486221639    -1.9132142336    -5.9254465273
   62      H      -6.7790428857    -2.7816056153    -4.5830282642
   63      H      -5.9063459649    -2.5553056606    -6.1223677701
   64      C      -3.1080667987     2.2328662551    -2.9039282602
   65      H      -2.5926464583     2.2241465166    -1.9427214636
   66      H      -4.0147183376     2.8270882442    -2.7703177370
   67      C      -2.1469591498    -2.7682135007    -2.9518502067
   68      H      -1.1032957358    -2.4654997582    -2.8808182805
   69      H      -2.2039002981    -3.5186542845    -3.7442350529
   70      C      -2.2170899324     2.8840325893    -3.9604417463
   71      H      -1.2767108255     2.3476153668    -4.0748128454
   72      H      -1.9794749558     3.9068056123    -3.6712670774
   73      H      -2.7128010396     2.9151289036    -4.9313685151
   74      C      -2.5896312084    -3.3940831696    -1.6272429508
   75      H      -2.4991958005    -2.6890256597    -0.8026756815
   76      H      -1.9610283764    -4.2532078210    -1.3970584682
   77      H      -3.6239428555    -3.7374567041    -1.6720268598
   78      C       2.6710601292    -0.3403222973     0.0161224925
   79      C       3.5918758092     0.6711501784     0.2976230134
   80      C       4.7688400178     0.4024317777     0.9976923685
   81      H       5.4523145492     1.2193429083     1.1955908916
   82      C       5.0458818541    -0.8865078834     1.4266104190
   83      O       6.1593012960    -1.2503940300     2.1030539123
   84      C       4.1341204645    -1.9017754757     1.1586505446
   85      H       4.3566496217    -2.9071918640     1.4987693879
   86      C       2.9629250838    -1.6429515813     0.4669851342
   87      C       7.1103404841    -0.2662284398     2.3985828853
   88      H       7.9170782763    -0.7622780788     2.9351437864
   89      H       7.5267727934     0.1957527134     1.4970285578
   90      H       6.7066294309     0.5269869220     3.0370740560
   91      C       3.3045472535     2.0995712373    -0.0852343383
   92      H       2.7354060747     2.1320371756    -1.0170844137
   93      H       4.2431904447     2.6253919761    -0.2811838830
   94      C       2.0470000886    -2.8054340989     0.1686455440
   95      H       1.0020615381    -2.4912123819     0.2162105010
   96      H       2.1673816055    -3.5661857606     0.9445124837
   97      C       2.3231958541    -3.4349256549    -1.1954696605
   98      H       2.1714299213    -2.7168657088    -2.0012761132
   99      H       3.3507605446    -3.7942790426    -1.2615683841
  100      H       1.6602793022    -4.2836201129    -1.3743505825
  101      C       2.5286806606     2.8382132526     1.0037447715
  102      H       1.5529653899     2.3810797825     1.1694939467
  103      H       3.0687307339     2.8201573132     1.9514078219
  104      H       2.3631354865     3.8815439348     0.7311969160
 ----------------------------------------------------------------
 Nuclear Repulsion Energy =  7629.7560375746 hartrees
 There are      198 alpha and      198 beta electrons
 Requested basis set is def2-mSVP
 There are 498 shells and 962 basis functions

 Total QAlloc Memory Limit   8000 MB
 Mega-Array Size      1001 MB
 MEM_STATIC part      1024 MB
 Discretize the solute cavity surface with Lebedev spheres
	Using 302 Lebedev grid points for each H atom
	Using 302 Lebedev grid points for other atoms
	Atomic van der Waals radii will be scaled by 1.20
 Remove points where switching function is < 1.0e-08
 Keep 10954 surface tesserae and discard 20454 interior tesserae
 Molecular Surface Area = 792.958 Angst**2
 A cutoff of  1.0D-12 yielded  48638 shell pairs
 There are    188668 function pairs (    207621 Cartesian)
 
 -------------------------------------------------------
 OpenMP Integral Computing Module                       
 Release: version 1.0, May 2013, Q-Chem Inc. Pittsburgh 
 -------------------------------------------------------
 Integral Job Info:
 Integral job number is                      11
 Integral operator is                         1
 short-range coefficients                     0
 long-range coefficients              100000000
 Omega coefficients                           0
 if combine SR and LR in K                    0
 Integral screening is                        0
 Integral computing path is                   2
 max size of driver memory is            800000
 size of driver memory is                593474
 size of scratch memory is              1809772
 max col of scratch BK array               1296
 max len of scratch array in speh3          155
 max len of scratch index in speh4           18
 max int batch size is                      520
 min int batch size is                       52
 fixed nKL is                                52
 max L of basis functions is                  2
 order of int derivative is                   0
 number of shells is                        498
 number of basis is                        1020
 number of cartesian basis is              1020
 number of contracted shell pairs         48638
 number of primitive shell pairs         101047
 maxK2 (contraction) of shell pair           25
 max number of K2 of shell pair               1
 max number of CS2 of shell pair          11971
 max number of PS2 of shell pair          17775
 mem total for path MDJ                  489832
 -------------------------------------------------------
 Smallest overlap matrix eigenvalue = 1.97E-04

 Scale SEOQF with 1.000000e-02/1.000000e-01/1.000000e-02

 Standard Electronic Orientation quadrupole field applied
 Nucleus-field energy     =     0.0000000006 hartrees
 Guess from superposition of atomic densities
 Warning:  Energy on first SCF cycle will be non-variational
 An unrestricted hybrid HF-DFT SCF calculation will be
 performed using Pulay DIIS extrapolation
 Polarizable Continuum solvation model will be applied
 Exchange:     0.4200 Hartree-Fock + 0.5800 PBEh-3c
 Correlation:  1.0000 PBEh-3c
 Using SG-1 standard quadrature grid
 Dispersion:   Grimme D3
 SCF converges when DIIS error is below 1.0E-09
 using 8 threads for integral computing
 -------------------------------------------------------
 OpenMP Integral computing Module                
 Release: version 1.0, May 2013, Q-Chem Inc. Pittsburgh 
 -------------------------------------------------------
 ---------------------------------------
  Cycle       Energy         DIIS Error
 ---------------------------------------
    1   -2299.9623035589      2.70E-02
 Using non-symmetric K matrix
 Warning: not using a symmetric Q
    2   -2280.2667277860      1.86E-03
    3   -2280.4688912295      1.43E-03
    4   -2280.6952583239      4.58E-04
    5   -2280.7183763644      1.89E-04
    6   -2280.7227927842      4.78E-05
    7   -2280.7230485216      1.41E-05
    8   -2280.7230709835      3.97E-06
    9   -2280.7230738989      9.87E-07
   10   -2280.7230740364      4.34E-07
   11   -2280.7230740888      1.31E-07
   12   -2280.7230740899      7.43E-08
   13   -2280.7230740963      2.22E-08
   14   -2280.7230740983      9.30E-09
   15   -2280.7230740971      3.33E-09
   16   -2280.7230740921      1.14E-09
   17   -2280.7230740991      3.71E-10 Convergence criterion met
 ---------------------------------------

************** Final PCM Free Energy Summary **************
 G_electrostatic  =      -0.02225662 hartree =     -13.96624153 kcal/mol
 G_cavitation     =       0.00000000 hartree =       0.00000000 kcal/mol
 G_dispersion     =       0.00000000 hartree =       0.00000000 kcal/mol
 G_repulsion      =       0.00000000 hartree =       0.00000000 kcal/mol
 --------------------------------------------------
 Non-electrostatic Free Energy =       0.00000000 hartree =       0.00000000 kcal/mol
 Total                         =      -0.02225662 hartree =     -13.96624153 kcal/mol
 --------------------------------------------------
 SCF Energy (H0 + V/2)                       =   -2280.72307410 
 Solute Internal Energy (H0)                 =   -2280.70081748 
 Total Free Energy (H0 + V/2 + non-elec)     =   -2280.72307410 hartree
                                             = -1431175.32972542 kcal/mol
***********************************************************

 <S^2> = 0.0000
 SCF time:  CPU 8112.00 s  wall 3001.02 s
 SCF   energy in the final basis set = -2280.72307410
 Total energy in the final basis set = -2280.72307410
 
 --------------------------------------------------------------
 
                    Orbital Energies (a.u.)
 --------------------------------------------------------------
 
 Alpha MOs
 -- Occupied --
-19.526 -19.526 -10.504 -10.503 -10.486 -10.483 -10.464 -10.464
-10.464 -10.464 -10.463 -10.463 -10.463 -10.463 -10.463 -10.463
-10.461 -10.461 -10.461 -10.461 -10.460 -10.460 -10.460 -10.460
-10.457 -10.457 -10.457 -10.457 -10.453 -10.453 -10.453 -10.452
-10.451 -10.451 -10.449 -10.448 -10.447 -10.447 -10.435 -10.434
-10.434 -10.434 -10.434 -10.433 -10.431 -10.431 -10.431 -10.430
-10.430 -10.427 -10.420 -10.419 -10.418 -10.418 -10.417 -10.417
 -6.947  -6.940  -1.192  -1.183  -1.016  -1.015  -0.962  -0.958
 -0.955  -0.947  -0.933  -0.932  -0.908  -0.899  -0.889  -0.888
 -0.866  -0.861  -0.855  -0.854  -0.846  -0.845  -0.824  -0.820
 -0.818  -0.812  -0.811  -0.803  -0.801  -0.800  -0.772  -0.769
 -0.735  -0.728  -0.726  -0.720  -0.710  -0.709  -0.703  -0.701
 -0.688  -0.681  -0.678  -0.666  -0.655  -0.646  -0.644  -0.644
 -0.630  -0.626  -0.594  -0.592  -0.589  -0.587  -0.583  -0.581
 -0.581  -0.575  -0.574  -0.563  -0.561  -0.543  -0.542  -0.536
 -0.535  -0.532  -0.526  -0.522  -0.513  -0.506  -0.503  -0.503
 -0.502  -0.500  -0.498  -0.494  -0.492  -0.489  -0.488  -0.485
 -0.485  -0.483  -0.481  -0.480  -0.479  -0.478  -0.476  -0.464
 -0.461  -0.459  -0.458  -0.455  -0.453  -0.451  -0.441  -0.439
 -0.435  -0.433  -0.431  -0.428  -0.428  -0.426  -0.425  -0.416
 -0.415  -0.411  -0.407  -0.405  -0.400  -0.399  -0.396  -0.395
 -0.395  -0.393  -0.392  -0.391  -0.390  -0.386  -0.381  -0.379
 -0.378  -0.372  -0.363  -0.362  -0.357  -0.355  -0.352  -0.348
 -0.341  -0.335  -0.319  -0.314  -0.295  -0.294  -0.282  -0.278
 -0.276  -0.261  -0.256  -0.255  -0.251  -0.236
 -- Virtual --
 -0.095  -0.059  -0.037  -0.031  -0.005   0.006   0.015   0.024
  0.029   0.035   0.037   0.044   0.071   0.083   0.089   0.092
  0.114   0.122   0.146   0.151   0.152   0.152   0.159   0.161
  0.162   0.164   0.166   0.167   0.169   0.172   0.173   0.179
  0.184   0.187   0.189   0.192   0.193   0.194   0.199   0.201
  0.202   0.204   0.204   0.206   0.207   0.209   0.213   0.213
  0.215   0.217   0.219   0.222   0.222   0.223   0.225   0.226
  0.228   0.230   0.231   0.232   0.234   0.235   0.239   0.241
  0.243   0.245   0.249   0.251   0.252   0.253   0.255   0.258
  0.261   0.266   0.269   0.271   0.273   0.278   0.282   0.286
  0.287   0.288   0.291   0.291   0.296   0.300   0.304   0.312
  0.313   0.313   0.315   0.318   0.321   0.327   0.329   0.333
  0.336   0.340   0.346   0.349   0.353   0.356   0.361   0.366
  0.372   0.384   0.389   0.400   0.403   0.406   0.409   0.415
  0.420   0.421   0.424   0.425   0.436   0.445   0.450   0.455
  0.458   0.460   0.466   0.469   0.478   0.480   0.486   0.489
  0.490   0.496   0.498   0.499   0.502   0.502   0.507   0.511
  0.517   0.523   0.524   0.526   0.527   0.529   0.529   0.531
  0.533   0.536   0.537   0.540   0.543   0.545   0.549   0.550
  0.552   0.555   0.556   0.558   0.560   0.564   0.564   0.566
  0.571   0.572   0.576   0.578   0.582   0.583   0.586   0.588
  0.589   0.590   0.591   0.593   0.596   0.597   0.600   0.601
  0.602   0.604   0.605   0.611   0.616   0.618   0.619   0.620
  0.622   0.627   0.629   0.631   0.632   0.635   0.639   0.643
  0.646   0.652   0.653   0.655   0.657   0.659   0.660   0.660
  0.661   0.663   0.664   0.668   0.674   0.676   0.677   0.681
  0.684   0.688   0.698   0.701   0.706   0.707   0.708   0.713
  0.716   0.717   0.720   0.724   0.727   0.733   0.734   0.736
  0.741   0.746   0.747   0.750   0.756   0.757   0.759   0.766
  0.770   0.774   0.777   0.781   0.782   0.786   0.791   0.793
  0.794   0.804   0.806   0.811   0.814   0.824   0.827   0.835
  0.838   0.842   0.846   0.852   0.854   0.859   0.863   0.865
  0.878   0.882   0.892   0.904   0.904   0.906   0.911   0.913
  0.919   0.923   0.925   0.934   0.944   0.950   0.951   0.953
  0.958   0.961   0.962   0.967   0.970   0.973   0.977   0.985
  0.987   0.988   0.990   0.991   0.992   0.997   0.998   1.001
  1.002   1.006   1.007   1.008   1.012   1.013   1.023   1.024
  1.028   1.031   1.032   1.035   1.037   1.038   1.042   1.043
  1.045   1.047   1.049   1.052   1.057   1.059   1.061   1.068
  1.071   1.071   1.075   1.081   1.082   1.084   1.086   1.088
  1.090   1.092   1.095   1.098   1.102   1.106   1.108   1.124
  1.126   1.128   1.131   1.135   1.144   1.149   1.151   1.153
  1.156   1.160   1.163   1.165   1.169   1.173   1.176   1.181
  1.182   1.188   1.194   1.202   1.207   1.209   1.213   1.222
  1.229   1.230   1.241   1.247   1.255   1.257   1.261   1.263
  1.272   1.274   1.276   1.281   1.287   1.291   1.295   1.295
  1.302   1.308   1.312   1.314   1.317   1.319   1.325   1.329
  1.329   1.333   1.341   1.344   1.351   1.353   1.356   1.365
  1.369   1.374   1.374   1.386   1.391   1.398   1.401   1.403
  1.406   1.414   1.419   1.427   1.431   1.435   1.436   1.439
  1.444   1.446   1.447   1.449   1.451   1.456   1.456   1.476
  1.490   1.494   1.503   1.512   1.513   1.516   1.518   1.519
  1.519   1.523   1.526   1.530   1.531   1.532   1.535   1.538
  1.546   1.548   1.551   1.557   1.563   1.566   1.572   1.574
  1.580   1.584   1.590   1.593   1.595   1.597   1.599   1.613
  1.614   1.621   1.626   1.633   1.635   1.642   1.644   1.656
  1.673   1.675   1.687   1.701   1.718   1.723   1.743   1.747
  1.753   1.756   1.762   1.766   1.769   1.780   1.784   1.791
  1.793   1.799   1.800   1.808   1.810   1.811   1.812   1.815
  1.820   1.822   1.825   1.829   1.839   1.851   1.862   1.871
  1.884   1.892   1.899   1.905   1.906   1.920   1.922   1.925
  1.934   1.940   1.944   1.947   1.954   1.969   1.971   1.975
  1.982   1.983   1.985   1.988   1.994   1.998   1.999   2.011
  2.021   2.028   2.031   2.032   2.040   2.043   2.045   2.050
  2.052   2.058   2.062   2.070   2.072   2.074   2.077   2.081
  2.082   2.090   2.099   2.106   2.109   2.112   2.113   2.121
  2.130   2.133   2.137   2.141   2.150   2.157   2.159   2.160
  2.161   2.163   2.164   2.166   2.176   2.183   2.195   2.201
  2.203   2.204   2.205   2.219   2.231   2.232   2.235   2.248
  2.249   2.252   2.254   2.262   2.267   2.268   2.272   2.275
  2.277   2.284   2.291   2.294   2.307   2.317   2.318   2.322
  2.323   2.324   2.326   2.332   2.333   2.338   2.341   2.342
  2.345   2.347   2.352   2.354   2.357   2.360   2.360   2.369
  2.370   2.373   2.384   2.388   2.392   2.397   2.401   2.411
  2.413   2.415   2.422   2.422   2.429   2.431   2.434   2.443
  2.449   2.452   2.464   2.469   2.476   2.479   2.485   2.489
  2.493   2.501   2.503   2.506   2.519   2.521   2.526   2.534
  2.537   2.558   2.564   2.569   2.581   2.597   2.609   2.626
  2.632   2.639   2.643   2.645   2.647   2.652   2.664   2.670
  2.685   2.686   2.688   2.692   2.710   2.719   2.722   2.728
  2.730   2.734   2.739   2.750   2.752   2.763   2.766   2.776
  2.777   2.782   2.785   2.787   2.789   2.792   2.793   2.796
  2.807   2.808   2.812   2.816   2.822   2.826   2.846   2.852
  2.858   2.861   2.868   2.876   2.894   2.897   2.902   2.906
  2.922   2.927   2.942   2.946   2.955   2.981   2.992   3.001
  3.018   3.026   3.054   3.065   3.077   3.080   3.081   3.085
  3.103   3.112   3.136   3.238   3.256   3.258   3.317   3.328
  3.401   3.440   3.453   3.491   3.492   3.493   3.525   3.551
  3.666   3.676   9.602   9.754  13.143  13.178  13.400  13.478
 13.495  13.511  13.524  13.548  13.667  13.682  13.730  13.764
 13.766  13.771  13.778  13.796  13.800  13.807  13.861  13.869
 13.878  13.913  13.925  13.991  14.003  14.032  14.033  14.037
 14.043  14.047  14.051  14.055  14.158  14.163  14.164  14.199
 14.212  14.226  14.241  14.261  14.277  14.287  14.312  14.317
 14.339  14.346  14.511  14.516  14.544  14.560  14.567  14.578
 14.582  14.582  25.787  25.791
 
 Beta MOs
 -- Occupied --
-19.526 -19.526 -10.504 -10.503 -10.486 -10.483 -10.464 -10.464
-10.464 -10.464 -10.463 -10.463 -10.463 -10.463 -10.463 -10.463
-10.461 -10.461 -10.461 -10.461 -10.460 -10.460 -10.460 -10.460
-10.457 -10.457 -10.457 -10.457 -10.453 -10.453 -10.453 -10.452
-10.451 -10.451 -10.449 -10.448 -10.447 -10.447 -10.435 -10.434
-10.434 -10.434 -10.434 -10.433 -10.431 -10.431 -10.431 -10.430
-10.430 -10.427 -10.420 -10.419 -10.418 -10.418 -10.417 -10.417
 -6.947  -6.940  -1.192  -1.183  -1.016  -1.015  -0.962  -0.958
 -0.955  -0.947  -0.933  -0.932  -0.908  -0.899  -0.889  -0.888
 -0.866  -0.861  -0.855  -0.854  -0.846  -0.845  -0.824  -0.820
 -0.818  -0.812  -0.811  -0.803  -0.801  -0.800  -0.772  -0.769
 -0.735  -0.728  -0.726  -0.720  -0.710  -0.709  -0.703  -0.701
 -0.688  -0.681  -0.678  -0.666  -0.655  -0.646  -0.644  -0.644
 -0.630  -0.626  -0.594  -0.592  -0.589  -0.587  -0.583  -0.581
 -0.581  -0.575  -0.574  -0.563  -0.561  -0.543  -0.542  -0.536
 -0.535  -0.532  -0.526  -0.522  -0.513  -0.506  -0.503  -0.503
 -0.502  -0.500  -0.498  -0.494  -0.492  -0.489  -0.488  -0.485
 -0.485  -0.483  -0.481  -0.480  -0.479  -0.478  -0.476  -0.464
 -0.461  -0.459  -0.458  -0.455  -0.453  -0.451  -0.441  -0.439
 -0.435  -0.433  -0.431  -0.428  -0.428  -0.426  -0.425  -0.416
 -0.415  -0.411  -0.407  -0.405  -0.400  -0.399  -0.396  -0.395
 -0.395  -0.393  -0.392  -0.391  -0.390  -0.386  -0.381  -0.379
 -0.378  -0.372  -0.363  -0.362  -0.357  -0.355  -0.352  -0.348
 -0.341  -0.335  -0.319  -0.314  -0.295  -0.294  -0.282  -0.278
 -0.276  -0.261  -0.256  -0.255  -0.251  -0.236
 -- Virtual --
 -0.095  -0.059  -0.037  -0.031  -0.005   0.006   0.015   0.024
  0.029   0.035   0.037   0.044   0.071   0.083   0.089   0.092
  0.114   0.122   0.146   0.151   0.152   0.152   0.159   0.161
  0.162   0.164   0.166   0.167   0.169   0.172   0.173   0.179
  0.184   0.187   0.189   0.192   0.193   0.194   0.199   0.201
  0.202   0.204   0.204   0.206   0.207   0.209   0.213   0.213
  0.215   0.217   0.219   0.222   0.222   0.223   0.225   0.226
  0.228   0.230   0.231   0.232   0.234   0.235   0.239   0.241
  0.243   0.245   0.249   0.251   0.252   0.253   0.255   0.258
  0.261   0.266   0.269   0.271   0.273   0.278   0.282   0.286
  0.287   0.288   0.291   0.291   0.296   0.300   0.304   0.312
  0.313   0.313   0.315   0.318   0.321   0.327   0.329   0.333
  0.336   0.340   0.346   0.349   0.353   0.356   0.361   0.366
  0.372   0.384   0.389   0.400   0.403   0.406   0.409   0.415
  0.420   0.421   0.424   0.425   0.436   0.445   0.450   0.455
  0.458   0.460   0.466   0.469   0.478   0.480   0.486   0.489
  0.490   0.496   0.498   0.499   0.502   0.502   0.507   0.511
  0.517   0.523   0.524   0.526   0.527   0.529   0.529   0.531
  0.533   0.536   0.537   0.540   0.543   0.545   0.549   0.550
  0.552   0.555   0.556   0.558   0.560   0.564   0.564   0.566
  0.571   0.572   0.576   0.578   0.582   0.583   0.586   0.588
  0.589   0.590   0.591   0.593   0.596   0.597   0.600   0.601
  0.602   0.604   0.605   0.611   0.616   0.618   0.619   0.620
  0.622   0.627   0.629   0.631   0.632   0.635   0.639   0.643
  0.646   0.652   0.653   0.655   0.657   0.659   0.660   0.660
  0.661   0.663   0.664   0.668   0.674   0.676   0.677   0.681
  0.684   0.688   0.698   0.701   0.706   0.707   0.708   0.713
  0.716   0.717   0.720   0.724   0.727   0.733   0.734   0.736
  0.741   0.746   0.747   0.750   0.756   0.757   0.759   0.766
  0.770   0.774   0.777   0.781   0.782   0.786   0.791   0.793
  0.794   0.804   0.806   0.811   0.814   0.824   0.827   0.835
  0.838   0.842   0.846   0.852   0.854   0.859   0.863   0.865
  0.878   0.882   0.892   0.904   0.904   0.906   0.911   0.913
  0.919   0.923   0.925   0.934   0.944   0.950   0.951   0.953
  0.958   0.961   0.962   0.967   0.970   0.973   0.977   0.985
  0.987   0.988   0.990   0.991   0.992   0.997   0.998   1.001
  1.002   1.006   1.007   1.008   1.012   1.013   1.023   1.024
  1.028   1.031   1.032   1.035   1.037   1.038   1.042   1.043
  1.045   1.047   1.049   1.052   1.057   1.059   1.061   1.068
  1.071   1.071   1.075   1.081   1.082   1.084   1.086   1.088
  1.090   1.092   1.095   1.098   1.102   1.106   1.108   1.124
  1.126   1.128   1.131   1.135   1.144   1.149   1.151   1.153
  1.156   1.160   1.163   1.165   1.169   1.173   1.176   1.181
  1.182   1.188   1.194   1.202   1.207   1.209   1.213   1.222
  1.229   1.230   1.241   1.247   1.255   1.257   1.261   1.263
  1.272   1.274   1.276   1.281   1.287   1.291   1.295   1.295
  1.302   1.308   1.312   1.314   1.317   1.319   1.325   1.329
  1.329   1.333   1.341   1.344   1.351   1.353   1.356   1.365
  1.369   1.374   1.374   1.386   1.391   1.398   1.401   1.403
  1.406   1.414   1.419   1.427   1.431   1.435   1.436   1.439
  1.444   1.446   1.447   1.449   1.451   1.456   1.456   1.476
  1.490   1.494   1.503   1.512   1.513   1.516   1.518   1.519
  1.519   1.523   1.526   1.530   1.531   1.532   1.535   1.538
  1.546   1.548   1.551   1.557   1.563   1.566   1.572   1.574
  1.580   1.584   1.590   1.593   1.595   1.597   1.599   1.613
  1.614   1.621   1.626   1.633   1.635   1.642   1.644   1.656
  1.673   1.675   1.687   1.701   1.718   1.723   1.743   1.747
  1.753   1.756   1.762   1.766   1.769   1.780   1.784   1.791
  1.793   1.799   1.800   1.808   1.810   1.811   1.812   1.815
  1.820   1.822   1.825   1.829   1.839   1.851   1.862   1.871
  1.884   1.892   1.899   1.905   1.906   1.920   1.922   1.925
  1.934   1.940   1.944   1.947   1.954   1.969   1.971   1.975
  1.982   1.983   1.985   1.988   1.994   1.998   1.999   2.011
  2.021   2.028   2.031   2.032   2.040   2.043   2.045   2.050
  2.052   2.058   2.062   2.070   2.072   2.074   2.077   2.081
  2.082   2.090   2.099   2.106   2.109   2.112   2.113   2.121
  2.130   2.133   2.137   2.141   2.150   2.157   2.159   2.160
  2.161   2.163   2.164   2.166   2.176   2.183   2.195   2.201
  2.203   2.204   2.205   2.219   2.231   2.232   2.235   2.248
  2.249   2.252   2.254   2.262   2.267   2.268   2.272   2.275
  2.277   2.284   2.291   2.294   2.307   2.317   2.318   2.322
  2.323   2.324   2.326   2.332   2.333   2.338   2.341   2.342
  2.345   2.347   2.352   2.354   2.357   2.360   2.360   2.369
  2.370   2.373   2.384   2.388   2.392   2.397   2.401   2.411
  2.413   2.415   2.422   2.422   2.429   2.431   2.434   2.443
  2.449   2.452   2.464   2.469   2.476   2.479   2.485   2.489
  2.493   2.501   2.503   2.506   2.519   2.521   2.526   2.534
  2.537   2.558   2.564   2.569   2.581   2.597   2.609   2.626
  2.632   2.639   2.643   2.645   2.647   2.652   2.664   2.670
  2.685   2.686   2.688   2.692   2.710   2.719   2.722   2.728
  2.730   2.734   2.739   2.750   2.752   2.763   2.766   2.776
  2.777   2.782   2.785   2.787   2.789   2.792   2.793   2.796
  2.807   2.808   2.812   2.816   2.822   2.826   2.846   2.852
  2.858   2.861   2.868   2.876   2.894   2.897   2.902   2.906
  2.922   2.927   2.942   2.946   2.955   2.981   2.992   3.001
  3.018   3.026   3.054   3.065   3.077   3.080   3.081   3.085
  3.103   3.112   3.136   3.238   3.256   3.258   3.317   3.328
  3.401   3.440   3.453   3.491   3.492   3.493   3.525   3.551
  3.666   3.676   9.602   9.754  13.143  13.178  13.400  13.478
 13.495  13.511  13.524  13.548  13.667  13.682  13.730  13.764
 13.766  13.771  13.778  13.796  13.800  13.807  13.861  13.869
 13.878  13.913  13.925  13.991  14.003  14.032  14.033  14.037
 14.043  14.047  14.051  14.055  14.158  14.163  14.164  14.199
 14.212  14.226  14.241  14.261  14.277  14.287  14.312  14.317
 14.339  14.346  14.511  14.516  14.544  14.560  14.567  14.578
 14.582  14.582  25.787  25.791
 --------------------------------------------------------------
 
          Ground-State Mulliken Net Atomic Charges

     Atom                 Charge (a.u.)    Spin (a.u.)
  --------------------------------------------------------
      1 C                    -0.142382      -0.000000
      2 C                    -0.400778      -0.000000
      3 H                     0.247980      -0.000000
      4 C                     0.094903       0.000000
      5 C                     0.084555      -0.000000
      6 C                    -0.393795      -0.000000
      7 H                     0.247469      -0.000000
      8 C                    -0.147078       0.000000
      9 C                     0.180240       0.000000
     10 C                    -0.390029      -0.000000
     11 H                     0.245900       0.000000
     12 C                    -0.069008      -0.000000
     13 C                     0.227502       0.000000
     14 C                     0.185940      -0.000000
     15 C                    -0.391836       0.000000
     16 H                     0.246016       0.000000
     17 C                    -0.226372       0.000000
     18 H                     0.250500       0.000000
     19 C                    -0.344808      -0.000000
     20 H                     0.247204      -0.000000
     21 C                    -0.225626      -0.000000
     22 H                     0.250832      -0.000000
     23 C                    -0.345098       0.000000
     24 H                     0.247017      -0.000000
     25 B                     0.620882      -0.000000
     26 C                    -0.147310       0.000000
     27 C                    -0.394455      -0.000000
     28 H                     0.247799       0.000000
     29 C                     0.085581       0.000000
     30 C                     0.092711      -0.000000
     31 C                    -0.395155      -0.000000
     32 H                     0.243784      -0.000000
     33 C                    -0.150913       0.000000
     34 C                     0.181391       0.000000
     35 C                    -0.387798      -0.000000
     36 H                     0.246228      -0.000000
     37 C                    -0.066651       0.000000
     38 C                     0.228132      -0.000000
     39 C                     0.178395       0.000000
     40 C                    -0.389477       0.000000
     41 H                     0.245780      -0.000000
     42 C                    -0.226333       0.000000
     43 H                     0.250904      -0.000000
     44 C                    -0.344933      -0.000000
     45 H                     0.247005       0.000000
     46 C                    -0.225981      -0.000000
     47 H                     0.250473      -0.000000
     48 C                    -0.345181       0.000000
     49 H                     0.247381       0.000000
     50 B                     0.639198      -0.000000
     51 C                    -0.255828       0.000000
     52 C                     0.110255       0.000000
     53 C                    -0.413236      -0.000000
     54 H                     0.230823      -0.000000
     55 C                     0.391117       0.000000
     56 O                    -0.453648      -0.000000
     57 C                    -0.459306       0.000000
     58 H                     0.243397      -0.000000
     59 C                     0.079687      -0.000000
     60 C                    -0.421488       0.000000
     61 H                     0.253995      -0.000000
     62 H                     0.221746      -0.000000
     63 H                     0.221697      -0.000000
     64 C                    -0.548311      -0.000000
     65 H                     0.249916      -0.000000
     66 H                     0.238170      -0.000000
     67 C                    -0.554875      -0.000000
     68 H                     0.261485       0.000000
     69 H                     0.237037       0.000000
     70 C                    -0.659034       0.000000
     71 H                     0.242331      -0.000000
     72 H                     0.224943      -0.000000
     73 H                     0.221483       0.000000
     74 C                    -0.654891       0.000000
     75 H                     0.244179      -0.000000
     76 H                     0.223228      -0.000000
     77 H                     0.218493       0.000000
     78 C                    -0.223190       0.000000
     79 C                     0.080046      -0.000000
     80 C                    -0.436259       0.000000
     81 H                     0.247039      -0.000000
     82 C                     0.392253       0.000000
     83 O                    -0.464549       0.000000
     84 C                    -0.397901      -0.000000
     85 H                     0.234903      -0.000000
     86 C                     0.061891      -0.000000
     87 C                    -0.424447       0.000000
     88 H                     0.249818      -0.000000
     89 H                     0.214793       0.000000
     90 H                     0.214661      -0.000000
     91 C                    -0.548328       0.000000
     92 H                     0.252063       0.000000
     93 H                     0.236098      -0.000000
     94 C                    -0.552337      -0.000000
     95 H                     0.257670      -0.000000
     96 H                     0.239880       0.000000
     97 C                    -0.656320       0.000000
     98 H                     0.242289       0.000000
     99 H                     0.221889      -0.000000
    100 H                     0.223657      -0.000000
    101 C                    -0.655041      -0.000000
    102 H                     0.238901       0.000000
    103 H                     0.219629       0.000000
    104 H                     0.226816       0.000000
  --------------------------------------------------------
  Sum of atomic charges =    -0.000000
  Sum of spin   charges =    -0.000000

 -----------------------------------------------------------------
                    Cartesian Multipole Moments
 -----------------------------------------------------------------
    Charge (ESU x 10^10)
                -0.0000
    Dipole Moment (Debye)
         X       0.3618      Y      -1.4320      Z      -0.3195
       Tot       1.5112
    Quadrupole Moments (Debye-Ang)
        XX    -277.3277     XY      21.0576     YY    -334.0443
        XZ      -1.3499     YZ      16.8335     ZZ    -276.5603
    Octopole Moments (Debye-Ang^2)
       XXX      33.1511    XXY      81.4448    XYY     -61.0444
       YYY     399.0040    XXZ     419.0041    XYZ      -9.1325
       YYZ     460.5634    XZZ     -18.9941    YZZ     -14.6853
       ZZZ    1217.2801
    Hexadecapole Moments (Debye-Ang^3)
      XXXX  -21233.5105   XXXY     725.2131   XXYY   -4752.9350
      XYYY     -66.2180   YYYY   -4130.4842   XXXZ    2016.6952
      XXYZ     313.6325   XYYZ    1185.1862   YYYZ    -851.4572
      XXZZ   -8075.0983   XYZZ     190.9784   YYZZ   -6776.9930
      XZZZ    1071.0384   YZZZ     105.4941   ZZZZ  -29070.6598
 -----------------------------------------------------------------
Archival summary:
1\1\ctcp007\SP\ProcedureUnspecified\BasisUnspecified\254246\mewes1\ThuOct1811:53:412018ThuOct1811:53:412018\0\\#,ProcedureUnspecified,BasisUnspecified,\\0,1\C\C,1,1.40544\H,2,1.08495,1,119.004\C,2,1.37444,1,120.931,3,-177.872,0\C,4,1.42484,2,120.068,1,0.579905,0\C,5,1.3708,4,120.028,2,-1.78557,0\H,6,1.08593,5,119.089,4,179.854,0\C,6,1.41328,5,120.635,4,1.09747,0\C,4,1.45875,2,131.829,1,175.853,0\C,9,1.37249,4,135.321,2,2.25104,0\H,10,1.08259,9,121.747,4,2.02748,0\C,9,1.40928,4,106.358,2,-175.011,0\C,12,1.39273,9,124.275,4,176.892,0\C,12,1.40889,9,111.489,4,-0.160168,0\C,14,1.37259,12,118.333,9,177.047,0\H,15,1.08307,14,121.878,12,-178.966,0\C,10,1.41336,9,118.651,4,-177.134,0\H,17,1.08256,10,118.445,9,179.863,0\C,17,1.37546,10,122.649,9,0.620002,0\H,19,1.08325,17,120.019,10,179.076,0\C,15,1.41348,14,118.726,12,0.284299,0\H,21,1.08271,15,118.569,14,-179.746,0\C,21,1.37545,15,122.477,14,-0.195736,0\H,23,1.08334,21,119.926,15,-179.396,0\B,8,1.52552,6,121.89,5,178.282,0\C,25,1.52608,8,121.509,6,-179.746,0\C,26,1.41214,25,121.364,8,177.403,0\H,27,1.08621,26,120.033,25,3.51893,0\C,27,1.37094,26,120.797,25,-174.305,0\C,29,1.42532,27,120.212,26,-0.708618,0\C,30,1.3756,29,119.78,27,1.43926,0\H,31,1.08503,30,120.215,29,176.469,0\C,31,1.40678,30,121.051,29,-0.824168,0\C,29,1.45944,27,131.409,26,173.183,0\C,34,1.3717,29,135.051,27,0.639483,0\H,35,1.08317,34,121.818,29,3.84075,0\C,34,1.40852,29,106.249,27,-174.964,0\C,37,1.39172,34,124.072,29,175.982,0\C,37,1.41036,34,111.35,29,-0.122239,0\C,39,1.37215,37,118.209,34,177.646,0\H,40,1.08274,39,121.72,37,-178.994,0\C,35,1.41272,34,118.578,29,-175.253,0\H,42,1.08267,35,118.604,34,179.695,0\C,42,1.37576,35,122.447,34,0.323692,0\H,44,1.08319,42,119.847,35,179.187,0\C,40,1.4137,39,118.558,37,-0.116471,0\H,46,1.08253,40,118.367,39,-179.791,0\C,46,1.37571,40,122.75,39,-0.879237,0\H,48,1.08306,46,119.977,40,-178.706,0\B,1,1.53937,2,120.035,3,2.74389,0\C,25,1.57423,8,118.177,6,-6.008,0\C,51,1.43264,25,121.925,8,87.1732,0\C,52,1.36455,51,119.951,25,179.524,0\H,53,1.08281,52,121.406,51,179.39,0\C,53,1.41907,52,120.427,51,-0.661029,0\O,55,1.31074,53,115.236,52,-178.879,0\C,55,1.40658,53,120.613,52,1.36449,0\H,57,1.08209,55,120.831,53,-179.997,0\C,57,1.37151,55,119.772,53,-0.011138,0\C,56,1.42039,55,120.942,53,179.744,0\H,60,1.08519,56,105.967,55,-179.364,0\H,60,1.09075,56,111.287,55,61.9646,0\H,60,1.09082,56,111.26,55,-60.724,0\C,52,1.49899,51,119.907,25,0.340243,0\H,64,1.09071,52,109.463,51,-36.5709,0\H,64,1.09223,52,109.234,51,-153.169,0\C,59,1.49978,57,118.998,55,177.402,0\H,67,1.089,59,110.104,57,152.171,0\H,67,1.09283,59,109.065,57,35.3562,0\C,64,1.52777,52,111.832,51,85.2258,0\H,70,1.08864,64,111.494,52,-62.0445,0\H,70,1.0891,64,110.114,52,178.612,0\H,70,1.09059,64,111.268,52,58.9149,0\C,67,1.53044,59,111.88,57,-85.7715,0\H,74,1.08867,67,111.51,59,-61.8746,0\H,74,1.08914,67,109.789,59,178.932,0\H,74,1.09074,67,111.561,59,59.3463,0\C,50,1.57817,1,119.47,2,8.87869,0\C,78,1.3965,50,122.235,1,-103.896,0\C,79,1.39555,78,121.181,50,179.853,0\H,80,1.08335,79,118.588,78,-179.825,0\C,80,1.38639,79,120.182,78,0.121432,0\O,82,1.35266,80,124.702,79,179.579,0\C,82,1.39064,80,119.217,79,-0.436435,0\H,84,1.08446,82,118.809,80,-179.89,0\C,84,1.38459,82,120.956,80,0.311478,0\C,83,1.40014,82,118.396,80,-0.02633,0\H,87,1.08848,83,106.687,82,-179.799,0\H,87,1.09528,83,112.395,82,-61.0789,0\H,87,1.09537,83,112.439,82,61.4806,0\C,79,1.50649,78,120.648,50,3.09559,0\H,91,1.09239,79,110.141,78,-34.0154,0\H,91,1.09359,79,109.739,78,-150.664,0\C,86,1.50973,84,117.902,82,177.744,0\H,94,1.0922,86,110.506,84,144.918,0\H,94,1.09325,86,109.194,84,28.7716,0\C,94,1.52753,86,112.587,84,-92.556,0\H,97,1.08994,94,111.318,86,-61.0498,0\H,97,1.09059,94,111.117,86,58.9453,0\H,97,1.09167,94,110.91,86,178.865,0\C,91,1.52756,79,111.974,78,87.7211,0\H,101,1.09017,91,111.113,79,-62.4359,0\H,101,1.09089,91,111.091,79,57.4495,0\H,101,1.09097,91,111.186,79,177.681,0\\\@

 Total job time:  3004.17s(wall), 8127.90s(cpu) 
 Thu Oct 18 11:53:41 2018

        *************************************************************
        *                                                           *
        *  Thank you very much for using Q-Chem.  Have a nice day.  *
        *                                                           *
        *************************************************************


0 sent ACK to 0 
now end server 0 ... 
 
*************************************************************
Job 2 of 2 
*************************************************************
 
mFile = /cm/shared/apps/q-chem/intel/QCHEM_5.0.1_Trunk/bin/mpi/machines
Process 0 of 1 is on ctcp007 - thread support 0
initial socket setup ...start
initial socket setup ...done 
now start server 0 ... 
ctcp007.cm.cluster 10.141.0
Q-Chem Developer Version! Running on 10.141.0.*
                  Welcome to Q-Chem
     A Quantum Leap Into The Future Of Chemistry


 Q-Chem 5.0, Q-Chem, Inc., Pleasanton, CA (2017)

 Yihan Shao,  Zhengting Gan,  E. Epifanovsky,  A. T. B. Gilbert,  M. Wormit,  
 J. Kussmann,  A. W. Lange,  A. Behn,  Jia Deng,  Xintian Feng,  D. Ghosh,  
 M. Goldey,  P. R. Horn,  L. D. Jacobson,  I. Kaliman,  T. Kus,  A. Landau,  
 Jie Liu,  E. I. Proynov,  R. M. Richard,  R. P. Steele,  E. J. Sundstrom,  
 H. L. Woodcock III,  P. M. Zimmerman,  D. Zuev,  B. Albrecht,  E. Alguire,  
 S. A. Baeppler,  Z. Benda,  Y. A. Bernard,  E. J. Berquist,  K. B. Bravaya,  
 D. Casanova,  Chun-Min Chang,  Yunqing Chen,  A. Chien,  K. D. Closser,  
 M. P. Coons,  S. Dasgupta,  M. Diedenhofen,  Hainam Do,  R. G. Edgar,  
 Po-Tung Fang,  S. Fatehi,  Qingguo Feng,  Qinghui Ge,  A. Ghysels,  
 J. Gomes,  J. Gonthier,  A. Gunina,  M. W. D. Hanson-Heine,  
 P. H. P. Harbach,  A. W. Hauser,  J. E. Herr,  E. G. Hohenstein,  
 Z. C. Holden,  Kerwin Hui,  T.-C. Jagau,  Hyunjun Ji,  B. Kaduk,  
 K. Khistyaev,  Jaehoon Kim,  P. Klunzinger,  K. Koh,  D. Kosenkov,  
 T. Kowalczyk,  C. M. Krauter,  A. Kunitsa,  Ka Un Lao,  A. Laurent,  
 K. V. Lawler,  Joonho Lee,  D. Lefrancois,  S. Lehtola,  D. S. Levine,  
 Yi-Pei Li,  You-Sheng Lin,  Fenglai Liu,  E. Livshits,  A. Luenser,  
 P. Manohar,  E. Mansoor,  S. F. Manzer,  Shan-Ping Mao,  Yuezhi Mao,  
 N. Mardirossian,  A. V. Marenich,  L. A. Martinez-Martinez,  S. A. Maurer,  
 N. J. Mayhall,  S. C. McKenzie,  J.-M. Mewes,  A. F. Morrison,  K. Nanda,  
 T. S. Nguyen-Beck,  R. Olivares-Amaya,  J. A. Parkhill,  T. M. Perrine,  
 F. Plasser,  S. Prager,  A. Prociuk,  D. R. Rehn,  F. Rob,  M. Schneider,  
 N. Sergueev,  S. M. Sharada,  S. Sharma,  D. W. Small,  T. Stauch,  
 T. Stein,  Yu-Chuan Su,  A. J. W. Thom,  T. Tsuchimochi,  L. Vogt,  
 O. Vydrov,  M. A. Watson,  J. Wenzel,  M. de Wergifosse,  T. A. Wesolowski,  
 A. White,  J. Witte,  A. Yamada,  Jun Yang,  K. Yao,  S. Yeganeh,  
 S. R. Yost,  Zhi-Qiang You,  A. Zech,  Igor Ying Zhang,  Xing Zhang,  
 Yan Zhao,  Ying Zhu,  B. R. Brooks,  G. K. L. Chan,  C. J. Cramer,  
 M. S. Gordon,  W. J. Hehre,  A. Klamt,  M. W. Schmidt,  C. D. Sherrill,  
 D. G. Truhlar,  A. Aspuru-Guzik,  R. Baer,  A. T. Bell,  N. A. Besley,  
 Jeng-Da Chai,  A. Dreuw,  B. D. Dunietz,  T. R. Furlani,  Chao-Ping Hsu,  
 Yousung Jung,  Jing Kong,  D. S. Lambrecht,  WanZhen Liang,  C. Ochsenfeld,  
 V. A. Rassolov,  L. V. Slipchenko,  J. E. Subotnik,  T. Van Voorhis,  
 J. M. Herbert,  A. I. Krylov,  P. M. W. Gill,  M. Head-Gordon

 Contributors to earlier versions of Q-Chem not listed above: 
 R. D. Adamson,  B. Austin,  J. Baker,  G. J. O. Beran,  K. Brandhorst,  
 S. T. Brown,  E. F. C. Byrd,  A. K. Chakraborty,  C.-L. Cheng,  
 Siu Hung Chien,  D. M. Chipman,  D. L. Crittenden,  H. Dachsel,  
 R. A. DiStasio Jr.,  R. J. Doerksen,  A. D. Dutoi,  L. Fusti-Molnar,  
 W. A. Goddard III,  A. Golubeva-Zadorozhnaya,  S. R. Gwaltney,  G. Hawkins,  
 A. Heyden,  S. Hirata,  G. Kedziora,  F. J. Keil,  C. Kelley,  Jihan Kim,  
 R. A. King,  R. Z. Khaliullin,  P. P. Korambath,  W. Kurlancheek,  
 A. M. Lee,  M. S. Lee,  S. V. Levchenko,  Ching Yeh Lin,  D. Liotard,  
 R. C. Lochan,  I. Lotan,  P. E. Maslen,  N. Nair,  D. P. O'Neill,  
 D. Neuhauser,  E. Neuscamman,  C. M. Oana,  R. Olson,  B. Peters,  
 R. Peverati,  P. A. Pieniazek,  Y. M. Rhee,  J. Ritchie,  M. A. Rohrdanz,  
 E. Rosta,  N. J. Russ,  H. F. Schaefer III,  N. E. Schultz,  N. Shenvi,  
 A. C. Simmonett,  A. Sodt,  D. Stuck,  K. S. Thanthiriwatte,  V. Vanovschi,  
 Tao Wang,  A. Warshel,  C. F. Williams,  Q. Wu,  X. Xu,  W. Zhang

 Please cite Q-Chem as follows:
 Y. Shao et al., Mol. Phys. 113, 184-215 (2015)
 DOI: 10.1080/00268976.2014.952696

 Q-Chem 5.0.1 for Intel X86 EM64T Linux

 Parts of Q-Chem use Armadillo 5.200.1 (Boston Tea Smuggler).
 http://arma.sourceforge.net/

 Q-Chem begins on Thu Oct 18 11:53:43 2018  

Host: ctcp007
0

     Scratch files written to /scratch/mewes1/137682/qchem113063//
 Parallel job on  1  processors
The previous job contains 0 fragments, simply inherited here
Symmetry turned off for PCM/SM12/SMD calculation

Checking the input file for inconsistencies... 	...done.

--------------------------------------------------------------
User input:
--------------------------------------------------------------

$rem
threads 8
jobtype opt
method PBEh-3c
basis def2-mSVP
scf_guess	read
mem_static      1024
mem_total       8000
sym_ignore      true
unrestricted true
mom_start       1
scf_algorithm	diis
scf_max_cycles	250
solvent_method	pcm
geom_opt_tol_energy 25
geom_opt_tol_gradient 75
$end

$solvent
dielectric      4.33
$end

$pcm
theory iefpcm
$end

$occupied
1 2 3 4 5 6 7 8 9 10 11 12 13 14 15 16 17 18 19 20 21 22 23 24 25 26 27 28 29 30 31 32 33 34 35 36 37 38 39 40 41 42 43 44 45 46 47 48 49 50 51 52 53 54 55 56 57 58 59 60 61 62 63 64 65 66 67 68 69 70 71 72 73 74 75 76 77 78 79 80 81 82 83 84 85 86 87 88 89 90 91 92 93 94 95 96 97 98 99 100 101 102 103 104 105 106 107 108 109 110 111 112 113 114 115 116 117 118 119 120 121 122 123 124 125 126 127 128 129 130 131 132 133 134 135 136 137 138 139 140 141 142 143 144 145 146 147 148 149 150 151 152 153 154 155 156 157 158 159 160 161 162 163 164 165 166 167 168 169 170 171 172 173 174 175 176 177 178 179 180 181 182 183 184 185 186 187 188 189 190 191 192 193 194 195 196 197  199
1 2 3 4 5 6 7 8 9 10 11 12 13 14 15 16 17 18 19 20 21 22 23 24 25 26 27 28 29 30 31 32 33 34 35 36 37 38 39 40 41 42 43 44 45 46 47 48 49 50 51 52 53 54 55 56 57 58 59 60 61 62 63 64 65 66 67 68 69 70 71 72 73 74 75 76 77 78 79 80 81 82 83 84 85 86 87 88 89 90 91 92 93 94 95 96 97 98 99 100 101 102 103 104 105 106 107 108 109 110 111 112 113 114 115 116 117 118 119 120 121 122 123 124 125 126 127 128 129 130 131 132 133 134 135 136 137 138 139 140 141 142 143 144 145 146 147 148 149 150 151 152 153 154 155 156 157 158 159 160 161 162 163 164 165 166 167 168 169 170 171 172 173 174 175 176 177 178 179 180 181 182 183 184 185 186 187 188 189 190 191 192 193 194 195 196 197 198
$end

$molecule
read
$end

--------------------------------------------------------------
 Adding empirical dispersion correction 
 ----------------------------------------------------------------
 Doing -D3(BJ) with
 s6 =   1.00000
 s8 =   0.00000
 a1 =   0.48600
 a2 =   4.50000
 -D3 energy including 3body term =     -0.0962407747 hartrees
 ----------------------------------------------------------------
 Adding gCP correction 
 ----------------------------------------------------------------
 gCP energy =      0.1526568826 hartrees
 ----------------------------------------------------------------
             Standard Nuclear Orientation (Angstroms)
    I     Atom           X                Y                Z
 ----------------------------------------------------------------
    1      C       0.0000000000     0.0000000000     0.0000000000
    2      C       0.0000000000     0.0000000000     1.4054370000
    3      H       0.9488811653     0.0000000000     1.9314905685
    4      C      -1.1781645248    -0.0437869158     2.1119045308
    5      C      -2.4229914788    -0.1025402133     1.4211698630
    6      C      -2.4489229915    -0.0785325334     0.0508204419
    7      H      -3.4059819399    -0.1265078912    -0.4600356862
    8      C      -1.2476330848    -0.0189551233    -0.6912726415
    9      C      -1.4523060283    -0.1326291199     3.5419022201
   10      C      -0.6885922756    -0.1655689889     4.6818127644
   11      H       0.3907477581    -0.0893815197     4.6467367039
   12      C      -2.8500160683    -0.2583281533     3.6710288900
   13      C      -3.5131185107    -0.4332385143     4.8832105769
   14      C      -3.4870798306    -0.2518265628     2.4144093720
   15      C      -4.8476044099    -0.4286054362     2.3728713505
   16      H      -5.3933288576    -0.4500096593     1.4375790734
   17      C      -1.3372881018    -0.3209420174     5.9278611623
   18      H      -0.7315120612    -0.3487551425     6.8246356421
   19      C      -2.7015702209    -0.4528514966     6.0428585547
   20      H      -3.1529451344    -0.5846646865     7.0187256219
   21      C      -5.5474827066    -0.6025914816     3.5885272567
   22      H      -6.6200469209    -0.7459899776     3.5525389255
   23      C      -4.9160012779    -0.6052867554     4.8104431255
   24      H      -5.4920115626    -0.7519523831     5.7161609262
   25      B      -1.2413081097    -0.0297432152    -2.2167453834
   26      C       0.0614623559     0.0291791457    -3.0093596879
   27      C       0.0671018916    -0.0355028507    -4.4200072835
   28      H      -0.8710265696    -0.0715474560    -4.9663354431
   29      C       1.2471113779    -0.0983690306    -5.1150685505
   30      C       2.4909821525    -0.0840347015    -4.4192853409
   31      C       2.5043554005    -0.0367739852    -3.0445584787
   32      H       3.4449863820    -0.0832785004    -2.5057236638
   33      C       1.3065591454     0.0152089637    -2.3086232788
   34      C       1.5220304653    -0.3006309451    -6.5340381509
   35      C       0.7534437424    -0.4836687039    -7.6553416534
   36      H      -0.3283108634    -0.4415062925    -7.6193525129
   37      C       2.9224566455    -0.3903028204    -6.6553036743
   38      C       3.5858477303    -0.6645768759    -7.8475976827
   39      C       3.5560287859    -0.2549701450    -5.4025508813
   40      C       4.9223917637    -0.3697876996    -5.3509827142
   41      H       5.4654075181    -0.2917371667    -4.4175129788
   42      C       1.4008212277    -0.7526491282    -8.8818586115
   43      H       0.7943739286    -0.9021552167    -9.7661923138
   44      C       2.7693208813    -0.8436150975    -8.9897785650
   45      H       3.2209074181    -1.0647894055    -9.9491771278
   46      C       5.6253882516    -0.6197619365    -6.5517536558
   47      H       6.7029453513    -0.7132093258    -6.5069747191
   48      C       4.9954311501    -0.7699583118    -7.7655016152
   49      H       5.5768696737    -0.9812131230    -8.6544983978
   50      B       1.3311403303    -0.0637968829    -0.7704983392
   51      C      -2.6084085611    -0.2546200677    -2.9641834755
   52      C      -3.4866637763     0.8321797848    -3.2803837777
   53      C      -4.6578936439     0.5923656556    -3.9381880672
   54      H      -5.3435833000     1.3946702948    -4.1802744056
   55      C      -5.0076106171    -0.7273667230    -4.3251928048
   56      O      -6.1429662740    -0.8380988453    -4.9707468567
   57      C      -4.1680360563    -1.8117290927    -4.0125676648
   58      H      -4.4312312240    -2.8194747338    -4.3059811382
   59      C      -3.0000628020    -1.5933254849    -3.3275939475
   60      C      -6.6074789325    -2.1031021568    -5.4196464963
   61      H      -7.5486221639    -1.9132142336    -5.9254465273
   62      H      -6.7790428857    -2.7816056153    -4.5830282642
   63      H      -5.9063459649    -2.5553056606    -6.1223677701
   64      C      -3.1080667987     2.2328662551    -2.9039282602
   65      H      -2.5926464583     2.2241465166    -1.9427214636
   66      H      -4.0147183376     2.8270882442    -2.7703177370
   67      C      -2.1469591498    -2.7682135007    -2.9518502067
   68      H      -1.1032957358    -2.4654997582    -2.8808182805
   69      H      -2.2039002981    -3.5186542845    -3.7442350529
   70      C      -2.2170899324     2.8840325893    -3.9604417463
   71      H      -1.2767108255     2.3476153668    -4.0748128454
   72      H      -1.9794749558     3.9068056123    -3.6712670774
   73      H      -2.7128010396     2.9151289036    -4.9313685151
   74      C      -2.5896312084    -3.3940831696    -1.6272429508
   75      H      -2.4991958005    -2.6890256597    -0.8026756815
   76      H      -1.9610283764    -4.2532078210    -1.3970584682
   77      H      -3.6239428555    -3.7374567041    -1.6720268598
   78      C       2.6710601292    -0.3403222973     0.0161224925
   79      C       3.5918758092     0.6711501784     0.2976230134
   80      C       4.7688400178     0.4024317777     0.9976923685
   81      H       5.4523145492     1.2193429083     1.1955908916
   82      C       5.0458818541    -0.8865078834     1.4266104190
   83      O       6.1593012960    -1.2503940300     2.1030539123
   84      C       4.1341204645    -1.9017754757     1.1586505446
   85      H       4.3566496217    -2.9071918640     1.4987693879
   86      C       2.9629250838    -1.6429515813     0.4669851342
   87      C       7.1103404841    -0.2662284398     2.3985828853
   88      H       7.9170782763    -0.7622780788     2.9351437864
   89      H       7.5267727934     0.1957527134     1.4970285578
   90      H       6.7066294309     0.5269869220     3.0370740560
   91      C       3.3045472535     2.0995712373    -0.0852343383
   92      H       2.7354060747     2.1320371756    -1.0170844137
   93      H       4.2431904447     2.6253919761    -0.2811838830
   94      C       2.0470000886    -2.8054340989     0.1686455440
   95      H       1.0020615381    -2.4912123819     0.2162105010
   96      H       2.1673816055    -3.5661857606     0.9445124837
   97      C       2.3231958541    -3.4349256549    -1.1954696605
   98      H       2.1714299213    -2.7168657088    -2.0012761132
   99      H       3.3507605446    -3.7942790426    -1.2615683841
  100      H       1.6602793022    -4.2836201129    -1.3743505825
  101      C       2.5286806606     2.8382132526     1.0037447715
  102      H       1.5529653899     2.3810797825     1.1694939467
  103      H       3.0687307339     2.8201573132     1.9514078219
  104      H       2.3631354865     3.8815439348     0.7311969160
 ----------------------------------------------------------------
 Nuclear Repulsion Energy =  7629.7560375746 hartrees
 There are      198 alpha and      198 beta electrons
 Requested basis set is def2-mSVP
 There are 498 shells and 962 basis functions

 Total QAlloc Memory Limit   8000 MB
 Mega-Array Size      1001 MB
 MEM_STATIC part      1024 MB
 Discretize the solute cavity surface with Lebedev spheres
	Using 302 Lebedev grid points for each H atom
	Using 302 Lebedev grid points for other atoms
	Atomic van der Waals radii will be scaled by 1.20
 Remove points where switching function is < 1.0e-08
 Keep 10954 surface tesserae and discard 20454 interior tesserae
 Molecular Surface Area = 792.958 Angst**2
 A cutoff of  1.0D-11 yielded  45142 shell pairs
 There are    175220 function pairs (    192788 Cartesian)
 
 -------------------------------------------------------
 OpenMP Integral Computing Module                       
 Release: version 1.0, May 2013, Q-Chem Inc. Pittsburgh 
 -------------------------------------------------------
 Integral Job Info:
 Integral job number is                      11
 Integral operator is                         1
 short-range coefficients                     0
 long-range coefficients              100000000
 Omega coefficients                           0
 if combine SR and LR in K                    0
 Integral screening is                        0
 Integral computing path is                   2
 max size of driver memory is            800000
 size of driver memory is                593474
 size of scratch memory is              1809772
 max col of scratch BK array               1296
 max len of scratch array in speh3          155
 max len of scratch index in speh4           18
 max int batch size is                      520
 min int batch size is                       52
 fixed nKL is                                52
 max L of basis functions is                  2
 order of int derivative is                   0
 number of shells is                        498
 number of basis is                        1020
 number of cartesian basis is              1020
 number of contracted shell pairs         45142
 number of primitive shell pairs          93588
 maxK2 (contraction) of shell pair           25
 max number of K2 of shell pair               1
 max number of CS2 of shell pair          11150
 max number of PS2 of shell pair          16500
 mem total for path MDJ                  457384
 -------------------------------------------------------
 Smallest overlap matrix eigenvalue = 1.97E-04

 Scale SEOQF with 1.000000e-02/1.000000e-01/1.000000e-02

 Standard Electronic Orientation quadrupole field applied
 Nucleus-field energy     =     0.0000000006 hartrees
 Guess MOs from SCF MO coefficient file
 Reading MOs from coefficient file
 User-specified occupied guess orbitals will be used
   Alpha:
   1   2   3   4   5   6   7   8   9  10  11  12  13  14  15
  16  17  18  19  20  21  22  23  24  25  26  27  28  29  30
  31  32  33  34  35  36  37  38  39  40  41  42  43  44  45
  46  47  48  49  50  51  52  53  54  55  56  57  58  59  60
  61  62  63  64  65  66  67  68  69  70  71  72  73  74  75
  76  77  78  79  80  81  82  83  84  85  86  87  88  89  90
  91  92  93  94  95  96  97  98  99 100 101 102 103 104 105
 106 107 108 109 110 111 112 113 114 115 116 117 118 119 120
 121 122 123 124 125 126 127 128 129 130 131 132 133 134 135
 136 137 138 139 140 141 142 143 144 145 146 147 148 149 150
 151 152 153 154 155 156 157 158 159 160 161 162 163 164 165
 166 167 168 169 170 171 172 173 174 175 176 177 178 179 180
 181 182 183 184 185 186 187 188 189 190 191 192 193 194 195
 196 197 199
 Reading MOs from coefficient file
   Beta:
   1   2   3   4   5   6   7   8   9  10  11  12  13  14  15
  16  17  18  19  20  21  22  23  24  25  26  27  28  29  30
  31  32  33  34  35  36  37  38  39  40  41  42  43  44  45
  46  47  48  49  50  51  52  53  54  55  56  57  58  59  60
  61  62  63  64  65  66  67  68  69  70  71  72  73  74  75
  76  77  78  79  80  81  82  83  84  85  86  87  88  89  90
  91  92  93  94  95  96  97  98  99 100 101 102 103 104 105
 106 107 108 109 110 111 112 113 114 115 116 117 118 119 120
 121 122 123 124 125 126 127 128 129 130 131 132 133 134 135
 136 137 138 139 140 141 142 143 144 145 146 147 148 149 150
 151 152 153 154 155 156 157 158 159 160 161 162 163 164 165
 166 167 168 169 170 171 172 173 174 175 176 177 178 179 180
 181 182 183 184 185 186 187 188 189 190 191 192 193 194 195
 196 197 198
 An unrestricted hybrid HF-DFT SCF calculation will be
 performed using Pulay DIIS extrapolation
 Polarizable Continuum solvation model will be applied
 Exchange:     0.4200 Hartree-Fock + 0.5800 PBEh-3c
 Correlation:  1.0000 PBEh-3c
 Using SG-1 standard quadrature grid
 Dispersion:   Grimme D3
 SCF converges when DIIS error is below 1.0E-08
 using 8 threads for integral computing
 -------------------------------------------------------
 OpenMP Integral computing Module                
 Release: version 1.0, May 2013, Q-Chem Inc. Pittsburgh 
 -------------------------------------------------------
 MOM overlap:    197.4430143896 / 198
 MOM overlap:    197.9057148111 / 198
 ---------------------------------------
  Cycle       Energy         DIIS Error
 ---------------------------------------
    1   -2280.5518545662      5.39E-04
 Using non-symmetric K matrix
 MOM overlap:    197.6040710617 / 198
 MOM overlap:    197.9654100086 / 198
    2   -2280.4786398815      9.04E-04
 MOM overlap:    197.9950177392 / 198
 MOM overlap:    197.9977790532 / 198
    3   -2280.6349899034      1.71E-04
 MOM overlap:    197.9975402040 / 198
 MOM overlap:    197.9996208434 / 198
    4   -2280.6406662524      5.74E-05
 MOM overlap:    197.9978221201 / 198
 MOM overlap:    197.9994415151 / 198
    5   -2280.6420429219      4.06E-05
 MOM overlap:    197.9994154946 / 198
 MOM overlap:    197.9999133913 / 198
    6   -2280.6428962781      1.98E-05
 MOM overlap:    197.9997337494 / 198
 MOM overlap:    197.9999644102 / 198
    7   -2280.6430952146      8.01E-06
 MOM overlap:    197.9996051030 / 198
 MOM overlap:    197.9999830248 / 198
    8   -2280.6431564575      4.10E-06
 MOM overlap:    197.9995072785 / 198
 MOM overlap:    197.9999895698 / 198
    9   -2280.6431929766      2.88E-06
 MOM overlap:    197.9996802752 / 198
 MOM overlap:    197.9999909964 / 198
   10   -2280.6432079164      2.03E-06
 MOM overlap:    197.9999014054 / 198
 MOM overlap:    197.9999937828 / 198
   11   -2280.6432159713      1.08E-06
 MOM overlap:    197.9999870744 / 198
 MOM overlap:    197.9999941404 / 198
   12   -2280.6432202365      7.23E-07
 MOM overlap:    197.9999884926 / 198
 MOM overlap:    197.9999909796 / 198
   13   -2280.6432253119      4.01E-07
 MOM overlap:    197.9999938078 / 198
 MOM overlap:    197.9999950792 / 198
   14   -2280.6432299432      2.47E-07
 MOM overlap:    197.9999987230 / 198
 MOM overlap:    197.9999988358 / 198
   15   -2280.6432320201      1.03E-07
 MOM overlap:    197.9999993582 / 198
 MOM overlap:    197.9999993947 / 198
   16   -2280.6432326693      5.84E-08
 MOM overlap:    197.9999997266 / 198
 MOM overlap:    197.9999997383 / 198
   17   -2280.6432329821      3.93E-08
 MOM overlap:    197.9999996802 / 198
 MOM overlap:    197.9999996912 / 198
   18   -2280.6432331257      3.22E-08
 MOM overlap:    197.9999999561 / 198
 MOM overlap:    197.9999999561 / 198
   19   -2280.6432332204      2.12E-08
 MOM overlap:    197.9999999757 / 198
 MOM overlap:    197.9999999755 / 198
   20   -2280.6432332463      1.50E-08
 MOM overlap:    197.9999999878 / 198
 MOM overlap:    197.9999999880 / 198
   21   -2280.6432332633      8.76E-09 Convergence criterion met
 ---------------------------------------

************** Final PCM Free Energy Summary **************
 G_electrostatic  =      -0.03697166 hartree =     -23.20006483 kcal/mol
 G_cavitation     =       0.00000000 hartree =       0.00000000 kcal/mol
 G_dispersion     =       0.00000000 hartree =       0.00000000 kcal/mol
 G_repulsion      =       0.00000000 hartree =       0.00000000 kcal/mol
 --------------------------------------------------
 Non-electrostatic Free Energy =       0.00000000 hartree =       0.00000000 kcal/mol
 Total                         =      -0.03697166 hartree =     -23.20006483 kcal/mol
 --------------------------------------------------
 SCF Energy (H0 + V/2)                       =   -2280.64323326 
 Solute Internal Energy (H0)                 =   -2280.60626161 
 Total Free Energy (H0 + V/2 + non-elec)     =   -2280.64323326 hartree
                                             = -1431125.22884475 kcal/mol
***********************************************************

 <S^2> = 1.0494
 SCF time:  CPU 9102.36 s  wall 3382.09 s
 SCF   energy in the final basis set = -2280.64323326
 Total energy in the final basis set = -2280.64323326
 
 --------------------------------------------------------------
 
                    Orbital Energies (a.u.)
 --------------------------------------------------------------
 
 Alpha MOs
 -- Occupied --
-19.601 -19.518 -10.582 -10.519 -10.507 -10.497 -10.492 -10.489
-10.488 -10.487 -10.478 -10.455 -10.455 -10.453 -10.452 -10.452
-10.451 -10.451 -10.450 -10.450 -10.450 -10.450 -10.449 -10.449
-10.449 -10.449 -10.449 -10.448 -10.448 -10.448 -10.447 -10.444
-10.444 -10.442 -10.442 -10.441 -10.440 -10.438 -10.438 -10.438
-10.437 -10.435 -10.434 -10.431 -10.428 -10.424 -10.422 -10.421
-10.420 -10.417 -10.417 -10.412 -10.410 -10.410 -10.409 -10.403
 -6.911  -6.904  -1.252  -1.175  -1.003  -1.003  -1.000  -0.948
 -0.944  -0.943  -0.926  -0.922  -0.922  -0.902  -0.891  -0.884
 -0.877  -0.855  -0.852  -0.842  -0.841  -0.836  -0.836  -0.834
 -0.814  -0.810  -0.804  -0.799  -0.798  -0.791  -0.788  -0.762
 -0.741  -0.728  -0.721  -0.717  -0.715  -0.707  -0.700  -0.693
 -0.692  -0.677  -0.667  -0.666  -0.662  -0.651  -0.641  -0.632
 -0.631  -0.627  -0.620  -0.607  -0.594  -0.582  -0.580  -0.576
 -0.574  -0.574  -0.570  -0.563  -0.562  -0.556  -0.552  -0.533
 -0.530  -0.527  -0.526  -0.524  -0.517  -0.514  -0.514  -0.506
 -0.499  -0.495  -0.494  -0.491  -0.490  -0.489  -0.485  -0.480
 -0.480  -0.477  -0.475  -0.474  -0.474  -0.474  -0.471  -0.468
 -0.466  -0.463  -0.458  -0.453  -0.451  -0.450  -0.445  -0.443
 -0.442  -0.436  -0.430  -0.427  -0.425  -0.423  -0.421  -0.419
 -0.417  -0.413  -0.406  -0.403  -0.402  -0.400  -0.397  -0.391
 -0.391  -0.387  -0.387  -0.386  -0.384  -0.381  -0.380  -0.379
 -0.373  -0.371  -0.361  -0.360  -0.356  -0.350  -0.348  -0.336
 -0.324  -0.324  -0.322  -0.310  -0.304  -0.289  -0.287  -0.274
 -0.266  -0.256  -0.246  -0.243  -0.239  -0.155
 -- Virtual --
 -0.171  -0.057  -0.034  -0.025  -0.004   0.005   0.011   0.014
  0.026   0.036   0.047   0.051   0.076   0.093   0.096   0.099
  0.110   0.122   0.130   0.137   0.151   0.154   0.155   0.157
  0.160   0.164   0.166   0.169   0.171   0.173   0.173   0.175
  0.181   0.183   0.184   0.188   0.191   0.192   0.195   0.199
  0.200   0.201   0.203   0.206   0.207   0.209   0.210   0.212
  0.215   0.216   0.219   0.220   0.221   0.222   0.225   0.229
  0.230   0.231   0.234   0.236   0.236   0.238   0.240   0.242
  0.245   0.247   0.250   0.253   0.255   0.259   0.261   0.261
  0.262   0.266   0.272   0.275   0.277   0.280   0.280   0.285
  0.290   0.291   0.294   0.294   0.298   0.299   0.307   0.309
  0.313   0.314   0.319   0.321   0.322   0.326   0.328   0.334
  0.336   0.342   0.346   0.354   0.359   0.361   0.364   0.369
  0.376   0.382   0.384   0.393   0.397   0.408   0.413   0.418
  0.420   0.425   0.431   0.433   0.435   0.445   0.454   0.458
  0.461   0.463   0.467   0.473   0.474   0.475   0.480   0.488
  0.490   0.493   0.497   0.500   0.503   0.505   0.507   0.509
  0.515   0.517   0.520   0.527   0.530   0.532   0.535   0.536
  0.537   0.538   0.539   0.541   0.545   0.547   0.548   0.550
  0.552   0.554   0.556   0.559   0.560   0.563   0.569   0.570
  0.572   0.574   0.574   0.578   0.583   0.587   0.589   0.592
  0.594   0.597   0.597   0.598   0.599   0.601   0.602   0.605
  0.609   0.611   0.613   0.614   0.617   0.620   0.624   0.626
  0.627   0.627   0.629   0.633   0.635   0.638   0.641   0.642
  0.645   0.646   0.649   0.651   0.659   0.661   0.662   0.664
  0.667   0.668   0.670   0.671   0.674   0.677   0.679   0.682
  0.686   0.688   0.694   0.697   0.702   0.707   0.711   0.713
  0.716   0.720   0.725   0.726   0.729   0.731   0.736   0.737
  0.744   0.746   0.752   0.757   0.759   0.763   0.765   0.767
  0.770   0.776   0.781   0.785   0.788   0.790   0.792   0.795
  0.798   0.799   0.803   0.810   0.814   0.817   0.830   0.832
  0.837   0.843   0.851   0.854   0.855   0.863   0.866   0.870
  0.883   0.889   0.895   0.906   0.911   0.913   0.917   0.920
  0.924   0.926   0.929   0.933   0.940   0.946   0.953   0.958
  0.959   0.961   0.966   0.969   0.971   0.972   0.977   0.979
  0.982   0.986   0.992   0.994   0.995   0.997   0.998   0.999
  1.004   1.006   1.009   1.012   1.012   1.013   1.016   1.023
  1.025   1.026   1.030   1.034   1.036   1.040   1.042   1.043
  1.045   1.047   1.050   1.052   1.053   1.058   1.062   1.064
  1.068   1.071   1.073   1.077   1.079   1.080   1.085   1.091
  1.092   1.096   1.098   1.101   1.104   1.109   1.111   1.116
  1.118   1.130   1.136   1.138   1.139   1.142   1.144   1.155
  1.158   1.163   1.165   1.169   1.175   1.177   1.180   1.182
  1.183   1.193   1.195   1.200   1.207   1.214   1.219   1.224
  1.228   1.235   1.238   1.246   1.254   1.255   1.261   1.264
  1.269   1.274   1.276   1.281   1.286   1.290   1.297   1.301
  1.303   1.307   1.312   1.314   1.321   1.324   1.330   1.334
  1.335   1.339   1.343   1.349   1.352   1.363   1.367   1.370
  1.373   1.380   1.383   1.389   1.391   1.396   1.400   1.404
  1.407   1.412   1.414   1.425   1.430   1.430   1.437   1.441
  1.446   1.447   1.455   1.455   1.457   1.462   1.463   1.467
  1.472   1.486   1.503   1.507   1.520   1.521   1.524   1.525
  1.527   1.528   1.529   1.535   1.538   1.540   1.542   1.542
  1.549   1.551   1.555   1.557   1.565   1.566   1.574   1.579
  1.581   1.585   1.591   1.595   1.597   1.600   1.603   1.608
  1.617   1.627   1.630   1.636   1.645   1.647   1.653   1.665
  1.677   1.678   1.692   1.696   1.707   1.724   1.730   1.749
  1.755   1.757   1.762   1.764   1.769   1.778   1.783   1.788
  1.795   1.802   1.807   1.814   1.819   1.821   1.822   1.823
  1.831   1.831   1.837   1.841   1.842   1.850   1.854   1.864
  1.877   1.899   1.903   1.907   1.916   1.918   1.924   1.930
  1.930   1.937   1.948   1.953   1.958   1.959   1.964   1.970
  1.973   1.984   1.991   1.992   1.994   1.995   2.001   2.008
  2.010   2.014   2.020   2.029   2.033   2.042   2.044   2.045
  2.054   2.059   2.064   2.070   2.074   2.081   2.081   2.083
  2.086   2.092   2.093   2.102   2.110   2.114   2.117   2.122
  2.122   2.127   2.131   2.140   2.143   2.154   2.160   2.165
  2.168   2.170   2.173   2.178   2.182   2.186   2.195   2.205
  2.209   2.214   2.214   2.217   2.220   2.235   2.239   2.242
  2.244   2.252   2.260   2.265   2.270   2.274   2.279   2.280
  2.284   2.285   2.286   2.293   2.297   2.302   2.307   2.317
  2.321   2.322   2.332   2.334   2.334   2.336   2.343   2.347
  2.348   2.352   2.355   2.357   2.360   2.363   2.365   2.370
  2.373   2.378   2.389   2.396   2.399   2.403   2.407   2.412
  2.418   2.421   2.425   2.427   2.431   2.437   2.438   2.442
  2.446   2.452   2.459   2.461   2.475   2.482   2.485   2.489
  2.499   2.501   2.509   2.514   2.517   2.520   2.532   2.535
  2.545   2.554   2.565   2.578   2.586   2.596   2.602   2.622
  2.625   2.637   2.645   2.653   2.654   2.655   2.662   2.667
  2.675   2.685   2.695   2.698   2.702   2.711   2.716   2.722
  2.730   2.738   2.741   2.745   2.749   2.755   2.764   2.771
  2.775   2.789   2.794   2.797   2.798   2.800   2.803   2.804
  2.806   2.819   2.820   2.825   2.828   2.835   2.847   2.858
  2.858   2.872   2.874   2.881   2.887   2.891   2.908   2.914
  2.919   2.934   2.947   2.958   2.968   2.975   2.997   3.015
  3.021   3.025   3.035   3.057   3.069   3.081   3.090   3.091
  3.096   3.117   3.153   3.253   3.269   3.270   3.272   3.328
  3.416   3.450   3.457   3.489   3.503   3.503   3.507   3.564
  3.679   3.690   9.636   9.786  13.155  13.189  13.372  13.458
 13.510  13.522  13.534  13.562  13.636  13.690  13.731  13.736
 13.763  13.775  13.784  13.802  13.811  13.813  13.842  13.874
 13.888  13.891  13.936  13.972  14.016  14.028  14.031  14.046
 14.049  14.052  14.056  14.061  14.160  14.170  14.175  14.176
 14.196  14.212  14.238  14.257  14.292  14.300  14.325  14.329
 14.357  14.362  14.483  14.523  14.527  14.575  14.584  14.592
 14.592  14.593  25.719  25.794
 
 Beta MOs
 -- Occupied --
-19.606 -19.518 -10.585 -10.519 -10.507 -10.496 -10.496 -10.492
-10.490 -10.487 -10.478 -10.455 -10.455 -10.453 -10.452 -10.452
-10.451 -10.451 -10.451 -10.450 -10.450 -10.450 -10.449 -10.449
-10.449 -10.449 -10.449 -10.448 -10.448 -10.447 -10.447 -10.444
-10.443 -10.441 -10.440 -10.440 -10.440 -10.437 -10.437 -10.437
-10.437 -10.435 -10.435 -10.431 -10.428 -10.424 -10.422 -10.421
-10.420 -10.418 -10.418 -10.412 -10.410 -10.409 -10.408 -10.403
 -6.907  -6.901  -1.264  -1.175  -1.009  -1.003  -1.003  -0.947
 -0.943  -0.943  -0.927  -0.922  -0.922  -0.910  -0.891  -0.884
 -0.877  -0.855  -0.854  -0.842  -0.840  -0.838  -0.835  -0.835
 -0.820  -0.810  -0.803  -0.799  -0.798  -0.791  -0.787  -0.762
 -0.745  -0.730  -0.720  -0.715  -0.714  -0.707  -0.700  -0.694
 -0.693  -0.676  -0.666  -0.664  -0.663  -0.650  -0.640  -0.632
 -0.632  -0.630  -0.619  -0.610  -0.596  -0.594  -0.581  -0.580
 -0.575  -0.574  -0.571  -0.563  -0.562  -0.556  -0.551  -0.535
 -0.530  -0.527  -0.526  -0.525  -0.519  -0.514  -0.513  -0.505
 -0.500  -0.499  -0.494  -0.493  -0.490  -0.488  -0.487  -0.481
 -0.479  -0.477  -0.477  -0.473  -0.473  -0.473  -0.471  -0.470
 -0.467  -0.465  -0.459  -0.455  -0.453  -0.450  -0.449  -0.442
 -0.442  -0.440  -0.430  -0.427  -0.425  -0.424  -0.420  -0.416
 -0.416  -0.412  -0.406  -0.404  -0.403  -0.401  -0.400  -0.397
 -0.392  -0.390  -0.386  -0.385  -0.385  -0.384  -0.381  -0.378
 -0.376  -0.370  -0.361  -0.356  -0.356  -0.349  -0.347  -0.335
 -0.330  -0.327  -0.324  -0.305  -0.303  -0.300  -0.285  -0.285
 -0.266  -0.264  -0.249  -0.243  -0.239  -0.237
 -- Virtual --
 -0.069  -0.046  -0.033  -0.020  -0.018  -0.013   0.007   0.016
  0.027   0.036   0.048   0.061   0.085   0.094   0.104   0.107
  0.109   0.123   0.135   0.136   0.138   0.154   0.155   0.157
  0.160   0.161   0.166   0.169   0.171   0.173   0.175   0.177
  0.180   0.183   0.185   0.188   0.191   0.192   0.195   0.199
  0.200   0.201   0.202   0.205   0.206   0.209   0.210   0.212
  0.215   0.217   0.220   0.221   0.221   0.222   0.225   0.229
  0.230   0.231   0.234   0.236   0.237   0.238   0.241   0.241
  0.245   0.247   0.251   0.254   0.255   0.259   0.261   0.262
  0.263   0.266   0.272   0.275   0.278   0.280   0.281   0.286
  0.289   0.291   0.294   0.295   0.298   0.299   0.309   0.309
  0.310   0.314   0.320   0.321   0.323   0.325   0.329   0.335
  0.337   0.343   0.346   0.352   0.359   0.362   0.364   0.369
  0.376   0.381   0.385   0.394   0.398   0.410   0.415   0.418
  0.420   0.425   0.431   0.433   0.435   0.446   0.455   0.457
  0.459   0.463   0.467   0.473   0.474   0.476   0.481   0.488
  0.490   0.493   0.498   0.500   0.504   0.506   0.507   0.509
  0.515   0.516   0.520   0.527   0.530   0.532   0.535   0.537
  0.537   0.539   0.539   0.542   0.544   0.547   0.548   0.552
  0.553   0.556   0.557   0.559   0.561   0.563   0.569   0.570
  0.572   0.574   0.575   0.578   0.583   0.588   0.589   0.592
  0.595   0.597   0.598   0.598   0.599   0.603   0.603   0.605
  0.610   0.612   0.613   0.614   0.616   0.620   0.622   0.626
  0.627   0.628   0.629   0.633   0.635   0.638   0.641   0.642
  0.645   0.646   0.648   0.652   0.658   0.660   0.662   0.665
  0.668   0.669   0.670   0.672   0.674   0.677   0.680   0.683
  0.686   0.688   0.694   0.697   0.699   0.708   0.710   0.713
  0.716   0.721   0.725   0.726   0.730   0.731   0.736   0.738
  0.745   0.747   0.752   0.757   0.759   0.764   0.766   0.767
  0.771   0.776   0.781   0.785   0.787   0.790   0.792   0.794
  0.797   0.800   0.803   0.810   0.813   0.817   0.830   0.830
  0.837   0.843   0.851   0.854   0.855   0.863   0.866   0.870
  0.884   0.890   0.897   0.905   0.912   0.913   0.918   0.920
[...]
  3.102   3.113   3.121   3.237   3.255   3.257   3.314   3.315
  3.404   3.443   3.449   3.490   3.493   3.496   3.545   3.554
  3.667   3.681   9.583   9.736  13.143  13.177  13.403  13.480
 13.496  13.515  13.527  13.549  13.673  13.680  13.727  13.760
 13.768  13.773  13.774  13.795  13.803  13.807  13.861  13.876
 13.884  13.901  13.921  13.988  13.999  14.021  14.035  14.039
 14.041  14.046  14.049  14.051  14.157  14.163  14.163  14.200
 14.221  14.225  14.225  14.277  14.286  14.291  14.309  14.314
 14.346  14.346  14.512  14.517  14.562  14.573  14.577  14.584
 14.584  14.587  25.786  25.787
 
 Beta MOs
 -- Occupied --
-19.526 -19.526 -10.503 -10.503 -10.484 -10.483 -10.465 -10.465
-10.464 -10.464 -10.464 -10.464 -10.463 -10.463 -10.462 -10.462
-10.462 -10.462 -10.460 -10.460 -10.460 -10.460 -10.460 -10.459
-10.457 -10.457 -10.457 -10.457 -10.455 -10.454 -10.452 -10.452
-10.451 -10.451 -10.451 -10.451 -10.447 -10.447 -10.435 -10.435
-10.434 -10.434 -10.434 -10.434 -10.434 -10.433 -10.433 -10.433
-10.431 -10.431 -10.420 -10.420 -10.419 -10.419 -10.418 -10.417
 -6.949  -6.949  -1.182  -1.182  -1.016  -1.016  -0.963  -0.959
 -0.956  -0.955  -0.932  -0.932  -0.909  -0.901  -0.889  -0.888
 -0.866  -0.864  -0.854  -0.854  -0.846  -0.845  -0.824  -0.821
 -0.818  -0.813  -0.812  -0.805  -0.802  -0.801  -0.773  -0.772
 -0.734  -0.728  -0.726  -0.720  -0.712  -0.711  -0.703  -0.702
 -0.688  -0.680  -0.678  -0.665  -0.657  -0.647  -0.646  -0.645
 -0.631  -0.630  -0.593  -0.592  -0.590  -0.586  -0.583  -0.583
 -0.582  -0.574  -0.573  -0.563  -0.563  -0.544  -0.542  -0.536
 -0.532  -0.532  -0.526  -0.522  -0.513  -0.507  -0.503  -0.503
 -0.501  -0.500  -0.499  -0.495  -0.493  -0.489  -0.488  -0.486
 -0.485  -0.484  -0.483  -0.481  -0.480  -0.478  -0.476  -0.465
 -0.462  -0.459  -0.458  -0.456  -0.453  -0.452  -0.442  -0.439
 -0.436  -0.435  -0.433  -0.429  -0.429  -0.427  -0.424  -0.418
 -0.413  -0.412  -0.408  -0.406  -0.400  -0.400  -0.397  -0.395
 -0.395  -0.393  -0.392  -0.391  -0.390  -0.388  -0.383  -0.381
 -0.378  -0.372  -0.363  -0.362  -0.360  -0.357  -0.355  -0.351
 -0.340  -0.339  -0.319  -0.313  -0.295  -0.295  -0.282  -0.277
 -0.276  -0.262  -0.258  -0.255  -0.252  -0.250
 -- Virtual --
 -0.092  -0.059  -0.037  -0.030  -0.005   0.006   0.014   0.022
  0.025   0.036   0.038   0.045   0.069   0.082   0.086   0.092
  0.117   0.124   0.144   0.151   0.152   0.152   0.159   0.161
  0.162   0.163   0.166   0.166   0.169   0.171   0.175   0.178
  0.183   0.187   0.189   0.191   0.194   0.196   0.199   0.201
  0.202   0.203   0.204   0.206   0.207   0.208   0.209   0.212
  0.215   0.217   0.220   0.221   0.222   0.223   0.224   0.225
  0.226   0.227   0.230   0.231   0.233   0.234   0.236   0.238
  0.241   0.244   0.247   0.250   0.253   0.253   0.254   0.257
  0.262   0.265   0.269   0.270   0.271   0.275   0.280   0.286
  0.286   0.287   0.290   0.294   0.295   0.300   0.304   0.311
  0.312   0.312   0.313   0.316   0.322   0.326   0.326   0.330
  0.334   0.336   0.340   0.344   0.351   0.352   0.356   0.365
  0.373   0.381   0.390   0.394   0.400   0.404   0.405   0.414
  0.418   0.421   0.424   0.428   0.439   0.447   0.450   0.451
  0.456   0.460   0.466   0.468   0.471   0.479   0.482   0.489
  0.491   0.495   0.499   0.499   0.502   0.502   0.504   0.512
  0.522   0.523   0.524   0.526   0.527   0.528   0.529   0.531
  0.534   0.535   0.538   0.540   0.542   0.544   0.545   0.550
  0.552   0.554   0.556   0.558   0.559   0.563   0.565   0.566
  0.569   0.571   0.573   0.574   0.582   0.583   0.586   0.587
  0.588   0.588   0.589   0.591   0.594   0.594   0.596   0.598
  0.600   0.601   0.603   0.608   0.615   0.618   0.619   0.619
  0.621   0.623   0.626   0.631   0.632   0.635   0.637   0.640
  0.645   0.649   0.652   0.653   0.656   0.657   0.659   0.659
  0.662   0.664   0.664   0.668   0.672   0.676   0.678   0.680
  0.684   0.685   0.698   0.701   0.704   0.706   0.710   0.713
  0.715   0.718   0.720   0.721   0.728   0.731   0.733   0.735
  0.743   0.744   0.748   0.751   0.754   0.757   0.758   0.768
  0.774   0.775   0.776   0.780   0.786   0.787   0.789   0.791
  0.792   0.795   0.804   0.805   0.817   0.821   0.831   0.833
  0.838   0.841   0.845   0.846   0.851   0.856   0.861   0.865
  0.877   0.882   0.889   0.899   0.901   0.903   0.907   0.909
  0.913   0.919   0.921   0.935   0.942   0.945   0.950   0.952
  0.954   0.961   0.961   0.964   0.965   0.974   0.980   0.985
  0.987   0.988   0.990   0.992   0.992   0.995   0.997   1.002
  1.005   1.005   1.007   1.008   1.010   1.013   1.021   1.026
  1.027   1.031   1.033   1.035   1.037   1.039   1.040   1.043
  1.044   1.050   1.052   1.054   1.056   1.058   1.064   1.066
  1.070   1.071   1.075   1.079   1.080   1.081   1.083   1.086
  1.088   1.092   1.096   1.098   1.100   1.104   1.107   1.123
  1.126   1.127   1.129   1.132   1.142   1.145   1.148   1.150
  1.155   1.158   1.160   1.166   1.168   1.171   1.177   1.181
  1.183   1.184   1.188   1.191   1.206   1.215   1.220   1.223
  1.225   1.242   1.244   1.248   1.259   1.263   1.267   1.268
  1.272   1.273   1.278   1.287   1.289   1.294   1.297   1.299
  1.300   1.300   1.305   1.314   1.317   1.320   1.327   1.330
  1.336   1.338   1.345   1.349   1.355   1.360   1.363   1.366
  1.368   1.373   1.376   1.379   1.383   1.388   1.400   1.407
  1.410   1.412   1.415   1.419   1.425   1.432   1.435   1.438
  1.441   1.441   1.443   1.450   1.453   1.456   1.466   1.477
  1.478   1.493   1.512   1.512   1.513   1.517   1.517   1.519
  1.519   1.524   1.527   1.531   1.532   1.532   1.533   1.541
  1.542   1.548   1.551   1.559   1.564   1.564   1.570   1.570
  1.579   1.586   1.588   1.589   1.591   1.597   1.602   1.614
  1.618   1.621   1.626   1.627   1.637   1.647   1.654   1.656
  1.661   1.670   1.683   1.700   1.708   1.716   1.740   1.748
  1.753   1.754   1.755   1.760   1.772   1.773   1.781   1.784
  1.789   1.793   1.800   1.807   1.808   1.809   1.810   1.812
  1.813   1.817   1.819   1.822   1.838   1.847   1.860   1.865
  1.883   1.893   1.901   1.906   1.907   1.918   1.920   1.927
  1.937   1.938   1.940   1.947   1.951   1.967   1.974   1.976
  1.982   1.983   1.986   1.989   1.992   1.996   1.999   2.000
  2.023   2.024   2.030   2.033   2.034   2.041   2.042   2.047
  2.054   2.055   2.064   2.068   2.073   2.075   2.081   2.082
  2.083   2.087   2.097   2.104   2.109   2.112   2.112   2.117
  2.127   2.130   2.134   2.137   2.153   2.155   2.157   2.159
  2.160   2.162   2.165   2.169   2.169   2.187   2.197   2.200
  2.203   2.204   2.206   2.222   2.232   2.232   2.234   2.251
  2.252   2.258   2.260   2.263   2.264   2.268   2.274   2.276
  2.280   2.287   2.292   2.294   2.307   2.316   2.321   2.322
  2.322   2.323   2.331   2.334   2.334   2.338   2.340   2.343
  2.345   2.350   2.353   2.356   2.359   2.360   2.362   2.366
  2.369   2.374   2.389   2.389   2.392   2.396   2.399   2.410
  2.415   2.417   2.423   2.424   2.428   2.430   2.435   2.438
  2.447   2.451   2.469   2.471   2.474   2.476   2.477   2.486
  2.491   2.491   2.495   2.498   2.517   2.518   2.522   2.526
  2.532   2.550   2.557   2.567   2.572   2.589   2.614   2.627
  2.629   2.633   2.643   2.645   2.646   2.647   2.655   2.667
  2.683   2.686   2.688   2.690   2.711   2.717   2.720   2.727
  2.729   2.734   2.734   2.752   2.759   2.763   2.774   2.775
  2.777   2.784   2.786   2.788   2.791   2.791   2.794   2.798
  2.806   2.809   2.815   2.817   2.822   2.823   2.843   2.852
  2.856   2.861   2.874   2.877   2.897   2.900   2.904   2.906
  2.920   2.929   2.941   2.942   2.957   2.981   2.999   3.008
  3.011   3.029   3.049   3.062   3.079   3.080   3.083   3.084
  3.102   3.113   3.121   3.237   3.255   3.257   3.314   3.315
  3.404   3.443   3.449   3.490   3.493   3.496   3.545   3.554
  3.667   3.681   9.583   9.736  13.143  13.177  13.403  13.480
 13.496  13.515  13.527  13.549  13.673  13.680  13.727  13.760
 13.768  13.773  13.774  13.795  13.803  13.807  13.861  13.876
 13.884  13.901  13.921  13.988  13.999  14.021  14.035  14.039
 14.041  14.046  14.049  14.051  14.157  14.163  14.163  14.200
 14.221  14.225  14.225  14.277  14.286  14.291  14.309  14.314
 14.346  14.346  14.512  14.517  14.562  14.573  14.577  14.584
 14.584  14.587  25.786  25.787
 --------------------------------------------------------------
 
          Ground-State Mulliken Net Atomic Charges

     Atom                 Charge (a.u.)    Spin (a.u.)
  --------------------------------------------------------
      1 C                    -0.153282       0.000000
      2 C                    -0.399425       0.000000
      3 H                     0.247210      -0.000000
      4 C                     0.099440       0.000000
      5 C                     0.072619      -0.000000
      6 C                    -0.390712      -0.000000
      7 H                     0.245353       0.000000
      8 C                    -0.153775      -0.000000
      9 C                     0.183083       0.000000
     10 C                    -0.396182      -0.000000
     11 H                     0.245916      -0.000000
     12 C                    -0.065781      -0.000000
     13 C                     0.229102       0.000000
     14 C                     0.182133      -0.000000
     15 C                    -0.386759       0.000000
     16 H                     0.246039      -0.000000
     17 C                    -0.225862       0.000000
     18 H                     0.250440       0.000000
     19 C                    -0.348526       0.000000
     20 H                     0.246903      -0.000000
     21 C                    -0.228827       0.000000
     22 H                     0.250928       0.000000
     23 C                    -0.344160      -0.000000
     24 H                     0.246487       0.000000
     25 B                     0.658785       0.000000
     26 C                    -0.152129      -0.000000
     27 C                    -0.391012       0.000000
     28 H                     0.247597       0.000000
     29 C                     0.072948       0.000000
     30 C                     0.100783      -0.000000
     31 C                    -0.398813      -0.000000
     32 H                     0.247153      -0.000000
     33 C                    -0.153620       0.000000
     34 C                     0.182359      -0.000000
     35 C                    -0.388529       0.000000
     36 H                     0.245431       0.000000
     37 C                    -0.065853       0.000000
     38 C                     0.228482       0.000000
     39 C                     0.184184       0.000000
     40 C                    -0.397809       0.000000
     41 H                     0.245441      -0.000000
     42 C                    -0.228301      -0.000000
     43 H                     0.250829      -0.000000
     44 C                    -0.343797       0.000000
     45 H                     0.246618       0.000000
     46 C                    -0.225395      -0.000000
     47 H                     0.250245      -0.000000
     48 C                    -0.348502       0.000000
     49 H                     0.247050      -0.000000
     50 B                     0.658037      -0.000000
     51 C                    -0.232133      -0.000000
     52 C                     0.072917      -0.000000
     53 C                    -0.392909       0.000000
     54 H                     0.234092      -0.000000
     55 C                     0.391727      -0.000000
     56 O                    -0.467022       0.000000
     57 C                    -0.440519      -0.000000
     58 H                     0.247118       0.000000
     59 C                     0.069397       0.000000
     60 C                    -0.424304      -0.000000
     61 H                     0.251062       0.000000
     62 H                     0.216818       0.000000
     63 H                     0.216679       0.000000
     64 C                    -0.553216       0.000000
     65 H                     0.253796      -0.000000
     66 H                     0.240208      -0.000000
     67 C                    -0.554644       0.000000
     68 H                     0.257702       0.000000
     69 H                     0.238523       0.000000
     70 C                    -0.653432       0.000000
     71 H                     0.237327       0.000000
     72 H                     0.225572      -0.000000
     73 H                     0.221198      -0.000000
     74 C                    -0.650641      -0.000000
     75 H                     0.237057       0.000000
     76 H                     0.225657       0.000000
     77 H                     0.218586       0.000000
     78 C                    -0.222894      -0.000000
     79 C                     0.076727      -0.000000
     80 C                    -0.445000       0.000000
     81 H                     0.246702      -0.000000
     82 C                     0.391982       0.000000
     83 O                    -0.466530      -0.000000
     84 C                    -0.398925      -0.000000
     85 H                     0.234294       0.000000
     86 C                     0.071081       0.000000
     87 C                    -0.424308       0.000000
     88 H                     0.250966      -0.000000
     89 H                     0.216530       0.000000
     90 H                     0.216619      -0.000000
     91 C                    -0.553526       0.000000
     92 H                     0.254854       0.000000
     93 H                     0.237161       0.000000
     94 C                    -0.555856      -0.000000
     95 H                     0.255937       0.000000
     96 H                     0.240246       0.000000
     97 C                    -0.654979       0.000000
     98 H                     0.240002       0.000000
     99 H                     0.221391      -0.000000
    100 H                     0.224959       0.000000
    101 C                    -0.655238      -0.000000
    102 H                     0.241333      -0.000000
    103 H                     0.219334       0.000000
    104 H                     0.225978       0.000000
  --------------------------------------------------------
  Sum of atomic charges =    -0.000000
  Sum of spin   charges =     0.000000

 -----------------------------------------------------------------
                    Cartesian Multipole Moments
 -----------------------------------------------------------------
    Charge (ESU x 10^10)
                -0.0000
    Dipole Moment (Debye)
         X       0.1125      Y      -0.0806      Z      -0.3667
       Tot       0.3919
    Quadrupole Moments (Debye-Ang)
        XX    -280.6414     XY      20.4228     YY    -334.6967
        XZ      -2.7200     YZ      12.5004     ZZ    -277.6106
    Octopole Moments (Debye-Ang^2)
       XXX       0.8600    XXY     138.2151    XYY     -43.0029
       YYY     434.4966    XXZ     411.6773    XYZ     -38.4771
       YYZ     473.1289    XZZ     -19.3202    YZZ      74.3639
       ZZZ    1205.9436
    Hexadecapole Moments (Debye-Ang^3)
      XXXX  -21944.0283   XXXY     835.2595   XXYY   -4899.6800
      XYYY     -68.0709   YYYY   -4110.4182   XXXZ    1932.3477
      XXYZ     304.4764   XYYZ    1208.8976   YYYZ    -940.3151
      XXZZ   -8196.2997   XYZZ     305.8972   YYZZ   -6958.9855
      XZZZ     978.7981   YZZZ    -427.7298   ZZZZ  -29108.8777
 -----------------------------------------------------------------
Archival summary:
1\1\ctcp007\OPT\ProcedureUnspecified\BasisUnspecified\254246\mewes1\ThuOct1823:54:132018ThuOct1823:54:132018\0\\#,OPT,ProcedureUnspecified,BasisUnspecified,\\0,1\C\C,1,1.39483\H,2,1.08425,1,120.03\C,2,1.37991,1,119.936,3,-179.858,0\C,4,1.41224,2,120.86,1,0.200038,0\C,5,1.38414,4,119.548,2,0.157936,0\H,6,1.08414,5,120.123,4,179.257,0\C,6,1.40139,5,120.137,4,-0.440983,0\C,4,1.45919,2,130.441,1,-179.925,0\C,9,1.37124,4,134.959,2,0.184233,0\H,10,1.08324,9,121.947,4,0.0238961,0\C,9,1.40544,4,106.063,2,-179.838,0\C,12,1.39169,9,123.762,4,179.976,0\C,12,1.40863,9,111.426,4,-0.00899629,0\C,14,1.37039,12,117.979,9,179.958,0\H,15,1.08272,14,121.925,12,-179.958,0\C,13,1.41495,12,115.98,9,-179.971,0\H,17,1.08326,13,120.107,12,179.986,0\C,17,1.37601,13,119.867,12,0.00636981,0\H,19,1.08214,17,118.95,13,179.978,0\C,10,1.41518,9,118.468,4,-180,0\H,21,1.08243,10,118.575,9,-179.988,0\C,21,1.37606,10,122.281,9,0.00537573,0\H,23,1.08328,21,119.87,10,179.995,0\B,1,1.55477,2,119.539,3,-0.0727148,0\C,25,1.55607,1,119.105,2,-179.756,0\C,26,1.3953,25,119.608,1,178.959,0\H,27,1.08458,26,119.928,25,-0.5171,0\C,27,1.3812,26,119.98,25,179.351,0\C,29,1.41286,27,120.83,26,-0.220837,0\C,30,1.38546,29,119.566,27,0.306135,0\H,31,1.08445,30,120.117,29,179.771,0\C,31,1.40139,30,120.141,29,-0.199265,0\C,29,1.45815,27,130.425,26,-179.821,0\C,34,1.37088,29,134.808,27,-0.315557,0\H,35,1.0834,34,121.966,29,-0.138039,0\C,34,1.40624,29,106.02,27,179.588,0\C,37,1.39008,34,123.726,29,-179.855,0\C,37,1.40952,34,111.425,29,0.0540469,0\C,39,1.37,37,118.114,34,-179.927,0\H,40,1.08286,39,121.965,37,179.963,0\C,35,1.41475,34,118.29,29,179.848,0\H,42,1.08238,35,118.59,34,-179.985,0\C,42,1.3765,35,122.285,34,0.00495122,0\H,44,1.08318,42,119.753,35,-179.978,0\C,38,1.41549,37,115.849,34,179.927,0\H,46,1.08308,38,120.106,37,-179.997,0\C,46,1.37622,38,119.958,37,-0.0191665,0\H,48,1.08209,46,118.923,38,-179.967,0\B,8,1.55794,6,120.364,5,178.865,0\C,50,1.5676,8,119.759,6,-1.19654,0\C,51,1.39714,50,121.014,8,81.0563,0\C,52,1.39436,51,120.613,50,179.395,0\H,53,1.08324,52,118.557,51,-179.499,0\C,53,1.38927,52,120.184,51,0.428057,0\O,55,1.3494,53,124.441,52,-179.988,0\C,55,1.39297,53,119.411,52,0.0778317,0\H,57,1.08477,55,119.113,53,179.61,0\C,57,1.38512,55,120.788,53,-0.40585,0\C,56,1.40791,55,118.415,53,0.761015,0\H,60,1.08776,56,106.604,55,179.462,0\H,60,1.09411,56,112.178,55,-61.8047,0\H,60,1.09413,56,112.158,55,60.7247,0\C,52,1.50778,51,120.689,50,2.19549,0\H,64,1.09288,52,109.574,51,-150.486,0\H,64,1.09359,52,110.373,51,-34.42,0\C,59,1.50869,57,118.889,55,177.555,0\H,67,1.09271,59,109.507,57,33.4188,0\H,67,1.09342,59,110.388,57,149.538,0\C,64,1.52771,52,112.555,51,87.7727,0\H,70,1.09025,64,111.36,52,-61.5703,0\H,70,1.09061,64,111.128,52,58.5234,0\H,70,1.09064,64,110.878,52,178.626,0\C,67,1.52811,59,112.592,57,-88.2299,0\H,74,1.09028,67,111.453,59,-61.151,0\H,74,1.09056,67,111.099,59,59.0021,0\H,74,1.0908,67,110.856,59,178.988,0\C,25,1.57451,1,120.069,2,0.936629,0\C,78,1.39762,25,120.376,1,82.8176,0\C,79,1.39414,78,120.92,25,-179.42,0\H,80,1.08356,79,118.481,78,-179.858,0\C,80,1.38798,79,120.264,78,-0.0428593,0\O,82,1.34963,80,124.481,79,-179.879,0\C,82,1.39245,80,119.206,79,0.158211,0\H,84,1.08481,82,119.072,80,179.705,0\C,84,1.38572,82,120.842,80,-0.0325653,0\C,83,1.40868,82,118.482,80,0.0139054,0\H,87,1.08778,83,106.6,82,179.814,0\H,87,1.09408,83,112.182,82,61.0793,0\H,87,1.09412,83,112.203,82,-61.4694,0\C,86,1.50668,84,118.393,82,176.628,0\H,91,1.0929,86,109.591,84,39.0478,0\H,91,1.09356,86,110.559,84,155.402,0\C,79,1.50815,78,121.153,25,3.32926,0\H,94,1.0933,79,109.627,78,-141.711,0\H,94,1.09339,79,110.524,78,-25.5847,0\C,94,1.52707,79,112.15,78,96.66,0\H,97,1.09043,94,111.088,79,-59.8444,0\H,97,1.09051,94,111.004,79,-179.849,0\H,97,1.09073,94,111.121,79,60.0476,0\C,91,1.5275,86,111.901,84,-82.3225,0\H,101,1.09032,91,111.198,86,-60.9704,0\H,101,1.09049,91,111.06,86,178.987,0\H,101,1.09065,91,110.964,86,58.8624,0\\\@

 Total job time:  43229.27s(wall), 119309.65s(cpu) 
 Thu Oct 18 23:54:13 2018

        *************************************************************
        *                                                           *
        *  Thank you very much for using Q-Chem.  Have a nice day.  *
        *                                                           *
        *************************************************************


0 sent ACK to 0 
now end server 0 ... 
