104
 Final energy is   -2280.65533667099     
C         0.0307437616   -0.4003927367    0.0818629133
C         0.0262672843   -0.3863387143    1.4945053147
H         0.9726908289   -0.3965684693    2.0255749116
C        -1.1554571063   -0.3565286552    2.2001473986
C        -2.3949026086   -0.3368421257    1.4924560630
C        -2.4187482393   -0.3493463322    0.1226634399
H        -3.3751336540   -0.3329697599   -0.3928226502
C        -1.2173590733   -0.3807016851   -0.6174505462
C        -1.4643089418   -0.3359314727    3.6311748470
C        -0.7349896994   -0.3399031695    4.7942444357
H         0.3477274211   -0.3623289256    4.7901703108
C        -2.8728105458   -0.3056059219    3.7333653992
C        -3.5825959501   -0.2794394682    4.9307968340
C        -3.4820313392   -0.3043806928    2.4630960924
C        -4.8526341191   -0.2755656636    2.3823913410
H        -5.3703384055   -0.2725481845    1.4304766513
C        -1.4291294160   -0.3136460327    6.0282368478
H        -0.8494061018   -0.3169216910    6.9424513162
C        -2.8031656487   -0.2843023875    6.1133194204
H        -3.2861943266   -0.2647963745    7.0826179428
C        -5.5965494921   -0.2491083129    3.5843996231
H        -6.6774661121   -0.2265765864    3.5242156558
C        -4.9958910109   -0.2507085142    4.8238801921
H        -5.6063121113   -0.2296175682    5.7185737476
B        -1.2364582604   -0.3876267437   -2.1448008112
C         0.0709457531   -0.3943683202   -2.9335838712
C         0.0655399547   -0.4023977938   -4.3443473284
H        -0.8746943205   -0.3877300137   -4.8884512482
C         1.2407549172   -0.4307546023   -5.0458308493
C         2.4950535258   -0.4550378431   -4.3666543926
C         2.5186473365   -0.4485918904   -2.9913192939
H         3.4678418995   -0.4751433569   -2.4665832598
C         1.3210395541   -0.4158341049   -2.2426706631
C         1.4920847042   -0.4504375682   -6.4826207207
C         0.7033768802   -0.4432171161   -7.6071978355
H        -0.3780230393   -0.4139626753   -7.5476438907
C         2.8912008203   -0.4888659461   -6.6353982216
C         3.5343117319   -0.5221506784   -7.8715167651
C         3.5475698270   -0.4936027016   -5.3856702248
C         4.9201210710   -0.5337574846   -5.3832603172
H         5.4896464022   -0.5414140117   -4.4623549383
C         1.3314258409   -0.4754021520   -8.8739693437
H         0.7096643087   -0.4696274987   -9.7605339690
C         2.7002768516   -0.5140549916   -9.0174235312
H         3.1398527591   -0.5385160020  -10.0073371957
C         5.6021434669   -0.5673429264   -6.6240221275
H         6.6842109269   -0.5989742082   -6.6136459830
C         4.9490740386   -0.5623147153   -7.8359746521
H         5.5154469535   -0.5899954046   -8.7590527189
B         1.3573332854   -0.4292846715   -0.7026137655
C        -2.6096652896   -0.4163125163   -2.9292244323
C        -3.3409710947    0.7893911356   -3.1889745950
C        -4.5049534209    0.7396161303   -3.8974683465
H        -5.0770862183    1.6369796193   -4.1023556566
C        -4.9959791105   -0.4986954624   -4.3962213527
O        -6.1090012886   -0.4254151339   -5.0646821804
C        -4.2911409172   -1.6974098273   -4.1551111967
H        -4.6595511495   -2.6418315404   -4.5344770399
C        -3.1340423272   -1.6647615440   -3.4276180751
C        -6.7192720726   -1.5924382828   -5.6277433124
H        -7.6220503862   -1.2442015785   -6.1179874990
H        -6.9771553800   -2.3074115907   -4.8471445578
H        -6.0595551027   -2.0571315238   -6.3598507806
C        -2.8119555858    2.1183308081   -2.7365820427
H        -2.2363175386    1.9989531497   -1.8178978910
H        -3.6506443054    2.7766242747   -2.5011245415
C        -2.4379693178   -2.9560460287   -3.1186642050
H        -1.3646879568   -2.7902125740   -3.0223173750
H        -2.5817819302   -3.6509743203   -3.9482737743
C        -1.9402547876    2.7677848235   -3.8110490774
H        -1.0750354510    2.1494335609   -4.0492487513
H        -1.5735319955    3.7344950208   -3.4671521943
H        -2.5046770736    2.9278145718   -4.7304204527
C        -2.9777457723   -3.5826482085   -1.8313732817
H        -2.8375876205   -2.9200233391   -0.9779972661
H        -2.4526516868   -4.5136169552   -1.6204287597
H        -4.0415937804   -3.8056864150   -1.9180504523
C         2.7422362895   -0.4881942047    0.0555948827
C         3.5196418237    0.6609545196    0.2357963782
C         4.7391437705    0.6073268230    0.9133140028
H         5.3058301680    1.5227554302    1.0345560268
C         5.2048521869   -0.5996828202    1.4173172973
O         6.3700908243   -0.7518087051    2.0866033989
C         4.4433665278   -1.7514080450    1.2374224510
H         4.8113575333   -2.6940679152    1.6291443872
C         3.2290064036   -1.7036175210    0.5691512109
C         7.1640126993    0.3892235960    2.3121092871
H         8.0368477658    0.0565656429    2.8698883356
H         7.5015829499    0.8493069226    1.3785425989
H         6.6401718101    1.1466842140    2.9028792536
C         3.0339239230    2.0037141641   -0.2492651526
H         2.4770483427    1.8883156646   -1.1819940422
H         3.8906815462    2.6413961803   -0.4828995662
C         2.4702978119   -2.9917805826    0.3655056216
H         1.3947517332   -2.8066207083    0.4120983819
H         2.6970529957   -3.6810929549    1.1830166863
C         2.8045913778   -3.6664330694   -0.9639722354
H         2.5420897725   -3.0278499028   -1.8076656680
H         3.8699553719   -3.8904684886   -1.0346408059
H         2.2573412540   -4.6040345273   -1.0741315959
C         2.1481339014    2.7085501936    0.7762620136
H         1.2533603981    2.1233136429    0.9901053349
H         2.6793153682    2.8614355640    1.7168723293
H         1.8266771256    3.6846526923    0.4097599502
