104
 Final energy is   -2280.63531925949     
C         0.0224983788   -0.3983320398    0.0775064817
C         0.0185643081   -0.3836891560    1.4889642919
H         0.9663729911   -0.3971425366    2.0172375885
C        -1.1628359783   -0.3498223476    2.1949678525
C        -2.4011336795   -0.3245633293    1.4876635719
C        -2.4250839041   -0.3358343888    0.1189158080
H        -3.3820940734   -0.3151595977   -0.3959748848
C        -1.2236829271   -0.3708627898   -0.6218114363
C        -1.4718886406   -0.3302093744    3.6252495976
C        -0.7432308994   -0.3397327049    4.7877840588
H         0.3392203509   -0.3667649946    4.7828464231
C        -2.8798786491   -0.2945500309    3.7281217351
C        -3.5893450530   -0.2682353067    4.9249849175
C        -3.4884837314   -0.2887010539    2.4582801362
C        -4.8581498063   -0.2540798157    2.3780341505
H        -5.3756874693   -0.2468656623    1.4260411106
C        -1.4368282102   -0.3135398589    6.0214552830
H        -0.8570862797   -0.3213725113    6.9355857387
C        -2.8099151966   -0.2788458519    6.1068781186
H        -3.2922908327   -0.2595622187    7.0764634075
C        -5.6023840467   -0.2269334393    3.5790550334
H        -6.6832368308   -0.1996536304    3.5193068753
C        -5.0017735953   -0.2336668378    4.8177019584
H        -5.6124755924   -0.2119490337    5.7121673089
B        -1.2368892508   -0.3812113278   -2.1484294518
C         0.0681776463   -0.3926584035   -2.9389548271
C         0.0665842691   -0.3899905933   -4.3500912385
H        -0.8721327513   -0.3610377837   -4.8971767080
C         1.2424549589   -0.4249226299   -5.0484073673
C         2.4936981739   -0.4686663656   -4.3668577860
C         2.5137804102   -0.4673071936   -2.9915727794
H         3.4597333566   -0.5064167585   -2.4620227032
C         1.3154950273   -0.4241116443   -2.2467097127
C         1.4972989236   -0.4392285339   -6.4849089604
C         0.7127619270   -0.4147272884   -7.6111803702
H        -0.3682292579   -0.3689412996   -7.5542418841
C         2.8955345538   -0.4968993742   -6.6344871394
C         3.5410476161   -0.5347243700   -7.8684874154
C         3.5475633807   -0.5174060070   -5.3830979809
C         4.9184680313   -0.5798999084   -5.3774414275
H         5.4843449583   -0.6019551714   -4.4547004581
C         1.3426531633   -0.4501950890   -8.8762182006
H         0.7238692209   -0.4304757709   -9.7646928145
C         2.7104312348   -0.5090982068   -9.0157346755
H         3.1518892902   -0.5358317043  -10.0047396204
C         5.6032399744   -0.6187853342   -6.6159182936
H         6.6845746420   -0.6683367664   -6.6026409894
C         4.9544032427   -0.5975982883   -7.8290119776
H         5.5233075106   -0.6304498603   -8.7503063226
B         1.3495855047   -0.4347182701   -0.7063100721
C        -2.6081125891   -0.4150845674   -2.9300499292
C        -3.3647471943    0.7842541692   -3.1586962822
C        -4.5340524183    0.7287688003   -3.8579107575
H        -5.1229386093    1.6202152314   -4.0394284526
C        -5.0088434038   -0.5047369130   -4.3780435482
O        -6.1341172256   -0.4351584890   -5.0358790674
C        -4.2822383995   -1.6942756100   -4.1727468090
H        -4.6376996790   -2.6362430003   -4.5697850371
C        -3.1162103240   -1.6613657120   -3.4571587520
C        -6.7254837764   -1.5992122823   -5.6131382371
H        -7.6386248428   -1.2609036970   -6.0918471652
H        -6.9682749131   -2.3351451266   -4.8463308105
H        -6.0666313335   -2.0424870234   -6.3600995578
C        -2.8498544381    2.1094289418   -2.6831977667
H        -2.2911959046    1.9820425390   -1.7553742954
H        -3.6946381410    2.7640008885   -2.4581930755
C        -2.3907875696   -2.9444034304   -3.1924248238
H        -1.3145056625   -2.7706704454   -3.1874143660
H        -2.5980847479   -3.6492206390   -4.0004637882
C        -1.9565126572    2.7683123984   -3.7346338897
H        -1.0823344643    2.1562771093   -3.9544802062
H        -1.6013941459    3.7336048676   -3.3756023029
H        -2.4992781607    2.9331548768   -4.6663166825
C        -2.8163400348   -3.5594235041   -1.8569787155
H        -2.5903659847   -2.8953299101   -1.0241397116
H        -2.2808317763   -4.4932799380   -1.6903027010
H        -3.8853475864   -3.7747740291   -1.8430361935
C         2.7323909620   -0.4926444804    0.0523302080
C         3.5109544689    0.6562773888    0.2231103393
C         4.7295143256    0.6044938851    0.9012317779
H         5.2976285237    1.5198642716    1.0155915888
C         5.1921276611   -0.5991546775    1.4143121441
O         6.3573645056   -0.7492356582    2.0850778211
C         4.4286611145   -1.7500981399    1.2437792694
H         4.7963628056   -2.6890148618    1.6437313271
C         3.2150614710   -1.7050436991    0.5758759224
C         7.1506655976    0.3890315256    2.3023336990
H         8.0230030979    0.0594259814    2.8631891151
H         7.4911032173    0.8432867130    1.3662223933
H         6.6289904358    1.1528956769    2.8878799558
C         3.0265284956    1.9956293764   -0.2723502848
H         2.4753948297    1.8751443710   -1.2078221658
H         3.8843879650    2.6320314203   -0.5064002744
C         2.4508749056   -2.9914479882    0.3831715325
H         1.3762770582   -2.8037762768    0.4414798371
H         2.6839191094   -3.6781233058    1.2012634129
C         2.7696944756   -3.6711396291   -0.9474223656
H         2.4933480955   -3.0388927674   -1.7912095357
H         3.8348793739   -3.8906470233   -1.0316017768
H         2.2248489752   -4.6116466667   -1.0452427444
C         2.1349476302    2.7056549274    0.7444822205
H         1.2368082310    2.1241946797    0.9532016186
H         2.6588679056    2.8587401257    1.6890562031
H         1.8189200533    3.6817789733    0.3731189913
