mFile = /cm/shared/apps/q-chem/intel/QCHEM_5.1.0_Trunk/bin/mpi/machines
Process 0 of 1 is on ctcp027 - thread support 0
initial socket setup ...start
initial socket setup ...done 
now start server 0 ... 
Q-Chem Developer Version!
                  Welcome to Q-Chem
     A Quantum Leap Into The Future Of Chemistry


 Q-Chem 5.1, Q-Chem, Inc., Pleasanton, CA (2018)

 Yihan Shao,  Zhengting Gan,  E. Epifanovsky,  A. T. B. Gilbert,  M. Wormit,  
 J. Kussmann,  A. W. Lange,  A. Behn,  Jia Deng,  Xintian Feng,  D. Ghosh,  
 M. Goldey,  P. R. Horn,  L. D. Jacobson,  I. Kaliman,  T. Kus,  A. Landau,  
 Jie Liu,  E. I. Proynov,  R. M. Richard,  R. P. Steele,  E. J. Sundstrom,  
 H. L. Woodcock III,  P. M. Zimmerman,  D. Zuev,  B. Albrecht,  E. Alguire,  
 S. A. Baeppler,  D. Barton,  Z. Benda,  Y. A. Bernard,  E. J. Berquist,  
 K. B. Bravaya,  H. Burton,  D. Casanova,  Chun-Min Chang,  Yunqing Chen,  
 A. Chien,  K. D. Closser,  M. P. Coons,  S. Coriani,  S. Dasgupta,  
 A. L. Dempwolff,  M. Diedenhofen,  Hainam Do,  R. G. Edgar,  Po-Tung Fang,  
 S. Faraji,  S. Fatehi,  Qingguo Feng,  K. D. Fenk,  J. Fosso-Tande,  
 Qinghui Ge,  A. Ghysels,  G. Gidofalvi,  J. Gomes,  J. Gonthier,  A. Gunina,  
 D. Hait,  M. W. D. Hanson-Heine,  P. H. P. Harbach,  A. W. Hauser,  
 J. E. Herr,  E. G. Hohenstein,  Z. C. Holden,  Kerwin Hui,  B. C. Huynh,  
 T.-C. Jagau,  Hyunjun Ji,  B. Kaduk,  K. Khistyaev,  Jaehoon Kim,  
 P. Klunzinger,  K. Koh,  D. Kosenkov,  L. Koulias,  T. Kowalczyk,  
 C. M. Krauter,  A. Kunitsa,  Ka Un Lao,  A. Laurent,  K. V. Lawler,  
 Joonho Lee,  D. Lefrancois,  S. Lehtola,  D. S. Levine,  Yi-Pei Li,  
 You-Sheng Lin,  Fenglai Liu,  E. Livshits,  A. Luenser,  P. Manohar,  
 E. Mansoor,  S. F. Manzer,  Shan-Ping Mao,  Yuezhi Mao,  N. Mardirossian,  
 A. V. Marenich,  T. Markovich,  L. A. Martinez-Martinez,  S. A. Maurer,  
 N. J. Mayhall,  S. C. McKenzie,  J.-M. Mewes,  A. F. Morrison,  
 J. W. Mullinax,  K. Nanda,  T. S. Nguyen-Beck,  R. Olivares-Amaya,  
 J. A. Parkhill,  T. M. Perrine,  F. Plasser,  P. Pokhilko,  S. Prager,  
 A. Prociuk,  E. Ramos,  D. R. Rehn,  F. Rob,  M. Schneider,  N. Sergueev,  
 S. M. Sharada,  S. Sharma,  D. W. Small,  T. Stauch,  T. Stein,  
 Yu-Chuan Su,  A. J. W. Thom,  A. Tkatchenko,  T. Tsuchimochi,  N. M. Tubman,  
 L. Vogt,  M. L. Vidal,  O. Vydrov,  M. A. Watson,  J. Wenzel,  
 M. de Wergifosse,  T. A. Wesolowski,  A. White,  J. Witte,  A. Yamada,  
 Jun Yang,  K. Yao,  S. Yeganeh,  S. R. Yost,  Zhi-Qiang You,  A. Zech,  
 Igor Ying Zhang,  Xing Zhang,  Yan Zhao,  Ying Zhu,  B. R. Brooks,  
 G. K. L. Chan,  C. J. Cramer,  M. S. Gordon,  W. J. Hehre,  A. Klamt,  
 M. W. Schmidt,  C. D. Sherrill,  D. G. Truhlar,  A. Aspuru-Guzik,  R. Baer,  
 A. T. Bell,  N. A. Besley,  Jeng-Da Chai,  A. E. DePrince, III,  
 R. A. DiStasio Jr.,  A. Dreuw,  B. D. Dunietz,  T. R. Furlani,  
 Chao-Ping Hsu,  Yousung Jung,  Jing Kong,  D. S. Lambrecht,  WanZhen Liang,  
 C. Ochsenfeld,  V. A. Rassolov,  L. V. Slipchenko,  J. E. Subotnik,  
 T. Van Voorhis,  J. M. Herbert,  A. I. Krylov,  P. M. W. Gill,  M. Head-Gordon

 Contributors to earlier versions of Q-Chem not listed above: 
 R. D. Adamson,  B. Austin,  J. Baker,  G. J. O. Beran,  K. Brandhorst,  
 S. T. Brown,  E. F. C. Byrd,  A. K. Chakraborty,  C.-L. Cheng,  
 Siu Hung Chien,  D. M. Chipman,  D. L. Crittenden,  H. Dachsel,  
 R. J. Doerksen,  A. D. Dutoi,  L. Fusti-Molnar,  W. A. Goddard III,  
 A. Golubeva-Zadorozhnaya,  S. R. Gwaltney,  G. Hawkins,  A. Heyden,  
 S. Hirata,  G. Kedziora,  F. J. Keil,  C. Kelley,  Jihan Kim,  R. A. King,  
 R. Z. Khaliullin,  P. P. Korambath,  W. Kurlancheek,  A. M. Lee,  M. S. Lee,  
 S. V. Levchenko,  Ching Yeh Lin,  D. Liotard,  R. C. Lochan,  I. Lotan,  
 P. E. Maslen,  N. Nair,  D. P. O'Neill,  D. Neuhauser,  E. Neuscamman,  
 C. M. Oana,  R. Olson,  B. Peters,  R. Peverati,  P. A. Pieniazek,  
 Y. M. Rhee,  J. Ritchie,  M. A. Rohrdanz,  E. Rosta,  N. J. Russ,  
 H. F. Schaefer III,  N. E. Schultz,  N. Shenvi,  A. C. Simmonett,  A. Sodt,  
 D. Stuck,  K. S. Thanthiriwatte,  V. Vanovschi,  Tao Wang,  A. Warshel,  
 C. F. Williams,  Q. Wu,  X. Xu,  W. Zhang

 Please cite Q-Chem as follows:
 Y. Shao et al., Mol. Phys. 113, 184-215 (2015)
 DOI: 10.1080/00268976.2014.952696

 Q-Chem 5.1.1 for Intel X86 EM64T Linux

 Parts of Q-Chem use Armadillo 8.300.2 (Tropical Shenanigans).
 http://arma.sourceforge.net/

 Q-Chem begins on Wed Jan  9 16:46:13 2019  

Host: ctcp027
0

     Scratch files written to /scratch/mewes/143091/qchem67901//
 Parallel job on  1  processors
The previous job contains 0 fragments, simply inherited here
Symmetry turned off for PCM/SM12/SMD calculation
Input Ideriv = 2
Curr. Ideriv = -1
Max.  Ideriv = 2
Input Ideriv = 2
Curr. Ideriv = 2
Max.  Ideriv = 2

Checking the input file for inconsistencies... 	...done.

--------------------------------------------------------------
User input:
--------------------------------------------------------------
$rem
threads 4
jobtype	opt
method PBEh-3c
basis def2-mSVP
mem_static	1024
mem_total	4000
sym_ignore	true
scf_convergence	9
solvent_method	pcm
$end

$molecule
read gsopt.mol
$end

$solvent
dielectric	1.0001 
$end

$pcm
theory iefpcm
$end
--------------------------------------------------------------
 Adding empirical dispersion correction 
 ----------------------------------------------------------------
 Doing -D3(BJ) with
 s6 =   1.00000
 s8 =   0.00000
 a1 =   0.48600
 a2 =   4.50000
 -D3 energy including 3body term =     -0.0786552828 hartrees
 ----------------------------------------------------------------
 Adding gCP correction 
 ----------------------------------------------------------------
 gCP energy =      0.1093255614 hartrees
 ----------------------------------------------------------------
             Standard Nuclear Orientation (Angstroms)
    I     Atom           X                Y                Z
 ----------------------------------------------------------------
    1      N       0.0000000000     0.0000000000     0.0000000000
    2      C       0.0000000000     0.0000000000     1.3987400000
    3      C       1.1965187758     0.0000000000     2.1158663280
    4      H       2.1447256668     0.0159939793     1.5969066484
    5      C       1.1797699299    -0.0317638982     3.4993753925
    6      H       2.1170114849    -0.0298116997     4.0405498766
    7      C      -0.0238880100    -0.0824659340     4.1814292457
    8      H      -0.0444887481    -0.1179779676     5.2623528717
    9      C      -1.2101758365    -0.0755640183     3.4631605041
   10      H      -2.1442591535    -0.1015581168     4.0071981312
   11      C      -1.2256576421    -0.0150174757     2.0762487998
   12      C      -1.0874629560    -0.5543591787    -0.6860745327
   13      C      -0.9701702773    -1.0287213740    -1.9947945624
   14      H      -0.0452334874    -0.9362160659    -2.5452313272
   15      C      -2.0418993834    -1.6430292865    -2.6187768970
   16      H      -1.9168350098    -2.0098839579    -3.6293661042
   17      C      -3.2449212070    -1.7970094617    -1.9535282311
   18      H      -4.0812722903    -2.2945086857    -2.4262100689
   19      C      -3.3754826575    -1.2757758837    -0.6755016107
   20      H      -4.3325911399    -1.3649981791    -0.1806186535
   21      C      -2.3277565921    -0.6260284741    -0.0359314900
   22      C       1.2338840923     0.1498656504    -0.6827675588
   23      C       1.7271595688     1.4096097646    -0.9675666231
   24      H       1.1880835477     2.2922463255    -0.6490947421
   25      C       2.9236254329     1.5116681011    -1.6541832511
   26      H       3.3376133327     2.4933564856    -1.8496988286
   27      C       1.9302373209    -0.9706037063    -1.1024846419
   28      H       1.5079256363    -1.9374592262    -0.8640182633
   29      C       3.6068464674     0.3936228725    -2.1250334212
   30      C       3.0852596322    -0.8801578853    -1.8747312530
   31      C       4.9226743967     0.6022178490    -2.8100981640
   32      H       5.1962415080     1.6550179898    -2.7317411810
   33      H       4.8660199942     0.3879171428    -3.8816587003
   34      C      -2.5002190478     0.1339924579     1.2647185396
   35      C      -3.7364027767    -0.3158934810     2.0383626485
   36      H      -3.8659443393     0.2729428018     2.9457494014
   37      H      -4.6406604136    -0.1600204780     1.4508163372
   38      H      -3.6856616880    -1.3692929832     2.3166950848
   39      C       6.0138047537    -0.2563953613    -2.1720928385
   40      H       6.9828889799     0.2291931348    -2.2921865515
   41      H       5.8408115191    -0.3276098610    -1.0948596394
   42      C       6.0855464784    -1.6183039947    -2.7937779782
   43      C       7.3427742376    -2.0602856070    -3.2105358198
   44      H       8.2066807881    -1.4377701961    -3.0173726089
   45      C       7.5210453088    -3.2587516357    -3.8741472029
   46      C       4.9659696352    -2.4173865771    -3.0359126132
   47      C       5.1529603019    -3.6169064696    -3.7284367486
   48      H       4.3035364493    -4.2502173019    -3.9466038382
   49      C       6.3964296558    -4.0458500318    -4.1489559327
   50      C       8.8246547924    -3.6658245784    -4.2813900012
   51      N       9.8822281993    -3.9843270210    -4.6054862998
   52      C       6.5144933114    -5.2815967833    -4.8511363555
   53      N       6.5965044702    -6.2804398608    -5.4171012973
   54      C       3.5198410789    -2.1733779644    -2.5832846702
   55      C       3.1075917818    -3.3998258975    -1.7759944253
   56      C       3.6524196936    -3.8578096873    -0.5938043888
   57      H       4.4751687800    -3.3364564563    -0.1201963826
   58      C       3.1201785136    -5.0040990262    -0.0163022786
   59      H       3.5318825336    -5.3774283704     0.9118834521
   60      C       2.0625182072    -5.6766499637    -0.6195848499
   61      H       1.6611541931    -6.5671880581    -0.1542784180
   62      C       1.5203447222    -5.2198763480    -1.8114510880
   63      H       0.6994623156    -5.7490262556    -2.2790854766
   64      C       2.0529268935    -4.0760039134    -2.3866289392
   65      C       1.7092694651    -3.3826154432    -3.6208338245
   66      C       0.7399988913    -3.6614220472    -4.5735225437
   67      H       0.0745022698    -4.5076480841    -4.4577075580
   68      C       0.6406997996    -2.8361720419    -5.6839360450
   69      H      -0.1062893441    -3.0398243774    -6.4399948088
   70      C       1.4961608172    -1.7500406243    -5.8366332679
   71      H       1.4067810437    -1.1172572198    -6.7096152481
   72      C       2.4652681173    -1.4703302629    -4.8803637964
   73      H       3.1216352532    -0.6193993955    -5.0089350864
   74      C       2.5669422883    -2.2930074687    -3.7753472949
   75      C      -2.6770983062     1.6243636825     0.9055982142
   76      H      -1.8274717672     2.0085402324     0.3412620834
   77      H      -2.7818020948     2.2268383396     1.8097741232
   78      H      -3.5717415699     1.7610207287     0.2949016960
 ----------------------------------------------------------------
 Nuclear Repulsion Energy =  5576.0297615742 hartrees
 There are      158 alpha and      158 beta electrons
 Requested basis set is def2-mSVP
 There are 391 shells and 767 basis functions

 Total QAlloc Memory Limit   4000 MB
 Mega-Array Size      1001 MB
 MEM_STATIC part      1024 MB
 Discretize the solute cavity surface with Lebedev spheres
	Using 302 Lebedev grid points for each H atom
	Using 302 Lebedev grid points for other atoms
	Atomic van der Waals radii will be scaled by 1.20
 Remove points where switching function is < 1.0e-08
 Keep 8066 surface tesserae and discard 15490 interior tesserae
 Molecular Surface Area = 614.947 Angst**2
 A cutoff of  1.0D-12 yielded  37921 shell pairs
 There are    152391 function pairs (    168404 Cartesian)
 
 -------------------------------------------------------
 OpenMP Integral Computing Module                       
 Release: version 1.0, May 2013, Q-Chem Inc. Pittsburgh 
 -------------------------------------------------------
 Integral Job Info:
 Integral job number is                      11
 Integral operator is                         1
 short-range coefficients                     0
 long-range coefficients              100000000
 Omega coefficients                           0
 if combine SR and LR in K                    0
 Integral screening is                        0
 Integral computing path is                   2
 max size of driver memory is            800000
 size of driver memory is                593474
 size of scratch memory is              1809772
 max col of scratch BK array               1296
 max len of scratch array in speh3          155
 max len of scratch index in speh4           18
 max int batch size is                      520
 min int batch size is                       52
 fixed nKL is                                52
 max L of basis functions is                  2
 order of int derivative is                   0
 number of shells is                        391
 number of basis is                         814
 number of cartesian basis is               814
 number of contracted shell pairs         37921
 number of primitive shell pairs          79842
 maxK2 (contraction) of shell pair           25
 max number of K2 of shell pair               1
 max number of CS2 of shell pair           8901
 max number of PS2 of shell pair          14470
 mem total for path MDJ                  919484
 -------------------------------------------------------
 Smallest overlap matrix eigenvalue = 2.56E-04

 Scale SEOQF with 1.000000e-02/1.000000e-02/1.000000e-02

 Standard Electronic Orientation quadrupole field applied
 Nucleus-field energy     =     0.0000000034 hartrees
 Guess from superposition of atomic densities
 Warning:  Energy on first SCF cycle will be non-variational
 SAD guess density has 316.000000 electrons

 -----------------------------------------------------------------------
  General SCF calculation program by
  Eric Jon Sundstrom, Paul Horn, Yuezhi Mao, Dmitri Zuev, Alec White,
  David Stuck, Shaama M.S., Shane Yost, Joonho Lee, David Small,
  Daniel Levine, Susi Lehtola, Hugh Burton, Evgeny Epifanovsky
 -----------------------------------------------------------------------
 Exchange:     0.4200 Hartree-Fock + 0.5800 PBEh-3c
 Correlation:  1.0000 PBEh-3c
 Using SG-1 standard quadrature grid
 Dispersion:   Grimme D3
 using 4 threads for integral computing
 -------------------------------------------------------
 OpenMP Integral computing Module                
 Release: version 2.0, May 2017, Q-Chem Inc. Pleasanton 
 -------------------------------------------------------
 -------------------------------------------------------
 OpenMP BLAS3 based DFT computing Module                
 Release: version 1.0, May 2013, Q-Chem Inc. Pittsburgh 
 -------------------------------------------------------
 A restricted SCF calculation will be
 performed using DIIS
 SCF converges when DIIS error is below 1.0e-09
 ---------------------------------------
  Cycle       Energy         DIIS error
 ---------------------------------------
 Using non-symmetric K matrix
    1   -1871.0878483840      3.10e-02  
    2   -1855.1286672531      2.22e-03  
    3   -1855.0565170266      2.63e-03  
    4   -1855.4802262404      8.53e-04  
    5   -1855.5275644663      2.22e-04  
    6   -1855.5303765370      9.04e-05  
    7   -1855.5309176318      2.18e-05  
    8   -1855.5309511963      8.52e-06  
    9   -1855.5309566579      2.27e-06  
   10   -1855.5309569877      9.98e-07  
   11   -1855.5309570582      3.64e-07  
   12   -1855.5309570684      1.38e-07  
   13   -1855.5309570699      5.66e-08  
   14   -1855.5309570702      1.88e-08  
   15   -1855.5309570702      7.39e-09  
   16   -1855.5309570702      3.23e-09  
   17   -1855.5309570702      9.13e-10  Convergence criterion met
 ---------------------------------------
 SCF time:   CPU 7960.94s  wall 2039.00s 

************** Final PCM Free Energy Summary **************
 G_electrostatic  =      -0.00000198 hartree =      -0.00124089 kcal/mol
 G_cavitation     =       0.00000000 hartree =       0.00000000 kcal/mol
 G_dispersion     =       0.00000000 hartree =       0.00000000 kcal/mol
 G_repulsion      =       0.00000000 hartree =       0.00000000 kcal/mol
 --------------------------------------------------
 Non-electrostatic Free Energy =       0.00000000 hartree =       0.00000000 kcal/mol
 Total                         =      -0.00000198 hartree =      -0.00124089 kcal/mol
 --------------------------------------------------
 SCF Energy (H0 + V/2)                       =   -1855.53095707 
 Solute Internal Energy (H0)                 =   -1855.53095509 
 Total Free Energy (H0 + V/2 + non-elec)     =   -1855.53095707 hartree
                                             = -1164363.24929523 kcal/mol
***********************************************************

 SCF   energy in the final basis set =    -1855.5309570702
 Total energy in the final basis set =    -1855.5309570702
 
 --------------------------------------------------------------
 
                    Orbital Energies (a.u.)
 --------------------------------------------------------------
 
 Alpha MOs
 -- Occupied --
-14.681 -14.656 -14.653 -10.521 -10.519 -10.512 -10.507 -10.500
-10.499 -10.498 -10.497 -10.493 -10.492 -10.492 -10.492 -10.487
-10.479 -10.478 -10.475 -10.474 -10.473 -10.472 -10.470 -10.469
-10.468 -10.468 -10.466 -10.466 -10.466 -10.466 -10.465 -10.464
-10.464 -10.464 -10.462 -10.452 -10.451 -10.445 -10.445 -10.443
-10.443 -10.442 -10.440 -10.438 -10.436 -10.431 -10.426  -1.093
 -1.042  -1.030  -1.018  -1.003  -0.988  -0.968  -0.961  -0.958
 -0.938  -0.933  -0.911  -0.898  -0.891  -0.885  -0.859  -0.856
 -0.849  -0.846  -0.834  -0.825  -0.819  -0.809  -0.794  -0.773
 -0.772  -0.747  -0.731  -0.725  -0.715  -0.711  -0.703  -0.692
 -0.682  -0.678  -0.672  -0.671  -0.666  -0.645  -0.619  -0.614
 -0.612  -0.611  -0.596  -0.586  -0.581  -0.573  -0.568  -0.561
 -0.540  -0.539  -0.538  -0.533  -0.529  -0.527  -0.522  -0.521
 -0.517  -0.510  -0.505  -0.504  -0.502  -0.501  -0.498  -0.493
 -0.491  -0.490  -0.487  -0.485  -0.475  -0.470  -0.461  -0.453
 -0.448  -0.445  -0.441  -0.438  -0.437  -0.435  -0.435  -0.429
 -0.427  -0.424  -0.424  -0.422  -0.421  -0.416  -0.414  -0.413
 -0.412  -0.403  -0.400  -0.399  -0.397  -0.395  -0.393  -0.378
 -0.374  -0.366  -0.350  -0.339  -0.321  -0.313  -0.307  -0.303
 -0.299  -0.291  -0.287  -0.282  -0.271  -0.230
 -- Virtual --
 -0.061  -0.037  -0.036  -0.023  -0.007  -0.000   0.015   0.016
  0.018   0.033   0.047   0.050   0.051   0.070   0.084   0.111
  0.113   0.118   0.130   0.132   0.134   0.137   0.147   0.151
  0.152   0.158   0.160   0.164   0.167   0.178   0.180   0.182
  0.189   0.193   0.195   0.196   0.197   0.198   0.201   0.206
  0.211   0.214   0.219   0.222   0.223   0.227   0.228   0.232
  0.233   0.233   0.237   0.242   0.246   0.247   0.251   0.253
  0.257   0.259   0.260   0.262   0.270   0.271   0.275   0.279
  0.284   0.285   0.291   0.297   0.299   0.301   0.308   0.308
  0.310   0.320   0.330   0.330   0.334   0.345   0.351   0.358
  0.363   0.366   0.371   0.375   0.379   0.385   0.390   0.396
  0.400   0.415   0.417   0.421   0.429   0.433   0.443   0.452
  0.460   0.469   0.471   0.474   0.481   0.485   0.492   0.498
  0.500   0.503   0.506   0.511   0.519   0.521   0.525   0.528
  0.532   0.534   0.536   0.539   0.540   0.545   0.546   0.550
  0.550   0.552   0.558   0.560   0.560   0.567   0.568   0.574
  0.575   0.579   0.581   0.587   0.587   0.591   0.594   0.598
  0.602   0.604   0.607   0.608   0.611   0.615   0.615   0.617
  0.621   0.625   0.631   0.632   0.633   0.636   0.641   0.644
  0.645   0.648   0.651   0.652   0.656   0.659   0.661   0.665
  0.670   0.672   0.678   0.680   0.685   0.688   0.693   0.696
  0.698   0.699   0.704   0.710   0.715   0.718   0.719   0.723
  0.730   0.731   0.737   0.740   0.741   0.744   0.747   0.751
  0.755   0.759   0.768   0.773   0.776   0.781   0.787   0.798
  0.799   0.804   0.815   0.821   0.826   0.828   0.840   0.842
  0.851   0.858   0.865   0.871   0.877   0.888   0.896   0.900
  0.908   0.916   0.921   0.923   0.928   0.932   0.938   0.941
  0.943   0.944   0.949   0.952   0.958   0.963   0.964   0.970
  0.971   0.975   0.981   0.984   0.986   0.993   0.998   0.999
  1.001   1.002   1.007   1.012   1.017   1.021   1.026   1.030
  1.033   1.036   1.039   1.046   1.048   1.052   1.053   1.058
  1.060   1.062   1.065   1.070   1.075   1.078   1.083   1.090
  1.091   1.093   1.097   1.103   1.109   1.114   1.118   1.123
  1.129   1.130   1.133   1.138   1.141   1.146   1.148   1.152
  1.158   1.166   1.172   1.174   1.182   1.186   1.195   1.198
  1.204   1.224   1.234   1.235   1.240   1.244   1.255   1.260
  1.263   1.269   1.278   1.285   1.293   1.297   1.301   1.306
  1.308   1.309   1.316   1.324   1.334   1.339   1.344   1.347
  1.355   1.359   1.370   1.370   1.379   1.382   1.389   1.395
  1.412   1.416   1.423   1.432   1.446   1.454   1.460   1.477
  1.489   1.492   1.505   1.507   1.509   1.514   1.521   1.525
  1.526   1.531   1.537   1.539   1.544   1.553   1.556   1.556
  1.561   1.563   1.567   1.573   1.578   1.583   1.587   1.596
  1.600   1.603   1.609   1.611   1.625   1.639   1.642   1.646
  1.653   1.668   1.675   1.689   1.701   1.705   1.725   1.725
  1.735   1.743   1.762   1.763   1.772   1.783   1.798   1.802
  1.804   1.810   1.814   1.830   1.834   1.837   1.842   1.845
  1.848   1.854   1.858   1.864   1.870   1.877   1.883   1.886
  1.898   1.902   1.904   1.923   1.925   1.928   1.932   1.943
  1.949   1.961   1.965   1.968   1.975   1.988   1.991   2.000
  2.002   2.005   2.008   2.018   2.023   2.026   2.031   2.032
  2.038   2.043   2.044   2.061   2.065   2.067   2.078   2.085
  2.089   2.097   2.102   2.117   2.129   2.136   2.137   2.144
  2.148   2.158   2.161   2.163   2.166   2.170   2.173   2.186
  2.194   2.197   2.204   2.207   2.213   2.216   2.227   2.235
  2.238   2.244   2.245   2.255   2.258   2.262   2.267   2.276
  2.279   2.286   2.290   2.298   2.306   2.311   2.314   2.316
  2.322   2.332   2.340   2.347   2.350   2.356   2.358   2.361
  2.364   2.372   2.374   2.380   2.383   2.385   2.392   2.398
  2.410   2.419   2.432   2.437   2.456   2.467   2.474   2.483
  2.504   2.509   2.519   2.528   2.543   2.547   2.561   2.575
  2.586   2.590   2.596   2.604   2.618   2.623   2.637   2.649
  2.661   2.671   2.680   2.693   2.701   2.705   2.710   2.716
  2.726   2.730   2.732   2.738   2.739   2.742   2.754   2.754
  2.762   2.770   2.772   2.774   2.780   2.788   2.797   2.814
  2.817   2.822   2.831   2.836   2.839   2.847   2.859   2.861
  2.874   2.881   2.891   2.894   2.901   2.912   2.916   2.930
  2.947   2.974   2.981   2.988   2.997   2.998   3.017   3.030
  3.040   3.041   3.077   3.091   3.155   3.222   3.269   3.327
  3.363   3.370   3.381   3.390   3.408   3.495   3.547   3.558
  3.589   3.677  13.191  13.246  13.263  13.327  13.366  13.408
 13.629  13.659  13.663  13.713  13.725  13.733  13.758  13.765
 13.773  13.801  13.818  13.833  13.895  13.911  13.935  14.022
 14.064  14.077  14.121  14.167  14.176  14.191  14.194  14.215
 14.233  14.244  14.250  14.254  14.262  14.296  14.313  14.396
 14.573  14.578  14.584  14.587  14.605  14.617  19.495  19.567
 19.631
 --------------------------------------------------------------
 
          Ground-State Mulliken Net Atomic Charges

     Atom                 Charge (a.u.)
  ----------------------------------------
      1 N                    -0.701410
      2 C                     0.315084
      3 C                    -0.288046
      4 H                     0.239923
      5 C                    -0.235258
      6 H                     0.215029
      7 C                    -0.219241
      8 H                     0.212710
      9 C                    -0.323421
     10 H                     0.212271
     11 C                     0.170662
     12 C                     0.315973
     13 C                    -0.300834
     14 H                     0.264084
     15 C                    -0.234225
     16 H                     0.218766
     17 C                    -0.221256
     18 H                     0.210094
     19 C                    -0.319774
     20 H                     0.212432
     21 C                     0.151862
     22 C                     0.222269
     23 C                    -0.236426
     24 H                     0.235482
     25 C                    -0.303682
     26 H                     0.218305
     27 C                    -0.301690
     28 H                     0.285358
     29 C                     0.092776
     30 C                     0.184063
     31 C                    -0.535643
     32 H                     0.251611
     33 H                     0.248701
     34 C                    -0.233334
     35 C                    -0.662291
     36 H                     0.227118
     37 H                     0.227362
     38 H                     0.239551
     39 C                    -0.523648
     40 H                     0.248723
     41 H                     0.260132
     42 C                     0.080912
     43 C                    -0.322093
     44 H                     0.246872
     45 C                     0.079105
     46 C                     0.246540
     47 C                    -0.272296
     48 H                     0.281045
     49 C                     0.077587
     50 C                    -0.007235
     51 N                    -0.154473
     52 C                    -0.008357
     53 N                    -0.155042
     54 C                    -0.433821
     55 C                     0.059492
     56 C                    -0.261679
     57 H                     0.220605
     58 C                    -0.226679
     59 H                     0.229761
     60 C                    -0.213086
     61 H                     0.230569
     62 C                    -0.321897
     63 H                     0.214741
     64 C                     0.157328
     65 C                     0.132403
     66 C                    -0.317913
     67 H                     0.215767
     68 C                    -0.223841
     69 H                     0.230045
     70 C                    -0.221495
     71 H                     0.228893
     72 C                    -0.275236
     73 H                     0.219198
     74 C                     0.143880
     75 C                    -0.592180
     76 H                     0.232099
     77 H                     0.219190
     78 H                     0.221128
  ----------------------------------------
  Sum of atomic charges =     0.000000

 -----------------------------------------------------------------
                    Cartesian Multipole Moments
 -----------------------------------------------------------------
    Charge (ESU x 10^10)
                 0.0000
    Dipole Moment (Debye)
         X      -4.7382      Y       5.2289      Z       2.9396
       Tot       7.6441
    Quadrupole Moments (Debye-Ang)
        XX    -323.6667     XY      63.4364     YY    -297.8078
        XZ      45.5224     YZ     -37.2637     ZZ    -282.9423
    Octopole Moments (Debye-Ang^2)
       XXX   -2457.6700    XXY    1011.0568    XYY    -914.4474
       YYY    1623.7072    XXZ     917.1769    XYZ    -381.6713
       YYZ     671.7614    XZZ    -864.1051    YZZ     674.9615
       ZZZ    1445.5657
    Hexadecapole Moments (Debye-Ang^3)
      XXXX  -34044.8359   XXXY   10623.6908   XXYY   -9308.1565
      XYYY    7777.2894   YYYY  -13412.5369   XXXZ   11358.3572
      XXYZ   -4507.9298   XYYZ    4395.4168   YYYZ   -6228.1169
      XXZZ   -9459.2536   XYZZ    3849.1929   YYZZ   -5949.6279
      XZZZ    8466.6964   YZZZ   -5735.1796   ZZZZ  -15310.7823
 -----------------------------------------------------------------
 Calculating analytic gradient of the SCF energy
 -1.349816701973102E-003 -1.349809441331499E-003
 -1.349811275179530E-003 -1.349814884262261E-003
 -1.349796249763688E-003 -1.349829896715518E-003
 -1.349848194417590E-003 -1.349777934177407E-003
 -1.349801488980222E-003 -1.349824699417162E-003
 -1.349804324874354E-003 -1.349821824512289E-003
 -1.349811950520119E-003 -1.349814188741486E-003
 -1.349804285585921E-003 -1.349821896464092E-003
 -1.349777671484169E-003 -1.349848465035379E-003
 -1.349823195216099E-003 -1.349802937374280E-003
 -1.349815810210792E-003 -1.349810352616211E-003
 -1.349800846220566E-003 -1.349825302047785E-003
 -1.349826448835481E-003 -1.349799657679881E-003
 -1.349803184334215E-003 -1.349823000534017E-003
 -1.349811884778935E-003 -1.349814279950505E-003
 -1.349811490231753E-003 -1.349814643399972E-003
 -1.349805810725544E-003 -1.349820338469470E-003
 -1.349787285438076E-003 -1.349838854457707E-003
 -1.349792457464414E-003 -1.349833698401842E-003
 -1.349801491997974E-003 -1.349824701941983E-003
 -1.349775067807439E-003 -1.349851064968686E-003
 -1.349812869438682E-003 -1.349813292367731E-003
 -1.349802536074801E-003 -1.349823644155418E-003
 -1.349809778689528E-003 -1.349816380419433E-003
 -1.349840220040411E-003 -1.349785891345798E-003
 -1.349798861991376E-003 -1.349827330886613E-003
 -1.349815450257554E-003 -1.349810711869626E-003
 -1.349799960400411E-003 -1.349826158432936E-003
 -1.349799926768931E-003 -1.349826248675793E-003
 -1.349802456691945E-003 -1.349823708772846E-003
 -1.349800473303196E-003 -1.349825680184385E-003
 -1.349800699476643E-003 -1.349825498733005E-003
 -1.349808606625130E-003 -1.349817527823030E-003
 -1.349838460794771E-003 -1.349787670158383E-003
 -1.349808134804984E-003 -1.349818038018927E-003
 -1.349786210297621E-003 -1.349839935024128E-003
 -1.349816318389301E-003 -1.349809831629711E-003
 -1.349831283700445E-003 -1.349794885468225E-003
 -1.349815090745459E-003 -1.349811044415105E-003
 -1.349814304836229E-003 -1.349811848155046E-003
 -1.349840667338247E-003 -1.349785494616728E-003
 -1.349804930596679E-003 -1.349821206052793E-003
 -1.349833975387679E-003 -1.349792163627364E-003
 -1.349820940027678E-003 -1.349805233712961E-003
 -1.349803448423553E-003 -1.349822691268878E-003
 -1.349830921579958E-003 -1.349795202581456E-003
 -1.349824069479792E-003 -1.349802088399552E-003
 -1.349822093387430E-003 -1.349804054827000E-003
 -1.349833304259636E-003 -1.349792864146878E-003
 -1.349816493758741E-003 -1.349809674193917E-003
 -1.349836321348148E-003 -1.349789821025960E-003
 -1.349830156127036E-003 -1.349796025560616E-003
 -1.349803110377777E-003 -1.349823040166899E-003
 -1.349818460838426E-003 -1.349807692910075E-003
 -1.349847047020098E-003 -1.349779118819513E-003
 -1.349800679620839E-003 -1.349825509721017E-003
 -1.349800801091888E-003 -1.349825357793373E-003
 -1.349818078589849E-003 -1.349808100642232E-003
 -1.349799771966075E-003 -1.349826402534211E-003
 -1.349829669830206E-003 -1.349796485897977E-003
 -1.349813231034374E-003 -1.349812934727013E-003
 -1.349791735741649E-003 -1.349834439698115E-003
 -1.349806811941319E-003 -1.349819333771997E-003
 -1.349811868318579E-003 -1.349814284397442E-003
 -1.349827883133436E-003 -1.349798253612996E-003
 -1.349809458291164E-003 -1.349816705120571E-003
 -1.349797725946949E-003 -1.349828418847185E-003
 -1.349799152471269E-003 -1.349826977362487E-003
 -1.349811095036495E-003 -1.349815084907995E-003
 -1.349798601026121E-003 -1.349827546277547E-003
 -1.349805001742478E-003 -1.349821140664615E-003
 -1.349805772474045E-003 -1.349820395321361E-003
 -1.349796966616437E-003 -1.349829199936189E-003
 -1.349803021156733E-003 -1.349823111237807E-003
 -1.349809492305029E-003 -1.349816695520006E-003
 -1.349798468935595E-003 -1.349827681320536E-003
 -1.349795994676541E-003 -1.349830148225113E-003
 -1.349807107265380E-003 -1.349819047440771E-003
 -1.349808455650609E-003 -1.349817687173415E-003
 -1.349791027927873E-003 -1.349835106944703E-003
 -1.349831767373960E-003 -1.349794383236602E-003
 -1.349815968503574E-003 -1.349810163916755E-003
 -1.349800915389242E-003 -1.349825180394544E-003
 -1.349823873349372E-003 -1.349802251923070E-003
 -1.349792081651765E-003 -1.349834072595782E-003
 -1.349804770749033E-003 -1.349821366107250E-003
 -1.349811650331635E-003 -1.349814529457469E-003
 -1.349813006903263E-003 -1.349813143276931E-003
 -1.349807713349702E-003 -1.349818432614759E-003
 -1.349817056203710E-003 -1.349809128537927E-003
 -1.349824726447063E-003 -1.349801415828622E-003
 -1.349806240256472E-003 -1.349819883562042E-003
 -1.349797739168252E-003 -1.349828421096071E-003
 -1.349800812768684E-003 -1.349825325980449E-003
 -1.349793833352312E-003 -1.349832321143213E-003
 -1.349810739500509E-003 -1.349815407063432E-003
 -1.349795060020692E-003 -1.349831074001094E-003
 -1.349801551407826E-003 -1.349824577252241E-003
 -1.349797854641182E-003 -1.349828263376801E-003
 -1.349822357311253E-003 -1.349803792430543E-003
 -1.349822526172048E-003 -1.349803641435538E-003
 -1.349816391396223E-003 -1.349809747566042E-003
 -1.349803215801675E-003 -1.349822939262586E-003
 -1.349789332058166E-003 -1.349836832521490E-003
 -1.349815524271230E-003 -1.349810566156313E-003
 -1.349830169104468E-003 -1.349795970672173E-003
 -1.349816466104356E-003 -1.349809678770049E-003
 -1.349811551492262E-003 -1.349814578122201E-003
 -1.349829761251742E-003 -1.349796392411423E-003
 -1.349811321654355E-003 -1.349814822018086E-003
 -1.349804653456312E-003 -1.349821453504763E-003
 -1.349825190136557E-003 -1.349800925346984E-003
 -1.349807068813145E-003 -1.349819057892019E-003
 -1.349808416015044E-003 -1.349817696796412E-003
 -1.349791415919828E-003 -1.349834720501765E-003
 -1.349801596118359E-003 -1.349824543985254E-003
 -1.349822766787830E-003 -1.349803406522265E-003
 -1.349800034396109E-003 -1.349826135405552E-003
 -1.349807186299398E-003 -1.349818959709731E-003
 -1.349814541013335E-003 -1.349811621066550E-003
 -1.349809588247480E-003 -1.349816536707299E-003
 -1.349797742945614E-003 -1.349828395947803E-003
 -1.349827157846007E-003 -1.349798955604188E-003
 -1.349789395924221E-003 -1.349836748737129E-003
 -1.349829274174560E-003 -1.349796872547942E-003
 -1.349833658223341E-003 -1.349792533254784E-003
 -1.349822802219715E-003 -1.349803368185390E-003
 -1.349801986091941E-003 -1.349824142852424E-003
 -1.349812712485493E-003 -1.349813479443409E-003
 -1.349796264188489E-003 -1.349829907248453E-003
 -1.349815791237265E-003 -1.349810338233546E-003
 -1.349821682557830E-003 -1.349804472587851E-003
 -1.349774563889599E-003 -1.349851570644294E-003
 -1.349822012244459E-003 -1.349804139755100E-003
 -1.349824525620283E-003 -1.349801658473216E-003
 -1.349807450937790E-003 -1.349818715762532E-003
 -1.349811496430921E-003 -1.349814641371508E-003
 -1.349816961772995E-003 -1.349809235291847E-003
 -1.349771437098367E-003 -1.349854702297917E-003
 -1.349807165931242E-003 -1.349818976488207E-003
 -1.349815204142785E-003 -1.349810979536981E-003
 -1.349808689203291E-003 -1.349817440071694E-003
 -1.349816991847600E-003 -1.349809129197866E-003
 -1.349812341080240E-003 -1.349813793880615E-003
 -1.349822633370880E-003 -1.349803514948070E-003
 -1.349811161395272E-003 -1.349814973141614E-003
 -1.349808521981469E-003 -1.349817662463301E-003
 -1.349790716861241E-003 -1.349835461090811E-003
 -1.349817374574446E-003 -1.349808847494566E-003
 -1.349818724453060E-003 -1.349807514934905E-003
 -1.349831688976322E-003 -1.349794477538525E-003
 -1.349805857952413E-003 -1.349820338032174E-003
 -1.349808031493542E-003 -1.349818173846738E-003
 -1.349812914870311E-003 -1.349813251845147E-003
 -1.349827002286654E-003 -1.349799135205079E-003
 -1.349819052680777E-003 -1.349807131693765E-003
 -1.349770101425850E-003 -1.349856059520361E-003
 -1.349814152261413E-003 -1.349811992665799E-003
 -1.349821043133957E-003 -1.349805126704798E-003
 -1.349787669553653E-003 -1.349838452002974E-003
 -1.349798168204587E-003 -1.349827967586376E-003
 -1.349819764419650E-003 -1.349806410253139E-003
 -1.349808188420992E-003 -1.349817933457185E-003
 -1.349805231050476E-003 -1.349820878468112E-003
 -1.349825346789494E-003 -1.349800775619381E-003
 -1.349806762733128E-003 -1.349819355454091E-003
 -1.349829327396639E-003 -1.349796770739648E-003
 -1.349812298479367E-003 -1.349813814394641E-003
 -1.349802225319451E-003 -1.349823907108249E-003
 -1.349834494711815E-003 -1.349791618587929E-003
 -1.349810002081492E-003 -1.349816115446254E-003
 -1.349799520791023E-003 -1.349826608203931E-003
 -1.349840276214470E-003 -1.349785878241284E-003
 -1.349794197352445E-003 -1.349831909437912E-003
 -1.349805593684949E-003 -1.349820554823519E-003
 -1.349845760466175E-003 -1.349780390051157E-003
 -1.349799493176181E-003 -1.349826640300598E-003
 -1.349814859810866E-003 -1.349811270880565E-003
 -1.349857460195270E-003 -1.349768671275228E-003
 -1.349796661430071E-003 -1.349829472786639E-003
 -1.349806189888608E-003 -1.349819955297648E-003
 -1.349845573147598E-003 -1.349780609921083E-003
 -1.349807878136757E-003 -1.349818269064500E-003
 -1.349818668186180E-003 -1.349807444741172E-003
 -1.349834289753586E-003 -1.349791845030809E-003
 -1.349818594465068E-003 -1.349807522539585E-003
 -1.349815188442308E-003 -1.349810931757449E-003
 -1.349849004482197E-003 -1.349777137867427E-003
 -1.349809456928456E-003 -1.349816677999128E-003
 -1.349811816266480E-003 -1.349814300228989E-003
 -1.349813940667027E-003 -1.349812158980143E-003
 -1.349811670115599E-003 -1.349814450251768E-003
 -1.349823649292620E-003 -1.349802457648508E-003
 -1.349801103261336E-003 -1.349825019515941E-003
 -1.349821812756562E-003 -1.349804317174322E-003
 -1.349824917471261E-003 -1.349801221316171E-003
 -1.349813467116483E-003 -1.349812645564392E-003
 -1.349820294629642E-003 -1.349805841013759E-003
 -1.349831693900055E-003 -1.349794442968217E-003
 -1.349825429247314E-003 -1.349800698421385E-003
 -1.349840470843856E-003 -1.349785656899114E-003
 -1.349843331417032E-003 -1.349782797231973E-003
 -1.349822896558393E-003 -1.349803248435130E-003
 -1.349848082627224E-003 -1.349778064570206E-003
 -1.349819173543402E-003 -1.349806978386185E-003
 -1.349819887634387E-003 -1.349806270869589E-003
 -1.349836941173205E-003 -1.349789232641520E-003
 -1.349819616963616E-003 -1.349806523010492E-003
 -1.349807806806353E-003 -1.349818306386874E-003
 -1.349838502771661E-003 -1.349787643270271E-003
 -1.349820531039877E-003 -1.349805608687661E-003
 -1.349819441964135E-003 -1.349806682770890E-003
 -1.349851677274869E-003 -1.349774493517992E-003
 -1.349823102307913E-003 -1.349803011784070E-003
 -1.349821096675938E-003 -1.349805021367415E-003
 -1.349816341886718E-003 -1.349809778258832E-003
 -1.349806934556663E-003 -1.349819200796462E-003
 -1.349814037141241E-003 -1.349812071761345E-003
 -1.349832790473218E-003 -1.349793321670956E-003
 -1.349809440316103E-003 -1.349816671893024E-003
 -1.349808266313836E-003 -1.349817858600134E-003
 -1.349806256653295E-003 -1.349819882390589E-003
 -1.349809178610181E-003 -1.349817001284008E-003
 -1.349816851403342E-003 -1.349809268749466E-003
 -1.349798529683295E-003 -1.349827578559933E-003
 -1.349816280101352E-003 -1.349809865652147E-003
 -1.349830119028680E-003 -1.349795971234765E-003
 -1.349806582272432E-003 -1.349819563254165E-003
 -1.349835136098241E-003 -1.349791013992696E-003
 -1.349809000815066E-003 -1.349817138842329E-003
 -1.349812707675155E-003 -1.349813417930604E-003
 -1.349836016774574E-003 -1.349790143040620E-003
 -1.349803906845419E-003 -1.349822217257404E-003
 -1.349802910960359E-003 -1.349823204814731E-003
 Gradient of SCF Energy
            1           2           3           4           5           6
    1  -0.0003286  -0.0006915   0.0003154   0.0001502   0.0003930   0.0001305
    2  -0.0004701  -0.0002996  -0.0000673   0.0001151   0.0000855   0.0000496
    3   0.0004382  -0.0007070  -0.0003294  -0.0000831   0.0002447   0.0000241
            7           8           9          10          11          12
    1  -0.0000805  -0.0000010  -0.0006735  -0.0002278   0.0001200   0.0001997
    2   0.0000349   0.0000453  -0.0000516   0.0001218  -0.0001999   0.0005233
    3   0.0003379   0.0001351   0.0004750  -0.0001261  -0.0004484   0.0008434
           13          14          15          16          17          18
    1   0.0003406  -0.0000705   0.0002056   0.0000182  -0.0002585  -0.0000918
    2   0.0003316  -0.0000464  -0.0001180  -0.0001093  -0.0002794  -0.0001458
    3  -0.0000543  -0.0000823  -0.0005262  -0.0000159  -0.0004040  -0.0000246
           19          20          21          22          23          24
    1  -0.0002040  -0.0002777  -0.0000349   0.0007586  -0.0005065  -0.0000038
    2  -0.0001010  -0.0001761   0.0003862  -0.0001943   0.0002247   0.0002363
    3   0.0003289  -0.0002179   0.0003362  -0.0004311   0.0002423  -0.0001319
           25          26          27          28          29          30
    1   0.0000632  -0.0000265   0.0001266  -0.0000100   0.0005299   0.0001623
    2  -0.0000648   0.0000160  -0.0000743  -0.0000812  -0.0001069   0.0000317
    3  -0.0000488  -0.0000220   0.0003678   0.0001454  -0.0002583   0.0000787
           31          32          33          34          35          36
    1  -0.0001184   0.0000639  -0.0002919  -0.0003320  -0.0002730   0.0002330
    2   0.0001518  -0.0001668  -0.0000490  -0.0002234   0.0001743  -0.0000105
    3  -0.0004372  -0.0000005   0.0000801   0.0000880   0.0003288  -0.0001728
           37          38          39          40          41          42
    1   0.0001242   0.0000294   0.0006027  -0.0002656  -0.0000088  -0.0006772
    2  -0.0000535  -0.0000285   0.0004101  -0.0001902  -0.0003651   0.0002516
    3   0.0000197  -0.0000073   0.0002792  -0.0000879  -0.0000489   0.0002881
           43          44          45          46          47          48
    1   0.0012448  -0.0000564  -0.0003066   0.0000559  -0.0006239   0.0000863
    2   0.0000266   0.0001969   0.0001608  -0.0002242  -0.0005881  -0.0001217
    3  -0.0001605   0.0000554   0.0002156   0.0000402  -0.0003374  -0.0000949
           49          50          51          52          53          54
    1   0.0000474  -0.0003749   0.0002527  -0.0002668   0.0002822  -0.0000224
    2   0.0000644   0.0004178  -0.0002965   0.0005556  -0.0003326   0.0004728
    3   0.0000685   0.0002581  -0.0002121   0.0003279  -0.0001985   0.0000990
           55          56          57          58          59          60
    1  -0.0012584   0.0005521   0.0001670   0.0003391   0.0000896   0.0000143
    2  -0.0010949   0.0005344   0.0000969  -0.0000950   0.0000635   0.0000015
    3  -0.0018991  -0.0005564   0.0001648   0.0002647   0.0001613   0.0001318
           61          62          63          64          65          66
    1  -0.0000115  -0.0004270   0.0000029  -0.0001042  -0.0001347  -0.0003366
    2  -0.0001013  -0.0004678  -0.0000540   0.0000543  -0.0000557  -0.0004433
    3   0.0000885  -0.0000959  -0.0002022  -0.0003092   0.0005407  -0.0000652
           67          68          69          70          71          72
    1   0.0000399   0.0000509  -0.0000972   0.0001563  -0.0000278   0.0006601
    2  -0.0001061   0.0000988  -0.0000256   0.0003335   0.0000396   0.0006612
    3   0.0000822  -0.0003088  -0.0000584  -0.0001212  -0.0000954   0.0003031
           73          74          75          76          77          78
    1  -0.0000733   0.0008534   0.0004689   0.0001635  -0.0002974  -0.0002213
    2   0.0001490   0.0003483  -0.0000533   0.0001033   0.0000860   0.0000777
    3  -0.0003009   0.0019836  -0.0001804  -0.0000574   0.0000145   0.0000382
 Max gradient component =       1.984E-03
 RMS gradient           =       3.557E-04
 Computing fast IEFPCM-SWIG gradient.
 Updating gradient with PCM contributions...
 -- total gradient after adding PCM contribution --
---------------------------------------------------
  Atom         X              Y              Z     
---------------------------------------------------
   1      -0.000329      -0.000470       0.000438
   2      -0.000692      -0.000300      -0.000707
   3       0.000316      -0.000067      -0.000330
   4       0.000150       0.000115      -0.000083
   5       0.000393       0.000086       0.000245
   6       0.000130       0.000050       0.000024
   7      -0.000081       0.000035       0.000338
   8      -0.000001       0.000045       0.000135
   9      -0.000674      -0.000052       0.000475
  10      -0.000228       0.000122      -0.000126
  11       0.000120      -0.000200      -0.000448
  12       0.000200       0.000523       0.000843
  13       0.000341       0.000332      -0.000054
  14      -0.000071      -0.000046      -0.000082
  15       0.000206      -0.000118      -0.000526
  16       0.000018      -0.000109      -0.000016
  17      -0.000259      -0.000280      -0.000404
  18      -0.000092      -0.000146      -0.000024
  19      -0.000204      -0.000101       0.000329
  20      -0.000278      -0.000176      -0.000218
  21      -0.000035       0.000386       0.000336
  22       0.000759      -0.000194      -0.000431
  23      -0.000507       0.000225       0.000242
  24      -0.000004       0.000236      -0.000132
  25       0.000063      -0.000065      -0.000049
  26      -0.000027       0.000016      -0.000022
  27       0.000127      -0.000074       0.000368
  28      -0.000010      -0.000081       0.000145
  29       0.000529      -0.000107      -0.000258
  30       0.000162       0.000032       0.000079
  31      -0.000118       0.000153      -0.000438
  32       0.000064      -0.000167      -0.000001
  33      -0.000292      -0.000049       0.000081
  34      -0.000332      -0.000223       0.000088
  35      -0.000273       0.000174       0.000329
  36       0.000233      -0.000011      -0.000173
  37       0.000124      -0.000053       0.000020
  38       0.000029      -0.000028      -0.000007
  39       0.000603       0.000410       0.000280
  40      -0.000266      -0.000191      -0.000088
  41      -0.000009      -0.000365      -0.000049
  42      -0.000677       0.000251       0.000288
  43       0.001245       0.000027      -0.000160
  44      -0.000057       0.000197       0.000055
  45      -0.000307       0.000161       0.000216
  46       0.000056      -0.000224       0.000040
  47      -0.000624      -0.000588      -0.000337
  48       0.000087      -0.000122      -0.000095
  49       0.000047       0.000064       0.000069
  50      -0.000377       0.000418       0.000259
  51       0.000255      -0.000297      -0.000213
  52      -0.000267       0.000557       0.000329
  53       0.000282      -0.000335      -0.000200
  54      -0.000022       0.000473       0.000099
  55      -0.001259      -0.001095      -0.001899
  56       0.000552       0.000535      -0.000556
  57       0.000167       0.000097       0.000165
  58       0.000339      -0.000095       0.000265
  59       0.000089       0.000064       0.000161
  60       0.000014       0.000001       0.000132
  61      -0.000011      -0.000101       0.000088
  62      -0.000427      -0.000468      -0.000096
  63       0.000003      -0.000054      -0.000202
  64      -0.000104       0.000054      -0.000309
  65      -0.000135      -0.000056       0.000541
  66      -0.000337      -0.000444      -0.000065
  67       0.000040      -0.000106       0.000082
  68       0.000051       0.000099      -0.000309
  69      -0.000097      -0.000025      -0.000058
  70       0.000156       0.000334      -0.000121
  71      -0.000028       0.000039      -0.000095
  72       0.000660       0.000662       0.000303
  73      -0.000074       0.000149      -0.000301
  74       0.000853       0.000348       0.001983
  75       0.000469      -0.000053      -0.000180
  76       0.000163       0.000103      -0.000057
  77      -0.000297       0.000086       0.000014
  78      -0.000221       0.000078       0.000038
---------------------------------------------------
 Number of fixed atoms: 0
 Gradient time:  CPU 763.31 s  wall 275.73 s
 Geometry Optimization Parameters
   NAtoms,    NIC,     NZ,  NCons,   NDum,   NFix, NCnnct, MaxDiis
       78     630      78       0       0       0       0       0


** GEOMETRY OPTIMIZATION IN DELOCALIZED INTERNAL COORDINATES **
   Searching for a Minimum

   Optimization Cycle:   1

                       Coordinates (Angstroms)
     ATOM                X               Y               Z
      1  N         0.0000000000    0.0000000000    0.0000000000
      2  C         0.0000000000    0.0000000000    1.3987400000
      3  C         1.1965187758    0.0000000000    2.1158663280
      4  H         2.1447256668    0.0159939793    1.5969066484
      5  C         1.1797699299   -0.0317638982    3.4993753925
      6  H         2.1170114849   -0.0298116997    4.0405498766
      7  C        -0.0238880100   -0.0824659340    4.1814292457
      8  H        -0.0444887481   -0.1179779676    5.2623528717
      9  C        -1.2101758365   -0.0755640183    3.4631605041
     10  H        -2.1442591535   -0.1015581168    4.0071981312
     11  C        -1.2256576421   -0.0150174757    2.0762487998
     12  C        -1.0874629560   -0.5543591787   -0.6860745327
     13  C        -0.9701702773   -1.0287213740   -1.9947945624
     14  H        -0.0452334874   -0.9362160659   -2.5452313272
     15  C        -2.0418993834   -1.6430292865   -2.6187768970
     16  H        -1.9168350098   -2.0098839579   -3.6293661042
     17  C        -3.2449212070   -1.7970094617   -1.9535282311
     18  H        -4.0812722903   -2.2945086857   -2.4262100689
     19  C        -3.3754826575   -1.2757758837   -0.6755016107
     20  H        -4.3325911399   -1.3649981791   -0.1806186535
     21  C        -2.3277565921   -0.6260284741   -0.0359314900
     22  C         1.2338840923    0.1498656504   -0.6827675588
     23  C         1.7271595688    1.4096097646   -0.9675666231
     24  H         1.1880835477    2.2922463255   -0.6490947421
     25  C         2.9236254329    1.5116681011   -1.6541832511
     26  H         3.3376133327    2.4933564856   -1.8496988286
     27  C         1.9302373209   -0.9706037063   -1.1024846419
     28  H         1.5079256363   -1.9374592262   -0.8640182633
     29  C         3.6068464674    0.3936228725   -2.1250334212
     30  C         3.0852596322   -0.8801578853   -1.8747312530
     31  C         4.9226743967    0.6022178490   -2.8100981640
     32  H         5.1962415080    1.6550179898   -2.7317411810
     33  H         4.8660199942    0.3879171428   -3.8816587003
     34  C        -2.5002190478    0.1339924579    1.2647185396
     35  C        -3.7364027767   -0.3158934810    2.0383626485
     36  H        -3.8659443393    0.2729428018    2.9457494014
     37  H        -4.6406604136   -0.1600204780    1.4508163372
     38  H        -3.6856616880   -1.3692929832    2.3166950848
     39  C         6.0138047537   -0.2563953613   -2.1720928385
     40  H         6.9828889799    0.2291931348   -2.2921865515
     41  H         5.8408115191   -0.3276098610   -1.0948596394
     42  C         6.0855464784   -1.6183039947   -2.7937779782
     43  C         7.3427742376   -2.0602856070   -3.2105358198
     44  H         8.2066807881   -1.4377701961   -3.0173726089
     45  C         7.5210453088   -3.2587516357   -3.8741472029
     46  C         4.9659696352   -2.4173865771   -3.0359126132
     47  C         5.1529603019   -3.6169064696   -3.7284367486
     48  H         4.3035364493   -4.2502173019   -3.9466038382
     49  C         6.3964296558   -4.0458500318   -4.1489559327
     50  C         8.8246547924   -3.6658245784   -4.2813900012
     51  N         9.8822281993   -3.9843270210   -4.6054862998
     52  C         6.5144933114   -5.2815967833   -4.8511363555
     53  N         6.5965044702   -6.2804398608   -5.4171012973
     54  C         3.5198410789   -2.1733779644   -2.5832846702
     55  C         3.1075917818   -3.3998258975   -1.7759944253
     56  C         3.6524196936   -3.8578096873   -0.5938043888
     57  H         4.4751687800   -3.3364564563   -0.1201963826
     58  C         3.1201785136   -5.0040990262   -0.0163022786
     59  H         3.5318825336   -5.3774283704    0.9118834521
     60  C         2.0625182072   -5.6766499637   -0.6195848499
     61  H         1.6611541931   -6.5671880581   -0.1542784180
     62  C         1.5203447222   -5.2198763480   -1.8114510880
     63  H         0.6994623156   -5.7490262556   -2.2790854766
     64  C         2.0529268935   -4.0760039134   -2.3866289392
     65  C         1.7092694651   -3.3826154432   -3.6208338245
     66  C         0.7399988913   -3.6614220472   -4.5735225437
     67  H         0.0745022698   -4.5076480841   -4.4577075580
     68  C         0.6406997996   -2.8361720419   -5.6839360450
     69  H        -0.1062893441   -3.0398243774   -6.4399948088
     70  C         1.4961608172   -1.7500406243   -5.8366332679
     71  H         1.4067810437   -1.1172572198   -6.7096152481
     72  C         2.4652681173   -1.4703302629   -4.8803637964
     73  H         3.1216352532   -0.6193993955   -5.0089350864
     74  C         2.5669422883   -2.2930074687   -3.7753472949
     75  C        -2.6770983062    1.6243636825    0.9055982142
     76  H        -1.8274717672    2.0085402324    0.3412620834
     77  H        -2.7818020948    2.2268383396    1.8097741232
     78  H        -3.5717415699    1.7610207287    0.2949016960
   Point Group: c1    Number of degrees of freedom:   228


   Energy is  -1855.530957070


 Attempting to Generate Delocalized Internal Coordinates

228 Hessian modes will be used to form the next step
  Hessian Eigenvalues:
     0.003464    0.005722    0.006075    0.009586    0.011409    0.011830
     0.012954    0.013247    0.014144    0.014924    0.015465    0.016789
     0.016970    0.017065    0.017280    0.017709    0.018403    0.018636
     0.019259    0.019531    0.020157    0.020332    0.020788    0.021186
     0.021823    0.021886    0.023141    0.023304    0.023574    0.023669
     0.023690    0.023693    0.023725    0.023827    0.023833    0.023839
     0.023858    0.023866    0.023888    0.023907    0.023962    0.023985
     0.023989    0.024043    0.024052    0.024060    0.024098    0.024162
     0.024222    0.024246    0.024312    0.024321    0.024340    0.024370
     0.024411    0.024419    0.024495    0.024501    0.024561    0.024576
     0.024672    0.037065    0.044313    0.051212    0.053673    0.053728
     0.054631    0.054681    0.056096    0.056189    0.057209    0.066924
     0.078324    0.086009    0.087182    0.092504    0.093971    0.113691
     0.118146    0.125636    0.126030    0.159622    0.159940    0.159969
     0.159971    0.159974    0.159984    0.159988    0.159989    0.159993
     0.159994    0.159995    0.159995    0.159996    0.159999    0.159999
     0.159999    0.159999    0.160000    0.160000    0.160000    0.160000
     0.160000    0.160000    0.160000    0.160000    0.160000    0.160000
     0.166192    0.176079    0.191495    0.200000    0.200000    0.200000
     0.200000    0.219952    0.219985    0.219999    0.220000    0.220500
     0.224349    0.224726    0.225861    0.225995    0.226320    0.229884
     0.230853    0.233738    0.236286    0.237188    0.239367    0.244365
     0.244853    0.244898    0.244971    0.245972    0.246136    0.249852
     0.249859    0.249895    0.249971    0.249999    0.273095    0.282375
     0.284034    0.285055    0.287929    0.291729    0.295345    0.296687
     0.297837    0.317491    0.319595    0.343264    0.344276    0.346063
     0.346346    0.347283    0.347456    0.347469    0.348215    0.348610
     0.348785    0.356103    0.356265    0.356541    0.356614    0.357101
     0.357146    0.357222    0.357290    0.357334    0.357344    0.357572
     0.357661    0.357708    0.357715    0.357828    0.357893    0.357926
     0.358262    0.358402    0.358535    0.358676    0.359582    0.382616
     0.393723    0.405895    0.415392    0.416993    0.419066    0.421147
     0.421707    0.424362    0.426468    0.427428    0.428619    0.429007
     0.433786    0.434492    0.435470    0.448314    0.453405    0.458365
     0.460017    0.460153    0.462923    0.463440    0.465944    0.471921
     0.472464    0.474286    0.474825    0.476186    0.476563    0.477495
     0.477545    0.478230    0.478894    0.478934    0.482396    0.483167
     0.484914    0.484990    0.485583    0.487010    1.338259    1.338906

 Minimum Search - Taking Simple RFO Step
 Searching for Lamda that Minimizes Along All modes
 Value Taken    Lamda =  -0.00081874
 Step Taken.  Stepsize is  0.208312

                             Maximum     Tolerance    Cnvgd?
         Gradient           0.003352      0.000300      NO
         Displacement       0.151945      0.001200      NO
         Energy change     *********      0.000001      NO


 New Cartesian Coordinates Obtained by Inverse Iteration

 Displacement from previous Coordinates is:  2.715763
 Adding empirical dispersion correction 
 ----------------------------------------------------------------
 Doing -D3(BJ) with
 s6 =   1.00000
 s8 =   0.00000
 a1 =   0.48600
 a2 =   4.50000
 -D3 energy including 3body term =     -0.0783395266 hartrees
 ----------------------------------------------------------------
 Adding gCP correction 
 ----------------------------------------------------------------
 gCP energy =      0.1092298116 hartrees
 ----------------------------------------------------------------
             Standard Nuclear Orientation (Angstroms)
    I     Atom           X                Y                Z
 ----------------------------------------------------------------
    1      N      -0.0184254841     0.0385504276    -0.0543684976
    2      C       0.0146204769    -0.0556829460     1.3413489016
    3      C       1.2272543990    -0.1368534851     2.0251675286
    4      H       2.1624612993    -0.1022964510     1.4845449344
    5      C       1.2435948391    -0.2827267754     3.4006919018
    6      H       2.1931595094    -0.3464513576     3.9155924499
    7      C       0.0567382095    -0.3676831270     4.1066747969
    8      H       0.0612845633    -0.4956826445     5.1805720849
    9      C      -1.1454341307    -0.2795674221     3.4223189817
   10      H      -2.0654571443    -0.3394878309     3.9869053649
   11      C      -1.1941222338    -0.1047369460     2.0464567802
   12      C      -1.1300349639    -0.4546477576    -0.7491034558
   13      C      -1.0524993507    -0.8427636953    -2.0883979059
   14      H      -0.1385849872    -0.7305923374    -2.6534716124
   15      C      -2.1526335271    -1.3872269373    -2.7268010404
   16      H      -2.0598607179    -1.6835500863    -3.7636054524
   17      C      -3.3436502814    -1.5591725142    -2.0455332602
   18      H      -4.2025175673    -2.0017429451    -2.5317882215
   19      C      -3.4321739627    -1.1269911393    -0.7320649290
   20      H      -4.3781954865    -1.2291899427    -0.2192266278
   21      C      -2.3560973529    -0.5461807899    -0.0756240200
   22      C       1.2068470236     0.1903732745    -0.7496132527
   23      C       1.7112955319     1.4478742576    -1.0229070647
   24      H       1.1810726225     2.3312713376    -0.6926562944
   25      C       2.9066294109     1.5458260715    -1.7120429304
   26      H       3.3300299147     2.5255273023    -1.8970084194
   27      C       1.8946683128    -0.9313553984    -1.1774753140
   28      H       1.4705375053    -1.8968582227    -0.9374741145
   29      C       3.5860501857     0.4256380172    -2.1838888458
   30      C       3.0572679850    -0.8460563301    -1.9373434513
   31      C       4.9153207568     0.6302833050    -2.8445710777
   32      H       5.1866371295     1.6838087878    -2.7648420892
   33      H       4.8816789720     0.4124098249    -3.9164361362
   34      C      -2.4850671331     0.1202369411     1.2800987600
   35      C      -3.7099605577    -0.3718773793     2.0461934047
   36      H      -3.8139374699     0.1476709437     2.9983707441
   37      H      -4.6246699815    -0.1617746787     1.4923007323
   38      H      -3.6675731990    -1.4438470669     2.2430185802
   39      C       5.9949857636    -0.2234070592    -2.1815579467
   40      H       6.9659736990     0.2623370434    -2.2893508528
   41      H       5.8041421933    -0.2814148505    -1.1064869662
   42      C       6.0788389766    -1.5922132100    -2.7874943206
   43      C       7.3419037428    -2.0378816087    -3.1803331529
   44      H       8.2020188650    -1.4114932289    -2.9833215619
   45      C       7.5348955523    -3.2451950945    -3.8240969524
   46      C       4.9655442816    -2.3985785977    -3.0318504691
   47      C       5.1674424856    -3.6082049801    -3.7013278415
   48      H       4.3223688494    -4.2473097251    -3.9192131907
   49      C       6.4167073147    -4.0403202961    -4.1011302219
   50      C       8.8464813579    -3.6527053376    -4.2051654369
   51      N       9.9107109615    -3.9700182327    -4.5073749707
   52      C       6.5454434403    -5.2866128853    -4.7830849982
   53      N       6.6345734782    -6.2937194926    -5.3327539460
   54      C       3.5124593251    -2.1558553514    -2.6007044111
   55      C       3.1144066641    -3.3447708769    -1.7314729610
   56      C       3.6527942551    -3.7356987558    -0.5222672674
   57      H       4.4669428875    -3.1830409578    -0.0706340871
   58      C       3.1265054257    -4.8553770615     0.1100183537
   59      H       3.5349359111    -5.1773241534     1.0584066300
   60      C       2.0791897451    -5.5675601172    -0.4635797509
   61      H       1.6815792473    -6.4358972297     0.0444957168
   62      C       1.5412115865    -5.1766887811    -1.6795389561
   63      H       0.7257854056    -5.7348006867    -2.1219942070
   64      C       2.0683535242    -4.0611445912    -2.3110019729
   65      C       1.7213473556    -3.4387235778    -3.5818138683
   66      C       0.7564319304    -3.7779253746    -4.5186168203
   67      H       0.0996365579    -4.6236193047    -4.3587683173
   68      C       0.6482642147    -3.0142530419    -5.6707001731
   69      H      -0.0952501690    -3.2660648558    -6.4153390487
   70      C       1.4914460466    -1.9286297802    -5.8799818345
   71      H       1.3962479436    -1.3434491440    -6.7848055718
   72      C       2.4551451447    -1.5876370748    -4.9386445969
   73      H       3.1017623582    -0.7367230512    -5.1088550176
   74      C       2.5650475722    -2.3485793889    -3.7917097734
   75      C      -2.6503044386     1.6345989319     1.0367368790
   76      H      -1.8127897162     2.0470448113     0.4748577010
   77      H      -2.7156337714     2.1701029829     1.9854841454
   78      H      -3.5605124947     1.8274456372     0.4659432612
 ----------------------------------------------------------------
 Nuclear Repulsion Energy =  5576.1217562456 hartrees
 There are      158 alpha and      158 beta electrons
 Discretize the solute cavity surface with Lebedev spheres
	Using 302 Lebedev grid points for each H atom
	Using 302 Lebedev grid points for other atoms
	Atomic van der Waals radii will be scaled by 1.20
 Remove points where switching function is < 1.0e-08
 Keep 8077 surface tesserae and discard 15479 interior tesserae
 Molecular Surface Area = 620.115 Angst**2
 Nucleus-field energy     =     0.0000000036 hartrees
 Requested basis set is def2-mSVP
 There are 391 shells and 767 basis functions
 A cutoff of  1.0D-12 yielded  38009 shell pairs
 There are    152531 function pairs (    168489 Cartesian)
 Smallest overlap matrix eigenvalue = 2.54E-04
 Guess MOs from SCF MO coefficient file

 -----------------------------------------------------------------------
  General SCF calculation program by
  Eric Jon Sundstrom, Paul Horn, Yuezhi Mao, Dmitri Zuev, Alec White,
  David Stuck, Shaama M.S., Shane Yost, Joonho Lee, David Small,
  Daniel Levine, Susi Lehtola, Hugh Burton, Evgeny Epifanovsky
 -----------------------------------------------------------------------
 Exchange:     0.4200 Hartree-Fock + 0.5800 PBEh-3c
 Correlation:  1.0000 PBEh-3c
 Using SG-1 standard quadrature grid
 Dispersion:   Grimme D3
 using 4 threads for integral computing
 -------------------------------------------------------
 OpenMP Integral computing Module                
 Release: version 2.0, May 2017, Q-Chem Inc. Pleasanton 
 -------------------------------------------------------
 -------------------------------------------------------
 OpenMP BLAS3 based DFT computing Module                
 Release: version 1.0, May 2013, Q-Chem Inc. Pittsburgh 
 -------------------------------------------------------
 A restricted SCF calculation will be
 performed using DIIS
 SCF converges when DIIS error is below 1.0e-09
 ---------------------------------------
  Cycle       Energy         DIIS error
 ---------------------------------------
 Using non-symmetric K matrix
    1   -1855.4857444979      6.48e-04  
    2   -1855.5297131292      9.01e-05  
    3   -1855.5312899094      2.97e-05  
    4   -1855.5313192680      2.88e-05  
    5   -1855.5313813914      7.61e-06  
    6   -1855.5313857509      2.45e-06  
    7   -1855.5313862107      8.40e-07  
    8   -1855.5313862614      3.86e-07  
    9   -1855.5313862718      1.09e-07  
   10   -1855.5313862726      3.52e-08  
   11   -1855.5313862727      1.32e-08  
   12   -1855.5313862727      5.53e-09  
   13   -1855.5313862727      1.67e-09  
   14   -1855.5313862727      9.00e-10  Convergence criterion met
 ---------------------------------------
 SCF time:   CPU 6846.81s  wall 1750.00s 

************** Final PCM Free Energy Summary **************
 G_electrostatic  =      -0.00000198 hartree =      -0.00124378 kcal/mol
 G_cavitation     =       0.00000000 hartree =       0.00000000 kcal/mol
 G_dispersion     =       0.00000000 hartree =       0.00000000 kcal/mol
 G_repulsion      =       0.00000000 hartree =       0.00000000 kcal/mol
 --------------------------------------------------
 Non-electrostatic Free Energy =       0.00000000 hartree =       0.00000000 kcal/mol
 Total                         =      -0.00000198 hartree =      -0.00124378 kcal/mol
 --------------------------------------------------
 SCF Energy (H0 + V/2)                       =   -1855.53138627 
 Solute Internal Energy (H0)                 =   -1855.53138429 
 Total Free Energy (H0 + V/2 + non-elec)     =   -1855.53138627 hartree
                                             = -1164363.51862389 kcal/mol
***********************************************************

 SCF   energy in the final basis set =    -1855.5313862727
 Total energy in the final basis set =    -1855.5313862727
 
 --------------------------------------------------------------
 
                    Orbital Energies (a.u.)
 --------------------------------------------------------------
 
 Alpha MOs
 -- Occupied --
-14.681 -14.656 -14.653 -10.521 -10.519 -10.512 -10.506 -10.500
-10.500 -10.497 -10.497 -10.493 -10.492 -10.492 -10.491 -10.487
-10.479 -10.478 -10.475 -10.474 -10.473 -10.472 -10.470 -10.469
-10.468 -10.467 -10.466 -10.466 -10.466 -10.465 -10.465 -10.464
-10.464 -10.463 -10.461 -10.452 -10.451 -10.445 -10.445 -10.443
-10.442 -10.442 -10.440 -10.438 -10.436 -10.431 -10.426  -1.093
 -1.042  -1.029  -1.019  -1.003  -0.988  -0.968  -0.961  -0.958
 -0.938  -0.933  -0.911  -0.898  -0.891  -0.885  -0.858  -0.856
 -0.849  -0.846  -0.835  -0.825  -0.819  -0.809  -0.794  -0.773
 -0.772  -0.747  -0.731  -0.725  -0.715  -0.711  -0.704  -0.692
 -0.682  -0.678  -0.672  -0.672  -0.666  -0.645  -0.619  -0.613
 -0.613  -0.611  -0.596  -0.586  -0.581  -0.573  -0.567  -0.561
 -0.540  -0.539  -0.538  -0.533  -0.529  -0.527  -0.522  -0.521
 -0.517  -0.510  -0.505  -0.504  -0.502  -0.501  -0.498  -0.493
 -0.491  -0.490  -0.487  -0.485  -0.475  -0.470  -0.461  -0.452
 -0.448  -0.445  -0.441  -0.438  -0.437  -0.435  -0.435  -0.429
 -0.427  -0.424  -0.424  -0.422  -0.421  -0.416  -0.414  -0.413
 -0.412  -0.403  -0.400  -0.399  -0.397  -0.395  -0.393  -0.378
 -0.374  -0.366  -0.349  -0.339  -0.321  -0.313  -0.308  -0.303
 -0.299  -0.292  -0.287  -0.282  -0.271  -0.230
 -- Virtual --
 -0.061  -0.038  -0.034  -0.021  -0.007  -0.000   0.015   0.016
  0.019   0.034   0.048   0.049   0.051   0.070   0.083   0.112
  0.113   0.118   0.130   0.132   0.135   0.137   0.148   0.151
  0.152   0.158   0.160   0.163   0.166   0.178   0.180   0.182
  0.189   0.193   0.195   0.196   0.198   0.198   0.202   0.207
  0.212   0.214   0.220   0.222   0.223   0.227   0.229   0.232
  0.233   0.234   0.238   0.241   0.246   0.247   0.250   0.254
  0.257   0.259   0.260   0.263   0.269   0.272   0.275   0.280
  0.283   0.285   0.291   0.296   0.299   0.301   0.308   0.308
  0.311   0.320   0.330   0.331   0.333   0.345   0.352   0.358
  0.363   0.365   0.370   0.375   0.380   0.385   0.391   0.397
  0.400   0.416   0.417   0.422   0.430   0.433   0.444   0.453
  0.460   0.468   0.471   0.473   0.481   0.485   0.492   0.496
  0.500   0.502   0.506   0.509   0.519   0.520   0.526   0.527
  0.531   0.533   0.536   0.539   0.540   0.543   0.545   0.548
  0.552   0.553   0.557   0.559   0.561   0.567   0.568   0.573
  0.575   0.579   0.581   0.586   0.588   0.591   0.593   0.597
  0.601   0.603   0.608   0.608   0.610   0.615   0.617   0.617
  0.621   0.624   0.631   0.633   0.633   0.636   0.641   0.644
  0.645   0.647   0.649   0.653   0.654   0.659   0.660   0.665
  0.671   0.673   0.679   0.679   0.686   0.688   0.693   0.695
  0.696   0.700   0.703   0.711   0.715   0.717   0.718   0.723
  0.726   0.731   0.736   0.740   0.740   0.744   0.747   0.749
  0.754   0.758   0.765   0.770   0.775   0.780   0.789   0.796
  0.800   0.805   0.817   0.822   0.824   0.828   0.839   0.842
  0.849   0.858   0.868   0.875   0.877   0.890   0.895   0.904
  0.908   0.915   0.919   0.923   0.929   0.930   0.938   0.941
  0.943   0.944   0.948   0.954   0.957   0.964   0.966   0.969
  0.972   0.975   0.981   0.983   0.986   0.994   0.994   0.998
  1.000   1.002   1.006   1.012   1.016   1.019   1.025   1.027
  1.030   1.037   1.040   1.045   1.049   1.052   1.055   1.058
  1.059   1.063   1.065   1.070   1.074   1.078   1.082   1.085
  1.090   1.094   1.097   1.102   1.109   1.113   1.120   1.122
  1.129   1.130   1.133   1.138   1.139   1.144   1.149   1.150
  1.154   1.161   1.168   1.174   1.175   1.187   1.194   1.197
  1.205   1.223   1.235   1.236   1.241   1.247   1.257   1.257
  1.259   1.267   1.281   1.287   1.289   1.295   1.301   1.305
  1.308   1.309   1.316   1.326   1.335   1.338   1.343   1.347
  1.349   1.360   1.369   1.371   1.379   1.384   1.389   1.395
  1.412   1.415   1.422   1.435   1.444   1.453   1.458   1.477
  1.488   1.491   1.503   1.508   1.510   1.514   1.521   1.523
  1.527   1.532   1.537   1.539   1.541   1.552   1.556   1.557
  1.559   1.563   1.568   1.572   1.577   1.583   1.586   1.595
  1.599   1.605   1.609   1.610   1.626   1.638   1.642   1.645
  1.657   1.668   1.676   1.690   1.700   1.705   1.726   1.729
  1.735   1.744   1.761   1.763   1.770   1.782   1.795   1.802
  1.803   1.808   1.813   1.830   1.834   1.836   1.842   1.845
  1.846   1.853   1.857   1.865   1.871   1.877   1.882   1.887
  1.898   1.902   1.905   1.922   1.926   1.928   1.932   1.942
  1.948   1.960   1.967   1.969   1.977   1.989   1.991   1.999
  2.002   2.005   2.010   2.020   2.023   2.026   2.031   2.032
  2.038   2.043   2.044   2.061   2.065   2.066   2.078   2.084
  2.089   2.097   2.102   2.116   2.129   2.136   2.137   2.144
  2.149   2.158   2.162   2.163   2.166   2.170   2.173   2.186
  2.194   2.198   2.205   2.206   2.214   2.216   2.227   2.236
  2.240   2.244   2.247   2.256   2.258   2.261   2.267   2.276
  2.278   2.287   2.291   2.297   2.306   2.313   2.315   2.316
  2.323   2.331   2.339   2.347   2.349   2.356   2.358   2.361
  2.365   2.372   2.375   2.379   2.384   2.386   2.393   2.398
  2.412   2.420   2.431   2.436   2.458   2.467   2.472   2.483
  2.503   2.508   2.518   2.530   2.544   2.550   2.562   2.575
  2.586   2.591   2.597   2.605   2.618   2.622   2.635   2.650
  2.660   2.673   2.681   2.693   2.702   2.705   2.713   2.716
  2.726   2.730   2.732   2.738   2.739   2.741   2.755   2.756
  2.761   2.771   2.773   2.774   2.781   2.788   2.798   2.813
  2.817   2.822   2.832   2.837   2.840   2.847   2.860   2.861
  2.876   2.882   2.891   2.895   2.904   2.913   2.917   2.928
  2.947   2.975   2.983   2.989   2.999   3.001   3.016   3.030
  3.038   3.042   3.077   3.094   3.157   3.223   3.268   3.328
  3.363   3.370   3.381   3.391   3.410   3.498   3.548   3.560
  3.590   3.678  13.191  13.247  13.262  13.325  13.368  13.408
 13.630  13.661  13.662  13.711  13.725  13.732  13.757  13.766
 13.771  13.802  13.818  13.832  13.896  13.911  13.933  14.023
 14.063  14.077  14.122  14.168  14.178  14.189  14.195  14.217
 14.231  14.245  14.250  14.255  14.262  14.296  14.312  14.396
 14.575  14.579  14.586  14.588  14.607  14.620  19.495  19.566
 19.635
 --------------------------------------------------------------
 
          Ground-State Mulliken Net Atomic Charges

     Atom                 Charge (a.u.)
  ----------------------------------------
      1 N                    -0.698585
      2 C                     0.314176
      3 C                    -0.285853
      4 H                     0.240104
      5 C                    -0.235508
      6 H                     0.214438
      7 C                    -0.218634
      8 H                     0.212589
      9 C                    -0.324084
     10 H                     0.212333
     11 C                     0.169600
     12 C                     0.315870
     13 C                    -0.296796
     14 H                     0.258706
     15 C                    -0.232822
     16 H                     0.218116
     17 C                    -0.222109
     18 H                     0.210384
     19 C                    -0.318791
     20 H                     0.212239
     21 C                     0.151697
     22 C                     0.210857
     23 C                    -0.238252
     24 H                     0.234481
     25 C                    -0.302889
     26 H                     0.218289
     27 C                    -0.285914
     28 H                     0.283521
     29 C                     0.087235
     30 C                     0.189687
     31 C                    -0.534591
     32 H                     0.251086
     33 H                     0.248281
     34 C                    -0.232108
     35 C                    -0.663013
     36 H                     0.227356
     37 H                     0.227260
     38 H                     0.239554
     39 C                    -0.524462
     40 H                     0.248755
     41 H                     0.259259
     42 C                     0.080965
     43 C                    -0.322100
     44 H                     0.246683
     45 C                     0.078976
     46 C                     0.246452
     47 C                    -0.274008
     48 H                     0.280639
     49 C                     0.078005
     50 C                    -0.007186
     51 N                    -0.154382
     52 C                    -0.008407
     53 N                    -0.154860
     54 C                    -0.435140
     55 C                     0.062232
     56 C                    -0.262233
     57 H                     0.219505
     58 C                    -0.225850
     59 H                     0.229311
     60 C                    -0.212644
     61 H                     0.230367
     62 C                    -0.320968
     63 H                     0.214616
     64 C                     0.156197
     65 C                     0.137570
     66 C                    -0.316977
     67 H                     0.214791
     68 C                    -0.222600
     69 H                     0.229524
     70 C                    -0.223784
     71 H                     0.228804
     72 C                    -0.277981
     73 H                     0.218771
     74 C                     0.143912
     75 C                    -0.592295
     76 H                     0.232245
     77 H                     0.219485
     78 H                     0.220904
  ----------------------------------------
  Sum of atomic charges =     0.000000

 -----------------------------------------------------------------
                    Cartesian Multipole Moments
 -----------------------------------------------------------------
    Charge (ESU x 10^10)
                 0.0000
    Dipole Moment (Debye)
         X      -4.7898      Y       5.1961      Z       2.8736
       Tot       7.6288
    Quadrupole Moments (Debye-Ang)
        XX    -324.7756     XY      64.1266     YY    -298.6831
        XZ      44.4795     YZ     -37.2679     ZZ    -280.6300
    Octopole Moments (Debye-Ang^2)
       XXX   -2471.5769    XXY    1016.8878    XYY    -918.8732
       YYY    1631.4210    XXZ     908.9101    XYZ    -376.5113
       YYZ     671.3148    XZZ    -850.5405    YZZ     657.6757
       ZZZ    1427.0974
    Hexadecapole Moments (Debye-Ang^3)
      XXXX  -34308.3523   XXXY   10704.1650   XXYY   -9352.8802
      XYYY    7834.6599   YYYY  -13352.0900   XXXZ   11219.5787
      XXYZ   -4432.2104   XYYZ    4333.4655   YYYZ   -6083.3616
      XXZZ   -9343.1681   XYZZ    3780.5652   YYZZ   -5847.7547
      XZZZ    8266.6093   YZZZ   -5536.2542   ZZZZ  -15047.5589
 -----------------------------------------------------------------
 Calculating analytic gradient of the SCF energy
 -1.381950770031245E-003 -1.381941644404848E-003
 -1.381945423415781E-003 -1.381947000156041E-003
 -1.381932324332842E-003 -1.381960092719408E-003
 -1.381981166203448E-003 -1.381911234267337E-003
 -1.381936729880430E-003 -1.381955721383105E-003
 -1.381935730791222E-003 -1.381956689114926E-003
 -1.381944914775045E-003 -1.381947496445641E-003
 -1.381943135991959E-003 -1.381949308849407E-003
 -1.381913911757365E-003 -1.381978497044520E-003
 -1.381956071131598E-003 -1.381936334940284E-003
 -1.381951873946989E-003 -1.381940557856746E-003
 -1.381933708606492E-003 -1.381958709964110E-003
 -1.381960091982868E-003 -1.381932291527747E-003
 -1.381937219437891E-003 -1.381955229766965E-003
 -1.381939085858724E-003 -1.381953350238623E-003
 -1.381944113123254E-003 -1.381948296534823E-003
 -1.381940360565013E-003 -1.381952058850186E-003
 -1.381919661856989E-003 -1.381972748403334E-003
 -1.381925150684612E-003 -1.381967277404566E-003
 -1.381937534183704E-003 -1.381954922143801E-003
 -1.381908523005018E-003 -1.381983889676391E-003
 -1.381946670103830E-003 -1.381945761189825E-003
 -1.381933483846132E-003 -1.381958960503034E-003
 -1.381939466458720E-003 -1.381952975007459E-003
 -1.381973592591271E-003 -1.381918793982723E-003
 -1.381931303353989E-003 -1.381961155057696E-003
 -1.381942848246538E-003 -1.381949588344627E-003
 -1.381933626128421E-003 -1.381958770393389E-003
 -1.381931538902919E-003 -1.381960906482092E-003
 -1.381934483471399E-003 -1.381957956830818E-003
 -1.381936464870647E-003 -1.381955959463649E-003
 -1.381933041297341E-003 -1.381959420833921E-003
 -1.381943238215990E-003 -1.381949171550280E-003
 -1.381971201882520E-003 -1.381921202389193E-003
 -1.381941730616849E-003 -1.381950712164935E-003
 -1.381918449322744E-003 -1.381973964892148E-003
 -1.381953186109353E-003 -1.381939235549214E-003
 -1.381964511573380E-003 -1.381927926937700E-003
 -1.381950487737023E-003 -1.381941916112579E-003
 -1.381948239437023E-003 -1.381944183750241E-003
 -1.381973285578907E-003 -1.381919144306834E-003
 -1.381938597982164E-003 -1.381953808447082E-003
 -1.381967046113565E-003 -1.381925367438884E-003
 -1.381953008018592E-003 -1.381939435192272E-003
 -1.381937349996963E-003 -1.381955059614763E-003
 -1.381965865348364E-003 -1.381926531507834E-003
 -1.381955875820815E-003 -1.381936550980065E-003
 -1.381956947023636E-003 -1.381935476488531E-003
 -1.381968839178890E-003 -1.381923602144367E-003
[...]
     44  H         8.1911997830   -1.4117644210   -3.0027472904
     45  C         7.5216941536   -3.2679594563   -3.7896901360
     46  C         4.9529242439   -2.3947635728   -3.0238128456
     47  C         5.1534864330   -3.6217723276   -3.6611765237
     48  H         4.3071826744   -4.2647628535   -3.8622706804
     49  C         6.4023683367   -4.0678493942   -4.0468181496
     50  C         8.8335371079   -3.6870898811   -4.1565717787
     51  N         9.9002411872   -4.0087272494   -4.4451838927
     52  C         6.5279770206   -5.3329632519   -4.6937280214
     53  N         6.6090513067   -6.3556452359   -5.2151511976
     54  C         3.5006008413   -2.1446153734   -2.5933313089
     55  C         3.1048312366   -3.3235293962   -1.7078329806
     56  C         3.6372452400   -3.6965023711   -0.4907043087
     57  H         4.4480515535   -3.1363608380   -0.0422983987
     58  C         3.1081703449   -4.8070035869    0.1554808640
     59  H         3.5113276710   -5.1126291044    1.1114838421
     60  C         2.0659149445   -5.5306104341   -0.4132565974
     61  H         1.6672200106   -6.3919482260    0.1056664878
     62  C         1.5343846657   -5.1587486957   -1.6382710899
     63  H         0.7219646385   -5.7236534413   -2.0775516462
     64  C         2.0626593918   -4.0508710476   -2.2818324439
     65  C         1.7112502788   -3.4402708921   -3.5572269519
     66  C         0.7389533154   -3.7826134006   -4.4848257393
     67  H         0.0805220878   -4.6254362631   -4.3164924595
     68  C         0.6224096044   -3.0238287237   -5.6393982293
     69  H        -0.1278727770   -3.2783575450   -6.3762961737
     70  C         1.4651461727   -1.9402959539   -5.8614357855
     71  H         1.3642619315   -1.3599778264   -6.7688601392
     72  C         2.4360348017   -1.5955137620   -4.9289181934
     73  H         3.0831675771   -0.7458900246   -5.1065397326
     74  C         2.5521354157   -2.3507148614   -3.7787983513
     75  C        -2.6521153036    1.6062320790    1.0957693098
     76  H        -1.8185316319    2.0475323696    0.5500606823
     77  H        -2.7213318358    2.1033627720    2.0650041795
     78  H        -3.5648167821    1.8145464139    0.5342574365

Z-matrix Print:
$molecule
0 1
N 
C  1 1.400779
C  2 1.394389 1 121.132486
H  3 1.080649 2 120.417420 1 1.636072 0
C  3 1.383774 2 120.248885 1 -177.595806 0
H  5 1.082100 3 119.293192 2 179.785114 0
C  5 1.383333 3 120.278872 2 0.665382 0
H  7 1.081546 5 120.701821 3 179.112783 0
C  7 1.386107 5 119.201278 3 -1.443499 0
H  9 1.081088 7 118.507693 5 -179.146877 0
C  9 1.387793 7 121.850824 5 0.062825 0
C  1 1.401917 2 119.013278 3 152.324202 0
C  12 1.396229 1 121.727339 2 -154.872834 0
H  13 1.080088 12 121.186386 1 -3.066099 0
C  13 1.383748 12 120.469118 1 176.562203 0
H  15 1.082230 13 118.881834 12 -179.334920 0
C  15 1.382980 13 120.386959 12 -0.044970 0
H  17 1.081712 15 120.815953 13 -178.925271 0
C  17 1.385727 15 118.977980 13 2.330854 0
H  19 1.080919 17 118.461510 15 177.964981 0
C  19 1.388189 17 121.911267 15 -0.974039 0
C  1 1.418415 2 118.438815 3 -2.701546 0
C  22 1.381231 1 120.786246 2 -94.618091 0
H  23 1.081890 22 120.228620 1 1.802052 0
C  23 1.383494 22 118.513573 1 -178.648761 0
H  25 1.083102 23 119.151162 22 -178.156072 0
C  22 1.383942 1 119.430960 2 87.321692 0
H  27 1.081548 22 117.205289 1 -1.408456 0
C  27 1.391295 22 122.346669 1 175.520520 0
C  25 1.392306 23 122.215116 22 2.394296 0
C  30 1.497865 25 118.231203 23 -176.932641 0
H  31 1.090773 30 108.818190 25 4.001432 0
H  31 1.094296 30 112.072023 25 -112.667913 0
C  21 1.515674 19 122.990346 17 171.376220 0
C  34 1.526197 21 112.164767 19 21.359894 0
H  35 1.089449 34 111.080078 21 -177.789911 0
H  35 1.089646 34 110.928544 21 -60.440494 0
H  35 1.090688 34 112.096895 21 60.748237 0
C  31 1.527676 30 110.891927 25 124.507772 0
H  39 1.091115 31 109.734106 30 -151.504602 0
H  39 1.093580 31 109.465035 30 -35.563009 0
C  39 1.499140 31 111.947341 30 88.069820 0
C  42 1.395504 39 117.025677 31 130.483874 0
H  43 1.082184 42 118.904405 39 3.660754 0
C  43 1.381927 42 122.484383 39 -175.677414 0
C  42 1.396846 39 123.710813 31 -46.000505 0
C  46 1.397143 42 117.922231 39 174.351886 0
H  47 1.081714 46 119.638797 42 -178.944340 0
C  47 1.381090 46 122.741499 42 1.509112 0
C  45 1.425203 43 120.132047 42 179.986495 0
N  50 1.150915 45 179.009726 43 1.495811 0
C  49 1.426458 47 119.519263 46 -179.984445 0
N  52 1.150797 49 178.985828 47 2.892036 0
C  46 1.535295 42 128.008846 39 -8.779113 0
C  54 1.526623 46 106.382570 42 -121.052125 0
C  55 1.379846 54 128.341157 46 63.421498 0
H  56 1.082697 55 120.959320 54 -0.526404 0
C  56 1.389492 55 118.640906 54 179.234306 0
H  58 1.081612 56 119.666276 55 -179.848737 0
C  58 1.390455 56 120.738128 55 0.167162 0
H  60 1.081731 58 119.632592 56 -179.967013 0
C  60 1.386170 58 120.616940 56 0.066385 0
H  62 1.082641 60 120.420698 58 -179.915776 0
C  62 1.385871 60 118.598752 58 -0.075037 0
C  64 1.457035 62 130.508132 60 179.854385 0
C  65 1.386722 64 130.629971 62 0.827848 0
H  66 1.082690 65 120.969087 64 0.409842 0
C  66 1.386497 65 118.741168 64 -179.574215 0
H  68 1.082001 66 119.780368 65 179.759995 0
C  68 1.390521 66 120.562122 65 -0.008407 0
H  70 1.081834 68 119.697017 66 179.780806 0
C  70 1.389636 68 120.637976 66 -0.214525 0
H  72 1.082678 70 120.146533 68 -179.551339 0
C  72 1.380791 70 118.815688 68 0.192330 0
C  34 1.542614 21 107.465865 19 -97.279778 0
H  75 1.089681 34 111.710115 21 -57.778247 0
H  75 1.091488 34 110.590087 21 -178.082446 0
H  75 1.091657 34 110.230112 21 61.974486 0
$end

 
 --------------------------------------------------------------
 
                    Orbital Energies (a.u.)
 --------------------------------------------------------------
 
 Alpha MOs
 -- Occupied --
-14.681 -14.656 -14.653 -10.521 -10.519 -10.512 -10.506 -10.500
-10.500 -10.497 -10.497 -10.493 -10.492 -10.491 -10.491 -10.487
-10.479 -10.478 -10.475 -10.474 -10.473 -10.472 -10.470 -10.469
-10.468 -10.467 -10.466 -10.466 -10.465 -10.465 -10.465 -10.464
-10.464 -10.463 -10.462 -10.452 -10.451 -10.445 -10.444 -10.443
-10.443 -10.442 -10.440 -10.438 -10.436 -10.431 -10.426  -1.093
 -1.041  -1.029  -1.019  -1.003  -0.988  -0.968  -0.961  -0.958
 -0.938  -0.933  -0.911  -0.898  -0.891  -0.885  -0.858  -0.856
 -0.849  -0.845  -0.835  -0.825  -0.819  -0.809  -0.794  -0.773
 -0.772  -0.747  -0.731  -0.725  -0.715  -0.710  -0.703  -0.691
 -0.682  -0.678  -0.672  -0.672  -0.666  -0.645  -0.619  -0.613
 -0.612  -0.611  -0.596  -0.586  -0.580  -0.573  -0.567  -0.561
 -0.540  -0.539  -0.538  -0.533  -0.528  -0.527  -0.521  -0.521
 -0.517  -0.510  -0.505  -0.504  -0.502  -0.501  -0.498  -0.493
 -0.491  -0.490  -0.487  -0.485  -0.475  -0.470  -0.461  -0.452
 -0.448  -0.445  -0.441  -0.438  -0.437  -0.435  -0.434  -0.429
 -0.427  -0.424  -0.424  -0.422  -0.420  -0.416  -0.414  -0.413
 -0.412  -0.403  -0.400  -0.399  -0.397  -0.395  -0.393  -0.377
 -0.374  -0.366  -0.349  -0.339  -0.321  -0.313  -0.308  -0.302
 -0.299  -0.292  -0.287  -0.282  -0.270  -0.231
 -- Virtual --
 -0.061  -0.038  -0.034  -0.021  -0.007  -0.000   0.015   0.017
  0.019   0.034   0.048   0.049   0.050   0.070   0.083   0.112
  0.113   0.118   0.130   0.133   0.135   0.137   0.149   0.151
  0.152   0.157   0.160   0.164   0.167   0.179   0.180   0.182
  0.189   0.193   0.195   0.197   0.198   0.198   0.202   0.206
  0.212   0.214   0.220   0.222   0.223   0.227   0.229   0.232
  0.233   0.234   0.238   0.241   0.246   0.247   0.250   0.254
  0.257   0.258   0.260   0.263   0.269   0.272   0.274   0.280
  0.283   0.285   0.291   0.296   0.299   0.302   0.307   0.308
  0.311   0.320   0.330   0.332   0.334   0.345   0.352   0.358
  0.363   0.365   0.371   0.375   0.379   0.385   0.391   0.397
  0.400   0.416   0.417   0.422   0.430   0.432   0.444   0.453
  0.460   0.468   0.472   0.473   0.481   0.486   0.491   0.495
  0.499   0.502   0.506   0.510   0.519   0.520   0.526   0.527
  0.532   0.533   0.536   0.539   0.541   0.542   0.545   0.550
  0.552   0.553   0.558   0.559   0.562   0.566   0.568   0.573
  0.575   0.579   0.582   0.585   0.588   0.591   0.593   0.597
  0.601   0.603   0.608   0.609   0.610   0.615   0.617   0.617
  0.621   0.623   0.632   0.633   0.634   0.636   0.642   0.644
  0.646   0.647   0.648   0.654   0.655   0.659   0.661   0.665
  0.671   0.673   0.679   0.680   0.686   0.688   0.693   0.696
  0.697   0.701   0.703   0.712   0.715   0.717   0.719   0.723
  0.727   0.732   0.735   0.740   0.741   0.744   0.747   0.749
  0.754   0.758   0.765   0.770   0.775   0.779   0.791   0.796
  0.800   0.805   0.816   0.822   0.823   0.829   0.838   0.843
  0.848   0.860   0.868   0.876   0.876   0.890   0.896   0.904
  0.909   0.917   0.918   0.923   0.929   0.930   0.938   0.941
  0.945   0.945   0.948   0.954   0.958   0.963   0.966   0.970
  0.973   0.976   0.982   0.982   0.986   0.993   0.995   0.999
  1.000   1.001   1.006   1.012   1.016   1.018   1.026   1.027
  1.029   1.037   1.041   1.046   1.049   1.052   1.056   1.059
  1.059   1.063   1.065   1.070   1.075   1.077   1.081   1.086
  1.091   1.093   1.098   1.102   1.111   1.114   1.119   1.121
  1.129   1.130   1.133   1.137   1.138   1.143   1.149   1.150
  1.155   1.160   1.168   1.176   1.178   1.185   1.194   1.195
  1.207   1.223   1.235   1.237   1.241   1.246   1.258   1.259
  1.259   1.267   1.281   1.286   1.290   1.295   1.300   1.303
  1.308   1.310   1.315   1.327   1.334   1.339   1.342   1.344
  1.351   1.361   1.367   1.371   1.379   1.387   1.388   1.396
  1.411   1.414   1.422   1.437   1.444   1.454   1.459   1.477
  1.488   1.491   1.501   1.507   1.511   1.515   1.522   1.523
  1.527   1.532   1.536   1.539   1.542   1.551   1.556   1.557
  1.560   1.563   1.568   1.572   1.576   1.583   1.585   1.595
  1.599   1.605   1.608   1.610   1.626   1.639   1.642   1.645
  1.657   1.668   1.678   1.690   1.700   1.706   1.727   1.729
  1.735   1.744   1.761   1.764   1.770   1.784   1.795   1.802
  1.804   1.807   1.813   1.830   1.835   1.836   1.842   1.845
  1.847   1.853   1.857   1.865   1.872   1.878   1.882   1.887
  1.898   1.902   1.905   1.922   1.927   1.929   1.930   1.939
  1.949   1.959   1.968   1.969   1.978   1.989   1.991   2.001
  2.003   2.005   2.010   2.020   2.023   2.027   2.031   2.032
  2.038   2.044   2.044   2.062   2.066   2.067   2.078   2.084
  2.090   2.098   2.102   2.116   2.128   2.136   2.137   2.144
  2.148   2.158   2.162   2.163   2.165   2.170   2.174   2.186
  2.195   2.199   2.205   2.207   2.214   2.216   2.227   2.236
  2.241   2.245   2.247   2.256   2.258   2.262   2.267   2.276
  2.279   2.287   2.291   2.297   2.306   2.313   2.315   2.317
  2.323   2.331   2.340   2.347   2.350   2.356   2.357   2.361
  2.365   2.372   2.375   2.379   2.383   2.386   2.393   2.397
  2.412   2.420   2.431   2.437   2.458   2.466   2.470   2.482
  2.504   2.509   2.518   2.532   2.546   2.553   2.562   2.573
  2.588   2.590   2.595   2.605   2.619   2.622   2.635   2.650
  2.661   2.672   2.680   2.693   2.702   2.705   2.713   2.716
  2.727   2.731   2.732   2.738   2.740   2.741   2.755   2.756
  2.761   2.771   2.772   2.774   2.781   2.787   2.798   2.812
  2.817   2.822   2.832   2.838   2.841   2.847   2.860   2.861
  2.877   2.882   2.892   2.895   2.905   2.912   2.917   2.926
  2.948   2.976   2.984   2.990   2.999   3.003   3.017   3.030
  3.037   3.040   3.077   3.096   3.159   3.221   3.266   3.329
  3.362   3.371   3.381   3.390   3.410   3.499   3.547   3.558
  3.590   3.678  13.191  13.248  13.262  13.325  13.368  13.408
 13.630  13.662  13.662  13.711  13.726  13.732  13.757  13.767
 13.772  13.801  13.818  13.833  13.896  13.911  13.933  14.022
 14.064  14.077  14.122  14.169  14.178  14.188  14.195  14.217
 14.230  14.245  14.250  14.255  14.263  14.296  14.313  14.396
 14.575  14.579  14.586  14.588  14.607  14.620  19.496  19.565
 19.638
 --------------------------------------------------------------
 
          Ground-State Mulliken Net Atomic Charges

     Atom                 Charge (a.u.)
  ----------------------------------------
      1 N                    -0.692085
      2 C                     0.314487
      3 C                    -0.286409
      4 H                     0.239818
      5 C                    -0.234979
      6 H                     0.214424
      7 C                    -0.218766
      8 H                     0.212548
      9 C                    -0.323575
     10 H                     0.212524
     11 C                     0.168029
     12 C                     0.311703
     13 C                    -0.294210
     14 H                     0.258528
     15 C                    -0.233274
     16 H                     0.218485
     17 C                    -0.221454
     18 H                     0.210346
     19 C                    -0.320537
     20 H                     0.212536
     21 C                     0.154779
     22 C                     0.202774
     23 C                    -0.240514
     24 H                     0.234345
     25 C                    -0.303805
     26 H                     0.218005
     27 C                    -0.280067
     28 H                     0.282781
     29 C                     0.086710
     30 C                     0.191269
     31 C                    -0.536735
     32 H                     0.251369
     33 H                     0.248488
     34 C                    -0.233059
     35 C                    -0.663730
     36 H                     0.227598
     37 H                     0.227546
     38 H                     0.239169
     39 C                    -0.523108
     40 H                     0.248630
     41 H                     0.259776
     42 C                     0.081330
     43 C                    -0.321544
     44 H                     0.246969
     45 C                     0.078719
     46 C                     0.246761
     47 C                    -0.273545
     48 H                     0.281205
     49 C                     0.077699
     50 C                    -0.007329
     51 N                    -0.154539
     52 C                    -0.008680
     53 N                    -0.154959
     54 C                    -0.437511
     55 C                     0.063411
     56 C                    -0.262950
     57 H                     0.219612
     58 C                    -0.225459
     59 H                     0.229262
     60 C                    -0.212596
     61 H                     0.230281
     62 C                    -0.321093
     63 H                     0.214565
     64 C                     0.155177
     65 C                     0.138873
     66 C                    -0.317187
     67 H                     0.214571
     68 C                    -0.222341
     69 H                     0.229358
     70 C                    -0.224632
     71 H                     0.228645
     72 C                    -0.277771
     73 H                     0.218877
     74 C                     0.145885
     75 C                    -0.592980
     76 H                     0.233390
     77 H                     0.219530
     78 H                     0.220635
  ----------------------------------------
  Sum of atomic charges =     0.000000

 -----------------------------------------------------------------
                    Cartesian Multipole Moments
 -----------------------------------------------------------------
    Charge (ESU x 10^10)
                 0.0000
    Dipole Moment (Debye)
         X      -4.8230      Y       5.2459      Z       2.7304
       Tot       7.6313
    Quadrupole Moments (Debye-Ang)
        XX    -324.8106     XY      65.2748     YY    -299.7886
        XZ      43.0136     YZ     -37.5371     ZZ    -278.9826
    Octopole Moments (Debye-Ang^2)
       XXX   -2468.5387    XXY    1020.5989    XYY    -926.7132
       YYY    1642.7831    XXZ     893.6380    XYZ    -372.4257
       YYZ     671.4704    XZZ    -835.8704    YZZ     649.3697
       ZZZ    1410.9368
    Hexadecapole Moments (Debye-Ang^3)
      XXXX  -34141.1973   XXXY   10732.9062   XXYY   -9382.1767
      XYYY    7902.5896   YYYY  -13462.4508   XXXZ   11017.7695
      XXYZ   -4368.0582   XYYZ    4297.7009   YYYZ   -6019.7645
      XXZZ   -9167.8643   XYZZ    3721.0057   YYZZ   -5792.4052
      XZZZ    8088.5588   YZZZ   -5406.4199   ZZZZ  -14835.1451
 -----------------------------------------------------------------
Archival summary:
1\1\ctcp027\OPT\ProcedureUnspecified\BasisUnspecified\34431\mewes\WedJan921:25:242019WedJan921:25:242019\0\\#,OPT,ProcedureUnspecified,BasisUnspecified,\\0,1\N\C,1,1.40078\C,2,1.39439,1,121.132\H,3,1.08065,2,120.417,1,1.63607,0\C,3,1.38377,2,120.249,1,-177.596,0\H,5,1.0821,3,119.293,2,179.785,0\C,5,1.38333,3,120.279,2,0.665382,0\H,7,1.08155,5,120.702,3,179.113,0\C,7,1.38611,5,119.201,3,-1.4435,0\H,9,1.08109,7,118.508,5,-179.147,0\C,9,1.38779,7,121.851,5,0.0628249,0\C,1,1.40192,2,119.013,3,152.324,0\C,12,1.39623,1,121.727,2,-154.873,0\H,13,1.08009,12,121.186,1,-3.0661,0\C,13,1.38375,12,120.469,1,176.562,0\H,15,1.08223,13,118.882,12,-179.335,0\C,15,1.38298,13,120.387,12,-0.0449702,0\H,17,1.08171,15,120.816,13,-178.925,0\C,17,1.38573,15,118.978,13,2.33085,0\H,19,1.08092,17,118.462,15,177.965,0\C,19,1.38819,17,121.911,15,-0.974039,0\C,1,1.41842,2,118.439,3,-2.70155,0\C,22,1.38123,1,120.786,2,-94.6181,0\H,23,1.08189,22,120.229,1,1.80205,0\C,23,1.38349,22,118.514,1,-178.649,0\H,25,1.0831,23,119.151,22,-178.156,0\C,22,1.38394,1,119.431,2,87.3217,0\H,27,1.08155,22,117.205,1,-1.40846,0\C,27,1.3913,22,122.347,1,175.521,0\C,25,1.39231,23,122.215,22,2.3943,0\C,30,1.49786,25,118.231,23,-176.933,0\H,31,1.09077,30,108.818,25,4.00143,0\H,31,1.0943,30,112.072,25,-112.668,0\C,21,1.51567,19,122.99,17,171.376,0\C,34,1.5262,21,112.165,19,21.3599,0\H,35,1.08945,34,111.08,21,-177.79,0\H,35,1.08965,34,110.929,21,-60.4405,0\H,35,1.09069,34,112.097,21,60.7482,0\C,31,1.52768,30,110.892,25,124.508,0\H,39,1.09111,31,109.734,30,-151.505,0\H,39,1.09358,31,109.465,30,-35.563,0\C,39,1.49914,31,111.947,30,88.0698,0\C,42,1.3955,39,117.026,31,130.484,0\H,43,1.08218,42,118.904,39,3.66075,0\C,43,1.38193,42,122.484,39,-175.677,0\C,42,1.39685,39,123.711,31,-46.0005,0\C,46,1.39714,42,117.922,39,174.352,0\H,47,1.08171,46,119.639,42,-178.944,0\C,47,1.38109,46,122.741,42,1.50911,0\C,45,1.4252,43,120.132,42,179.986,0\N,50,1.15091,45,179.01,43,1.49581,0\C,49,1.42646,47,119.519,46,-179.984,0\N,52,1.1508,49,178.986,47,2.89204,0\C,46,1.5353,42,128.009,39,-8.77911,0\C,54,1.52662,46,106.383,42,-121.052,0\C,55,1.37985,54,128.341,46,63.4215,0\H,56,1.0827,55,120.959,54,-0.526404,0\C,56,1.38949,55,118.641,54,179.234,0\H,58,1.08161,56,119.666,55,-179.849,0\C,58,1.39046,56,120.738,55,0.167162,0\H,60,1.08173,58,119.633,56,-179.967,0\C,60,1.38617,58,120.617,56,0.0663849,0\H,62,1.08264,60,120.421,58,-179.916,0\C,62,1.38587,60,118.599,58,-0.0750369,0\C,64,1.45704,62,130.508,60,179.854,0\C,65,1.38672,64,130.63,62,0.827848,0\H,66,1.08269,65,120.969,64,0.409842,0\C,66,1.3865,65,118.741,64,-179.574,0\H,68,1.082,66,119.78,65,179.76,0\C,68,1.39052,66,120.562,65,-0.00840692,0\H,70,1.08183,68,119.697,66,179.781,0\C,70,1.38964,68,120.638,66,-0.214525,0\H,72,1.08268,70,120.147,68,-179.551,0\C,72,1.38079,70,118.816,68,0.19233,0\C,34,1.54261,21,107.466,19,-97.2798,0\H,75,1.08968,34,111.71,21,-57.7782,0\H,75,1.09149,34,110.59,21,-178.082,0\H,75,1.09166,34,110.23,21,61.9745,0\\\@

 Total job time:  16750.27s(wall), 62644.73s(cpu) 
 Wed Jan  9 21:25:24 2019

        *************************************************************
        *                                                           *
        *  Thank you very much for using Q-Chem.  Have a nice day.  *
        *                                                           *
        *************************************************************


0 sent ACK to 0 
now end server 0 ... 
