mFile = /cm/shared/apps/q-chem/intel/QCHEM_5.1.0_Trunk/bin/mpi/machines
Process 0 of 1 is on ctcp005 - thread support 0
initial socket setup ...start
initial socket setup ...done 
now start server 0 ... 
Q-Chem Developer Version!
                  Welcome to Q-Chem
     A Quantum Leap Into The Future Of Chemistry


 Q-Chem 5.1, Q-Chem, Inc., Pleasanton, CA (2018)

 Yihan Shao,  Zhengting Gan,  E. Epifanovsky,  A. T. B. Gilbert,  M. Wormit,  
 J. Kussmann,  A. W. Lange,  A. Behn,  Jia Deng,  Xintian Feng,  D. Ghosh,  
 M. Goldey,  P. R. Horn,  L. D. Jacobson,  I. Kaliman,  T. Kus,  A. Landau,  
 Jie Liu,  E. I. Proynov,  R. M. Richard,  R. P. Steele,  E. J. Sundstrom,  
 H. L. Woodcock III,  P. M. Zimmerman,  D. Zuev,  B. Albrecht,  E. Alguire,  
 S. A. Baeppler,  D. Barton,  Z. Benda,  Y. A. Bernard,  E. J. Berquist,  
 K. B. Bravaya,  H. Burton,  D. Casanova,  Chun-Min Chang,  Yunqing Chen,  
 A. Chien,  K. D. Closser,  M. P. Coons,  S. Coriani,  S. Dasgupta,  
 A. L. Dempwolff,  M. Diedenhofen,  Hainam Do,  R. G. Edgar,  Po-Tung Fang,  
 S. Faraji,  S. Fatehi,  Qingguo Feng,  K. D. Fenk,  J. Fosso-Tande,  
 Qinghui Ge,  A. Ghysels,  G. Gidofalvi,  J. Gomes,  J. Gonthier,  A. Gunina,  
 D. Hait,  M. W. D. Hanson-Heine,  P. H. P. Harbach,  A. W. Hauser,  
 J. E. Herr,  E. G. Hohenstein,  Z. C. Holden,  Kerwin Hui,  B. C. Huynh,  
 T.-C. Jagau,  Hyunjun Ji,  B. Kaduk,  K. Khistyaev,  Jaehoon Kim,  
 P. Klunzinger,  K. Koh,  D. Kosenkov,  L. Koulias,  T. Kowalczyk,  
 C. M. Krauter,  A. Kunitsa,  Ka Un Lao,  A. Laurent,  K. V. Lawler,  
 Joonho Lee,  D. Lefrancois,  S. Lehtola,  D. S. Levine,  Yi-Pei Li,  
 You-Sheng Lin,  Fenglai Liu,  E. Livshits,  A. Luenser,  P. Manohar,  
 E. Mansoor,  S. F. Manzer,  Shan-Ping Mao,  Yuezhi Mao,  N. Mardirossian,  
 A. V. Marenich,  T. Markovich,  L. A. Martinez-Martinez,  S. A. Maurer,  
 N. J. Mayhall,  S. C. McKenzie,  J.-M. Mewes,  A. F. Morrison,  
 J. W. Mullinax,  K. Nanda,  T. S. Nguyen-Beck,  R. Olivares-Amaya,  
 J. A. Parkhill,  T. M. Perrine,  F. Plasser,  P. Pokhilko,  S. Prager,  
 A. Prociuk,  E. Ramos,  D. R. Rehn,  F. Rob,  M. Schneider,  N. Sergueev,  
 S. M. Sharada,  S. Sharma,  D. W. Small,  T. Stauch,  T. Stein,  
 Yu-Chuan Su,  A. J. W. Thom,  A. Tkatchenko,  T. Tsuchimochi,  N. M. Tubman,  
 L. Vogt,  M. L. Vidal,  O. Vydrov,  M. A. Watson,  J. Wenzel,  
 M. de Wergifosse,  T. A. Wesolowski,  A. White,  J. Witte,  A. Yamada,  
 Jun Yang,  K. Yao,  S. Yeganeh,  S. R. Yost,  Zhi-Qiang You,  A. Zech,  
 Igor Ying Zhang,  Xing Zhang,  Yan Zhao,  Ying Zhu,  B. R. Brooks,  
 G. K. L. Chan,  C. J. Cramer,  M. S. Gordon,  W. J. Hehre,  A. Klamt,  
 M. W. Schmidt,  C. D. Sherrill,  D. G. Truhlar,  A. Aspuru-Guzik,  R. Baer,  
 A. T. Bell,  N. A. Besley,  Jeng-Da Chai,  A. E. DePrince, III,  
 R. A. DiStasio Jr.,  A. Dreuw,  B. D. Dunietz,  T. R. Furlani,  
 Chao-Ping Hsu,  Yousung Jung,  Jing Kong,  D. S. Lambrecht,  WanZhen Liang,  
 C. Ochsenfeld,  V. A. Rassolov,  L. V. Slipchenko,  J. E. Subotnik,  
 T. Van Voorhis,  J. M. Herbert,  A. I. Krylov,  P. M. W. Gill,  M. Head-Gordon

 Contributors to earlier versions of Q-Chem not listed above: 
 R. D. Adamson,  B. Austin,  J. Baker,  G. J. O. Beran,  K. Brandhorst,  
 S. T. Brown,  E. F. C. Byrd,  A. K. Chakraborty,  C.-L. Cheng,  
 Siu Hung Chien,  D. M. Chipman,  D. L. Crittenden,  H. Dachsel,  
 R. J. Doerksen,  A. D. Dutoi,  L. Fusti-Molnar,  W. A. Goddard III,  
 A. Golubeva-Zadorozhnaya,  S. R. Gwaltney,  G. Hawkins,  A. Heyden,  
 S. Hirata,  G. Kedziora,  F. J. Keil,  C. Kelley,  Jihan Kim,  R. A. King,  
 R. Z. Khaliullin,  P. P. Korambath,  W. Kurlancheek,  A. M. Lee,  M. S. Lee,  
 S. V. Levchenko,  Ching Yeh Lin,  D. Liotard,  R. C. Lochan,  I. Lotan,  
 P. E. Maslen,  N. Nair,  D. P. O'Neill,  D. Neuhauser,  E. Neuscamman,  
 C. M. Oana,  R. Olson,  B. Peters,  R. Peverati,  P. A. Pieniazek,  
 Y. M. Rhee,  J. Ritchie,  M. A. Rohrdanz,  E. Rosta,  N. J. Russ,  
 H. F. Schaefer III,  N. E. Schultz,  N. Shenvi,  A. C. Simmonett,  A. Sodt,  
 D. Stuck,  K. S. Thanthiriwatte,  V. Vanovschi,  Tao Wang,  A. Warshel,  
 C. F. Williams,  Q. Wu,  X. Xu,  W. Zhang

 Please cite Q-Chem as follows:
 Y. Shao et al., Mol. Phys. 113, 184-215 (2015)
 DOI: 10.1080/00268976.2014.952696

 Q-Chem 5.1.1 for Intel X86 EM64T Linux

 Parts of Q-Chem use Armadillo 8.300.2 (Tropical Shenanigans).
 http://arma.sourceforge.net/

 Q-Chem begins on Wed Jan  9 16:46:14 2019  

Host: ctcp005
0

     Scratch files written to /scratch/mewes/143088/qchem72635//
 Parallel job on  1  processors
The previous job contains 0 fragments, simply inherited here
Symmetry turned off for PCM/SM12/SMD calculation
Input Ideriv = 2
Curr. Ideriv = -1
Max.  Ideriv = 2
Input Ideriv = 2
Curr. Ideriv = 2
Max.  Ideriv = 2

Checking the input file for inconsistencies... 	...done.

--------------------------------------------------------------
User input:
--------------------------------------------------------------
$rem
threads 4
jobtype	opt
method PBEh-3c
basis def2-mSVP
mem_static	1024
mem_total	4000
sym_ignore	true
scf_convergence	9
solvent_method	pcm
$end

$molecule
read gsopt.mol
$end

$solvent
dielectric	2.03 
$end

$pcm
theory iefpcm
$end
--------------------------------------------------------------
 Adding empirical dispersion correction 
 ----------------------------------------------------------------
 Doing -D3(BJ) with
 s6 =   1.00000
 s8 =   0.00000
 a1 =   0.48600
 a2 =   4.50000
 -D3 energy including 3body term =     -0.0786552828 hartrees
 ----------------------------------------------------------------
 Adding gCP correction 
 ----------------------------------------------------------------
 gCP energy =      0.1093255614 hartrees
 ----------------------------------------------------------------
             Standard Nuclear Orientation (Angstroms)
    I     Atom           X                Y                Z
 ----------------------------------------------------------------
    1      N       0.0000000000     0.0000000000     0.0000000000
    2      C       0.0000000000     0.0000000000     1.3987400000
    3      C       1.1965187758     0.0000000000     2.1158663280
    4      H       2.1447256668     0.0159939793     1.5969066484
    5      C       1.1797699299    -0.0317638982     3.4993753925
    6      H       2.1170114849    -0.0298116997     4.0405498766
    7      C      -0.0238880100    -0.0824659340     4.1814292457
    8      H      -0.0444887481    -0.1179779676     5.2623528717
    9      C      -1.2101758365    -0.0755640183     3.4631605041
   10      H      -2.1442591535    -0.1015581168     4.0071981312
   11      C      -1.2256576421    -0.0150174757     2.0762487998
   12      C      -1.0874629560    -0.5543591787    -0.6860745327
   13      C      -0.9701702773    -1.0287213740    -1.9947945624
   14      H      -0.0452334874    -0.9362160659    -2.5452313272
   15      C      -2.0418993834    -1.6430292865    -2.6187768970
   16      H      -1.9168350098    -2.0098839579    -3.6293661042
   17      C      -3.2449212070    -1.7970094617    -1.9535282311
   18      H      -4.0812722903    -2.2945086857    -2.4262100689
   19      C      -3.3754826575    -1.2757758837    -0.6755016107
   20      H      -4.3325911399    -1.3649981791    -0.1806186535
   21      C      -2.3277565921    -0.6260284741    -0.0359314900
   22      C       1.2338840923     0.1498656504    -0.6827675588
   23      C       1.7271595688     1.4096097646    -0.9675666231
   24      H       1.1880835477     2.2922463255    -0.6490947421
   25      C       2.9236254329     1.5116681011    -1.6541832511
   26      H       3.3376133327     2.4933564856    -1.8496988286
   27      C       1.9302373209    -0.9706037063    -1.1024846419
   28      H       1.5079256363    -1.9374592262    -0.8640182633
   29      C       3.6068464674     0.3936228725    -2.1250334212
   30      C       3.0852596322    -0.8801578853    -1.8747312530
   31      C       4.9226743967     0.6022178490    -2.8100981640
   32      H       5.1962415080     1.6550179898    -2.7317411810
   33      H       4.8660199942     0.3879171428    -3.8816587003
   34      C      -2.5002190478     0.1339924579     1.2647185396
   35      C      -3.7364027767    -0.3158934810     2.0383626485
   36      H      -3.8659443393     0.2729428018     2.9457494014
   37      H      -4.6406604136    -0.1600204780     1.4508163372
   38      H      -3.6856616880    -1.3692929832     2.3166950848
   39      C       6.0138047537    -0.2563953613    -2.1720928385
   40      H       6.9828889799     0.2291931348    -2.2921865515
   41      H       5.8408115191    -0.3276098610    -1.0948596394
   42      C       6.0855464784    -1.6183039947    -2.7937779782
   43      C       7.3427742376    -2.0602856070    -3.2105358198
   44      H       8.2066807881    -1.4377701961    -3.0173726089
   45      C       7.5210453088    -3.2587516357    -3.8741472029
   46      C       4.9659696352    -2.4173865771    -3.0359126132
   47      C       5.1529603019    -3.6169064696    -3.7284367486
   48      H       4.3035364493    -4.2502173019    -3.9466038382
   49      C       6.3964296558    -4.0458500318    -4.1489559327
   50      C       8.8246547924    -3.6658245784    -4.2813900012
   51      N       9.8822281993    -3.9843270210    -4.6054862998
   52      C       6.5144933114    -5.2815967833    -4.8511363555
   53      N       6.5965044702    -6.2804398608    -5.4171012973
   54      C       3.5198410789    -2.1733779644    -2.5832846702
   55      C       3.1075917818    -3.3998258975    -1.7759944253
   56      C       3.6524196936    -3.8578096873    -0.5938043888
   57      H       4.4751687800    -3.3364564563    -0.1201963826
   58      C       3.1201785136    -5.0040990262    -0.0163022786
   59      H       3.5318825336    -5.3774283704     0.9118834521
   60      C       2.0625182072    -5.6766499637    -0.6195848499
   61      H       1.6611541931    -6.5671880581    -0.1542784180
   62      C       1.5203447222    -5.2198763480    -1.8114510880
   63      H       0.6994623156    -5.7490262556    -2.2790854766
   64      C       2.0529268935    -4.0760039134    -2.3866289392
   65      C       1.7092694651    -3.3826154432    -3.6208338245
   66      C       0.7399988913    -3.6614220472    -4.5735225437
   67      H       0.0745022698    -4.5076480841    -4.4577075580
   68      C       0.6406997996    -2.8361720419    -5.6839360450
   69      H      -0.1062893441    -3.0398243774    -6.4399948088
   70      C       1.4961608172    -1.7500406243    -5.8366332679
   71      H       1.4067810437    -1.1172572198    -6.7096152481
   72      C       2.4652681173    -1.4703302629    -4.8803637964
   73      H       3.1216352532    -0.6193993955    -5.0089350864
   74      C       2.5669422883    -2.2930074687    -3.7753472949
   75      C      -2.6770983062     1.6243636825     0.9055982142
   76      H      -1.8274717672     2.0085402324     0.3412620834
   77      H      -2.7818020948     2.2268383396     1.8097741232
   78      H      -3.5717415699     1.7610207287     0.2949016960
 ----------------------------------------------------------------
 Nuclear Repulsion Energy =  5576.0297615742 hartrees
 There are      158 alpha and      158 beta electrons
 Requested basis set is def2-mSVP
 There are 391 shells and 767 basis functions

 Total QAlloc Memory Limit   4000 MB
 Mega-Array Size      1001 MB
 MEM_STATIC part      1024 MB
 Discretize the solute cavity surface with Lebedev spheres
	Using 302 Lebedev grid points for each H atom
	Using 302 Lebedev grid points for other atoms
	Atomic van der Waals radii will be scaled by 1.20
 Remove points where switching function is < 1.0e-08
 Keep 8066 surface tesserae and discard 15490 interior tesserae
 Molecular Surface Area = 614.947 Angst**2
 A cutoff of  1.0D-12 yielded  37921 shell pairs
 There are    152391 function pairs (    168404 Cartesian)
 
 -------------------------------------------------------
 OpenMP Integral Computing Module                       
 Release: version 1.0, May 2013, Q-Chem Inc. Pittsburgh 
 -------------------------------------------------------
 Integral Job Info:
 Integral job number is                      11
 Integral operator is                         1
 short-range coefficients                     0
 long-range coefficients              100000000
 Omega coefficients                           0
 if combine SR and LR in K                    0
 Integral screening is                        0
 Integral computing path is                   2
 max size of driver memory is            800000
 size of driver memory is                593474
 size of scratch memory is              1809772
 max col of scratch BK array               1296
 max len of scratch array in speh3          155
 max len of scratch index in speh4           18
 max int batch size is                      520
 min int batch size is                       52
 fixed nKL is                                52
 max L of basis functions is                  2
 order of int derivative is                   0
 number of shells is                        391
 number of basis is                         814
 number of cartesian basis is               814
 number of contracted shell pairs         37921
 number of primitive shell pairs          79842
 maxK2 (contraction) of shell pair           25
 max number of K2 of shell pair               1
 max number of CS2 of shell pair           8901
 max number of PS2 of shell pair          14470
 mem total for path MDJ                  919484
 -------------------------------------------------------
 Smallest overlap matrix eigenvalue = 2.56E-04

 Scale SEOQF with 1.000000e-02/1.000000e-02/1.000000e-02

 Standard Electronic Orientation quadrupole field applied
 Nucleus-field energy     =     0.0000000034 hartrees
 Guess from superposition of atomic densities
 Warning:  Energy on first SCF cycle will be non-variational
 SAD guess density has 316.000000 electrons

 -----------------------------------------------------------------------
  General SCF calculation program by
  Eric Jon Sundstrom, Paul Horn, Yuezhi Mao, Dmitri Zuev, Alec White,
  David Stuck, Shaama M.S., Shane Yost, Joonho Lee, David Small,
  Daniel Levine, Susi Lehtola, Hugh Burton, Evgeny Epifanovsky
 -----------------------------------------------------------------------
 Exchange:     0.4200 Hartree-Fock + 0.5800 PBEh-3c
 Correlation:  1.0000 PBEh-3c
 Using SG-1 standard quadrature grid
 Dispersion:   Grimme D3
 using 4 threads for integral computing
 -------------------------------------------------------
 OpenMP Integral computing Module                
 Release: version 2.0, May 2017, Q-Chem Inc. Pleasanton 
 -------------------------------------------------------
 -------------------------------------------------------
 OpenMP BLAS3 based DFT computing Module                
 Release: version 1.0, May 2013, Q-Chem Inc. Pittsburgh 
 -------------------------------------------------------
 A restricted SCF calculation will be
 performed using DIIS
 SCF converges when DIIS error is below 1.0e-09
 ---------------------------------------
  Cycle       Energy         DIIS error
 ---------------------------------------
 Using non-symmetric K matrix
    1   -1871.0878483840      3.10e-02  
    2   -1855.1574751373      2.18e-03  
    3   -1855.1316779227      2.46e-03  
    4   -1855.5025792277      7.67e-04  
    5   -1855.5407212965      2.10e-04  
    6   -1855.5432309083      8.47e-05  
    7   -1855.5437195640      1.91e-05  
    8   -1855.5437456030      6.95e-06  
    9   -1855.5437491919      2.05e-06  
   10   -1855.5437494700      8.06e-07  
   11   -1855.5437495165      3.08e-07  
   12   -1855.5437495241      1.15e-07  
   13   -1855.5437495252      4.32e-08  
   14   -1855.5437495254      1.43e-08  
   15   -1855.5437495254      5.26e-09  
   16   -1855.5437495254      2.27e-09  
   17   -1855.5437495254      5.99e-10  Convergence criterion met
 ---------------------------------------
 SCF time:   CPU 8632.81s  wall 2240.00s 

************** Final PCM Free Energy Summary **************
 G_electrostatic  =      -0.01369445 hartree =      -8.59339411 kcal/mol
 G_cavitation     =       0.00000000 hartree =       0.00000000 kcal/mol
 G_dispersion     =       0.00000000 hartree =       0.00000000 kcal/mol
 G_repulsion      =       0.00000000 hartree =       0.00000000 kcal/mol
 --------------------------------------------------
 Non-electrostatic Free Energy =       0.00000000 hartree =       0.00000000 kcal/mol
 Total                         =      -0.01369445 hartree =      -8.59339411 kcal/mol
 --------------------------------------------------
 SCF Energy (H0 + V/2)                       =   -1855.54374953 
 Solute Internal Energy (H0)                 =   -1855.53005508 
 Total Free Energy (H0 + V/2 + non-elec)     =   -1855.54374953 hartree
                                             = -1164371.27668205 kcal/mol
***********************************************************

 SCF   energy in the final basis set =    -1855.5437495254
 Total energy in the final basis set =    -1855.5437495254
 
 --------------------------------------------------------------
 
                    Orbital Energies (a.u.)
 --------------------------------------------------------------
 
 Alpha MOs
 -- Occupied --
-14.680 -14.661 -14.658 -10.520 -10.519 -10.507 -10.506 -10.504
-10.504 -10.497 -10.494 -10.491 -10.491 -10.490 -10.490 -10.482
-10.473 -10.473 -10.470 -10.468 -10.468 -10.467 -10.465 -10.462
-10.461 -10.461 -10.461 -10.460 -10.460 -10.460 -10.459 -10.459
-10.458 -10.458 -10.457 -10.452 -10.451 -10.444 -10.444 -10.442
-10.442 -10.441 -10.439 -10.437 -10.436 -10.427 -10.424  -1.091
 -1.042  -1.028  -1.024  -1.002  -0.984  -0.963  -0.959  -0.958
 -0.935  -0.928  -0.910  -0.894  -0.887  -0.881  -0.854  -0.851
 -0.848  -0.841  -0.834  -0.819  -0.818  -0.806  -0.791  -0.771
 -0.769  -0.743  -0.726  -0.723  -0.712  -0.707  -0.701  -0.687
 -0.677  -0.673  -0.670  -0.666  -0.663  -0.642  -0.617  -0.612
 -0.611  -0.606  -0.593  -0.581  -0.576  -0.568  -0.562  -0.555
 -0.539  -0.536  -0.533  -0.531  -0.524  -0.523  -0.520  -0.516
 -0.512  -0.505  -0.503  -0.500  -0.497  -0.497  -0.494  -0.490
 -0.489  -0.488  -0.483  -0.481  -0.471  -0.465  -0.458  -0.448
 -0.446  -0.444  -0.442  -0.441  -0.438  -0.436  -0.432  -0.427
 -0.426  -0.423  -0.421  -0.419  -0.418  -0.415  -0.410  -0.409
 -0.408  -0.402  -0.401  -0.400  -0.395  -0.394  -0.391  -0.377
 -0.373  -0.365  -0.345  -0.336  -0.319  -0.309  -0.303  -0.298
 -0.296  -0.289  -0.287  -0.282  -0.266  -0.229
 -- Virtual --
 -0.061  -0.035  -0.031  -0.018  -0.002   0.004   0.015   0.017
  0.022   0.034   0.046   0.049   0.053   0.066   0.085   0.107
  0.118   0.127   0.135   0.139   0.140   0.144   0.151   0.157
  0.159   0.162   0.166   0.170   0.175   0.182   0.183   0.188
  0.194   0.197   0.199   0.200   0.201   0.201   0.209   0.211
  0.217   0.218   0.223   0.225   0.228   0.231   0.232   0.235
  0.237   0.239   0.242   0.245   0.249   0.253   0.254   0.257
  0.260   0.262   0.266   0.269   0.275   0.278   0.280   0.285
  0.287   0.290   0.294   0.300   0.303   0.307   0.312   0.313
  0.314   0.325   0.333   0.336   0.340   0.349   0.356   0.360
  0.366   0.368   0.376   0.377   0.383   0.388   0.391   0.398
  0.405   0.417   0.423   0.427   0.430   0.435   0.446   0.454
  0.461   0.470   0.474   0.478   0.483   0.488   0.496   0.501
  0.503   0.506   0.509   0.515   0.522   0.523   0.528   0.530
  0.533   0.534   0.537   0.542   0.542   0.546   0.549   0.552
  0.553   0.554   0.560   0.562   0.563   0.570   0.570   0.577
  0.577   0.582   0.585   0.589   0.591   0.595   0.597   0.602
  0.604   0.607   0.610   0.612   0.615   0.616   0.619   0.620
  0.624   0.627   0.633   0.634   0.635   0.638   0.644   0.646
  0.646   0.650   0.653   0.655   0.658   0.662   0.664   0.666
  0.670   0.677   0.679   0.683   0.685   0.689   0.695   0.699
  0.700   0.702   0.706   0.708   0.715   0.718   0.723   0.727
  0.732   0.734   0.738   0.743   0.743   0.746   0.750   0.754
  0.758   0.762   0.773   0.776   0.779   0.783   0.789   0.801
  0.804   0.808   0.818   0.823   0.828   0.831   0.843   0.845
  0.853   0.862   0.869   0.874   0.881   0.892   0.900   0.904
  0.910   0.917   0.922   0.926   0.931   0.936   0.940   0.944
  0.946   0.948   0.951   0.954   0.961   0.968   0.968   0.971
  0.975   0.977   0.985   0.987   0.992   0.996   1.001   1.002
  1.004   1.006   1.011   1.015   1.021   1.026   1.029   1.033
  1.035   1.040   1.044   1.049   1.053   1.056   1.058   1.063
  1.063   1.066   1.069   1.073   1.080   1.082   1.085   1.093
  1.096   1.096   1.100   1.107   1.114   1.118   1.122   1.126
  1.132   1.134   1.137   1.142   1.143   1.150   1.152   1.155
  1.161   1.168   1.175   1.176   1.187   1.190   1.198   1.200
  1.208   1.228   1.236   1.238   1.242   1.247   1.258   1.263
  1.266   1.272   1.282   1.288   1.296   1.301   1.304   1.309
  1.310   1.312   1.318   1.327   1.336   1.338   1.347   1.350
  1.358   1.362   1.373   1.375   1.381   1.384   1.392   1.399
  1.413   1.418   1.426   1.435   1.445   1.456   1.465   1.480
  1.490   1.496   1.507   1.511   1.513   1.516   1.525   1.528
  1.530   1.536   1.541   1.544   1.548   1.551   1.555   1.559
  1.562   1.565   1.569   1.575   1.578   1.582   1.590   1.595
  1.601   1.605   1.611   1.613   1.626   1.642   1.646   1.648
  1.656   1.664   1.677   1.692   1.703   1.709   1.727   1.728
  1.737   1.744   1.763   1.764   1.775   1.783   1.800   1.804
  1.806   1.813   1.818   1.833   1.837   1.840   1.844   1.846
  1.851   1.856   1.859   1.865   1.872   1.879   1.882   1.890
  1.901   1.905   1.908   1.927   1.928   1.933   1.934   1.946
  1.953   1.966   1.968   1.973   1.979   1.990   1.994   2.000
  2.001   2.006   2.011   2.019   2.021   2.025   2.033   2.034
  2.042   2.046   2.047   2.060   2.064   2.067   2.080   2.087
  2.093   2.100   2.107   2.122   2.131   2.141   2.142   2.145
  2.150   2.161   2.164   2.166   2.168   2.174   2.178   2.190
  2.197   2.200   2.206   2.210   2.217   2.219   2.230   2.239
  2.241   2.247   2.250   2.258   2.261   2.263   2.271   2.279
  2.282   2.288   2.294   2.301   2.309   2.315   2.317   2.320
  2.326   2.336   2.344   2.351   2.353   2.358   2.362   2.364
  2.368   2.375   2.378   2.383   2.385   2.389   2.393   2.399
  2.415   2.421   2.437   2.441   2.461   2.471   2.477   2.488
  2.508   2.514   2.524   2.531   2.546   2.549   2.563   2.578
  2.588   2.595   2.598   2.604   2.620   2.624   2.639   2.653
  2.666   2.675   2.684   2.695   2.704   2.710   2.712   2.719
  2.729   2.733   2.736   2.740   2.741   2.744   2.755   2.759
  2.762   2.773   2.774   2.780   2.785   2.791   2.798   2.816
  2.818   2.821   2.832   2.838   2.841   2.850   2.860   2.863
  2.878   2.886   2.894   2.900   2.905   2.913   2.918   2.932
  2.943   2.979   2.984   2.991   3.001   3.001   3.022   3.029
  3.041   3.043   3.079   3.095   3.159   3.224   3.272   3.327
  3.364   3.375   3.378   3.390   3.414   3.499   3.548   3.560
  3.595   3.676  13.193  13.247  13.267  13.327  13.371  13.414
 13.632  13.662  13.667  13.715  13.728  13.735  13.758  13.769
 13.774  13.807  13.821  13.838  13.901  13.913  13.940  14.023
 14.071  14.078  14.126  14.172  14.177  14.194  14.197  14.216
 14.237  14.245  14.250  14.257  14.265  14.297  14.318  14.400
 14.578  14.581  14.585  14.592  14.606  14.621  19.490  19.561
 19.632
 --------------------------------------------------------------
 
          Ground-State Mulliken Net Atomic Charges

     Atom                 Charge (a.u.)
  ----------------------------------------
      1 N                    -0.698739
      2 C                     0.313924
      3 C                    -0.297549
      4 H                     0.248852
      5 C                    -0.248023
      6 H                     0.227564
      7 C                    -0.233402
      8 H                     0.224282
      9 C                    -0.332972
     10 H                     0.224219
     11 C                     0.163463
     12 C                     0.314377
     13 C                    -0.307422
     14 H                     0.270143
     15 C                    -0.245502
     16 H                     0.229394
     17 C                    -0.235577
     18 H                     0.221905
     19 C                    -0.329385
     20 H                     0.224134
     21 C                     0.144848
     22 C                     0.219351
     23 C                    -0.246400
     24 H                     0.246152
     25 C                    -0.313882
     26 H                     0.231992
     27 C                    -0.305670
     28 H                     0.288769
     29 C                     0.091236
     30 C                     0.183424
     31 C                    -0.541570
     32 H                     0.260727
     33 H                     0.255277
     34 C                    -0.228957
     35 C                    -0.669321
     36 H                     0.232558
     37 H                     0.232588
     38 H                     0.241106
     39 C                    -0.528701
     40 H                     0.258945
     41 H                     0.265792
     42 C                     0.080830
     43 C                    -0.324209
     44 H                     0.263152
     45 C                     0.074677
     46 C                     0.248743
     47 C                    -0.274048
     48 H                     0.289611
     49 C                     0.073149
     50 C                     0.003876
     51 N                    -0.181687
     52 C                     0.002516
     53 N                    -0.182221
     54 C                    -0.430096
     55 C                     0.056913
     56 C                    -0.270941
     57 H                     0.232332
     58 C                    -0.238135
     59 H                     0.240703
     60 C                    -0.224295
     61 H                     0.241668
     62 C                    -0.331855
     63 H                     0.228433
     64 C                     0.155176
     65 C                     0.129205
     66 C                    -0.326888
     67 H                     0.229251
     68 C                    -0.233894
     69 H                     0.241226
     70 C                    -0.233023
     71 H                     0.240204
     72 C                    -0.285729
     73 H                     0.232483
     74 C                     0.140445
     75 C                    -0.601064
     76 H                     0.234431
     77 H                     0.222695
     78 H                     0.224417
  ----------------------------------------
  Sum of atomic charges =     0.000000

 -----------------------------------------------------------------
                    Cartesian Multipole Moments
 -----------------------------------------------------------------
    Charge (ESU x 10^10)
                 0.0000
    Dipole Moment (Debye)
         X      -5.1012      Y       6.0402      Z       3.2679
       Tot       8.5549
    Quadrupole Moments (Debye-Ang)
        XX    -328.1952     XY      70.7675     YY    -301.6502
        XZ      49.9587     YZ     -41.8003     ZZ    -284.7490
    Octopole Moments (Debye-Ang^2)
       XXX   -2531.5153    XXY    1072.4555    XYY    -955.0334
       YYY    1651.3421    XXZ     965.8426    XYZ    -422.7926
       YYZ     698.4518    XZZ    -895.6469    YZZ     699.3378
       ZZZ    1461.7361
    Hexadecapole Moments (Debye-Ang^3)
      XXXX  -34843.1338   XXXY   11187.6499   XXYY   -9641.7281
      XYYY    8033.3182   YYYY  -13580.0406   XXXZ   11838.8909
      XXYZ   -4841.0941   XYYZ    4626.5907   YYYZ   -6406.6105
      XXZZ   -9738.8407   XYZZ    4068.7110   YYZZ   -6100.0952
      XZZZ    8652.0955   YZZZ   -5873.5372   ZZZZ  -15370.6586
 -----------------------------------------------------------------
 Calculating analytic gradient of the SCF energy
 -1.349816701973102E-003 -1.349809441331499E-003
 -1.349811275179530E-003 -1.349814884262261E-003
 -1.349796249763688E-003 -1.349829896715518E-003
 -1.349848194417590E-003 -1.349777934177407E-003
 -1.349801488980222E-003 -1.349824699417162E-003
 -1.349804324874354E-003 -1.349821824512289E-003
 -1.349811950520119E-003 -1.349814188741486E-003
 -1.349804285585921E-003 -1.349821896464092E-003
 -1.349777671484169E-003 -1.349848465035379E-003
 -1.349823195216099E-003 -1.349802937374280E-003
 -1.349815810210792E-003 -1.349810352616211E-003
 -1.349800846220566E-003 -1.349825302047785E-003
 -1.349826448835481E-003 -1.349799657679881E-003
 -1.349803184334215E-003 -1.349823000534017E-003
 -1.349811884778935E-003 -1.349814279950505E-003
 -1.349811490231753E-003 -1.349814643399972E-003
 -1.349805810725544E-003 -1.349820338469470E-003
 -1.349787285438076E-003 -1.349838854457707E-003
 -1.349792457464414E-003 -1.349833698401842E-003
 -1.349801491997974E-003 -1.349824701941983E-003
 -1.349775067807439E-003 -1.349851064968686E-003
 -1.349812869438682E-003 -1.349813292367731E-003
 -1.349802536074801E-003 -1.349823644155418E-003
 -1.349809778689528E-003 -1.349816380419433E-003
 -1.349840220040411E-003 -1.349785891345798E-003
 -1.349798861991376E-003 -1.349827330886613E-003
 -1.349815450257554E-003 -1.349810711869626E-003
 -1.349799960400411E-003 -1.349826158432936E-003
 -1.349799926768931E-003 -1.349826248675793E-003
 -1.349802456691945E-003 -1.349823708772846E-003
 -1.349800473303196E-003 -1.349825680184385E-003
 -1.349800699476643E-003 -1.349825498733005E-003
 -1.349808606625130E-003 -1.349817527823030E-003
 -1.349838460794771E-003 -1.349787670158383E-003
 -1.349808134804984E-003 -1.349818038018927E-003
 -1.349786210297621E-003 -1.349839935024128E-003
 -1.349816318389301E-003 -1.349809831629711E-003
 -1.349831283700445E-003 -1.349794885468225E-003
 -1.349815090745459E-003 -1.349811044415105E-003
 -1.349814304836229E-003 -1.349811848155046E-003
 -1.349840667338247E-003 -1.349785494616728E-003
 -1.349804930596679E-003 -1.349821206052793E-003
 -1.349833975387679E-003 -1.349792163627364E-003
 -1.349820940027678E-003 -1.349805233712961E-003
 -1.349803448423553E-003 -1.349822691268878E-003
 -1.349830921579958E-003 -1.349795202581456E-003
 -1.349824069479792E-003 -1.349802088399552E-003
 -1.349822093387430E-003 -1.349804054827000E-003
 -1.349833304259636E-003 -1.349792864146878E-003
 -1.349816493758741E-003 -1.349809674193917E-003
 -1.349836321348148E-003 -1.349789821025960E-003
 -1.349830156127036E-003 -1.349796025560616E-003
 -1.349803110377777E-003 -1.349823040166899E-003
 -1.349818460838426E-003 -1.349807692910075E-003
 -1.349847047020098E-003 -1.349779118819513E-003
 -1.349800679620839E-003 -1.349825509721017E-003
 -1.349800801091888E-003 -1.349825357793373E-003
 -1.349818078589849E-003 -1.349808100642232E-003
 -1.349799771966075E-003 -1.349826402534211E-003
 -1.349829669830206E-003 -1.349796485897977E-003
 -1.349813231034374E-003 -1.349812934727013E-003
 -1.349791735741649E-003 -1.349834439698115E-003
 -1.349806811941319E-003 -1.349819333771997E-003
 -1.349811868318579E-003 -1.349814284397442E-003
 -1.349827883133436E-003 -1.349798253612996E-003
 -1.349809458291164E-003 -1.349816705120571E-003
 -1.349797725946949E-003 -1.349828418847185E-003
 -1.349799152471269E-003 -1.349826977362487E-003
 -1.349811095036495E-003 -1.349815084907995E-003
 -1.349798601026121E-003 -1.349827546277547E-003
 -1.349805001742478E-003 -1.349821140664615E-003
 -1.349805772474045E-003 -1.349820395321361E-003
 -1.349796966616437E-003 -1.349829199936189E-003
 -1.349803021156733E-003 -1.349823111237807E-003
 -1.349809492305029E-003 -1.349816695520006E-003
 -1.349798468935595E-003 -1.349827681320536E-003
 -1.349795994676541E-003 -1.349830148225113E-003
 -1.349807107265380E-003 -1.349819047440771E-003
 -1.349808455650609E-003 -1.349817687173415E-003
 -1.349791027927873E-003 -1.349835106944703E-003
 -1.349831767373960E-003 -1.349794383236602E-003
 -1.349815968503574E-003 -1.349810163916755E-003
 -1.349800915389242E-003 -1.349825180394544E-003
 -1.349823873349372E-003 -1.349802251923070E-003
 -1.349792081651765E-003 -1.349834072595782E-003
 -1.349804770749033E-003 -1.349821366107250E-003
 -1.349811650331635E-003 -1.349814529457469E-003
 -1.349813006903263E-003 -1.349813143276931E-003
 -1.349807713349702E-003 -1.349818432614759E-003
 -1.349817056203710E-003 -1.349809128537927E-003
 -1.349824726447063E-003 -1.349801415828622E-003
 -1.349806240256472E-003 -1.349819883562042E-003
 -1.349797739168252E-003 -1.349828421096071E-003
 -1.349800812768684E-003 -1.349825325980449E-003
 -1.349793833352312E-003 -1.349832321143213E-003
 -1.349810739500509E-003 -1.349815407063432E-003
 -1.349795060020692E-003 -1.349831074001094E-003
 -1.349801551407826E-003 -1.349824577252241E-003
 -1.349797854641182E-003 -1.349828263376801E-003
 -1.349822357311253E-003 -1.349803792430543E-003
 -1.349822526172048E-003 -1.349803641435538E-003
 -1.349816391396223E-003 -1.349809747566042E-003
 -1.349803215801675E-003 -1.349822939262586E-003
 -1.349789332058166E-003 -1.349836832521490E-003
 -1.349815524271230E-003 -1.349810566156313E-003
 -1.349830169104468E-003 -1.349795970672173E-003
 -1.349816466104356E-003 -1.349809678770049E-003
 -1.349811551492262E-003 -1.349814578122201E-003
 -1.349829761251742E-003 -1.349796392411423E-003
 -1.349811321654355E-003 -1.349814822018086E-003
 -1.349804653456312E-003 -1.349821453504763E-003
 -1.349825190136557E-003 -1.349800925346984E-003
 -1.349807068813145E-003 -1.349819057892019E-003
 -1.349808416015044E-003 -1.349817696796412E-003
 -1.349791415919828E-003 -1.349834720501765E-003
 -1.349801596118359E-003 -1.349824543985254E-003
 -1.349822766787830E-003 -1.349803406522265E-003
 -1.349800034396109E-003 -1.349826135405552E-003
 -1.349807186299398E-003 -1.349818959709731E-003
 -1.349814541013335E-003 -1.349811621066550E-003
 -1.349809588247480E-003 -1.349816536707299E-003
 -1.349797742945614E-003 -1.349828395947803E-003
 -1.349827157846007E-003 -1.349798955604188E-003
 -1.349789395924221E-003 -1.349836748737129E-003
 -1.349829274174560E-003 -1.349796872547942E-003
 -1.349833658223341E-003 -1.349792533254784E-003
 -1.349822802219715E-003 -1.349803368185390E-003
 -1.349801986091941E-003 -1.349824142852424E-003
 -1.349812712485493E-003 -1.349813479443409E-003
 -1.349796264188489E-003 -1.349829907248453E-003
 -1.349815791237265E-003 -1.349810338233546E-003
 -1.349821682557830E-003 -1.349804472587851E-003
 -1.349774563889599E-003 -1.349851570644294E-003
 -1.349822012244459E-003 -1.349804139755100E-003
 -1.349824525620283E-003 -1.349801658473216E-003
 -1.349807450937790E-003 -1.349818715762532E-003
 -1.349811496430921E-003 -1.349814641371508E-003
 -1.349816961772995E-003 -1.349809235291847E-003
 -1.349771437098367E-003 -1.349854702297917E-003
 -1.349807165931242E-003 -1.349818976488207E-003
 -1.349815204142785E-003 -1.349810979536981E-003
 -1.349808689203291E-003 -1.349817440071694E-003
 -1.349816991847600E-003 -1.349809129197866E-003
 -1.349812341080240E-003 -1.349813793880615E-003
 -1.349822633370880E-003 -1.349803514948070E-003
 -1.349811161395272E-003 -1.349814973141614E-003
 -1.349808521981469E-003 -1.349817662463301E-003
 -1.349790716861241E-003 -1.349835461090811E-003
 -1.349817374574446E-003 -1.349808847494566E-003
 -1.349818724453060E-003 -1.349807514934905E-003
 -1.349831688976322E-003 -1.349794477538525E-003
 -1.349805857952413E-003 -1.349820338032174E-003
 -1.349808031493542E-003 -1.349818173846738E-003
 -1.349812914870311E-003 -1.349813251845147E-003
 -1.349827002286654E-003 -1.349799135205079E-003
 -1.349819052680777E-003 -1.349807131693765E-003
 -1.349770101425850E-003 -1.349856059520361E-003
 -1.349814152261413E-003 -1.349811992665799E-003
 -1.349821043133957E-003 -1.349805126704798E-003
 -1.349787669553653E-003 -1.349838452002974E-003
 -1.349798168204587E-003 -1.349827967586376E-003
 -1.349819764419650E-003 -1.349806410253139E-003
 -1.349808188420992E-003 -1.349817933457185E-003
 -1.349805231050476E-003 -1.349820878468112E-003
 -1.349825346789494E-003 -1.349800775619381E-003
 -1.349806762733128E-003 -1.349819355454091E-003
 -1.349829327396639E-003 -1.349796770739648E-003
 -1.349812298479367E-003 -1.349813814394641E-003
 -1.349802225319451E-003 -1.349823907108249E-003
 -1.349834494711815E-003 -1.349791618587929E-003
 -1.349810002081492E-003 -1.349816115446254E-003
 -1.349799520791023E-003 -1.349826608203931E-003
 -1.349840276214470E-003 -1.349785878241284E-003
 -1.349794197352445E-003 -1.349831909437912E-003
 -1.349805593684949E-003 -1.349820554823519E-003
 -1.349845760466175E-003 -1.349780390051157E-003
 -1.349799493176181E-003 -1.349826640300598E-003
 -1.349814859810866E-003 -1.349811270880565E-003
 -1.349857460195270E-003 -1.349768671275228E-003
 -1.349796661430071E-003 -1.349829472786639E-003
 -1.349806189888608E-003 -1.349819955297648E-003
 -1.349845573147598E-003 -1.349780609921083E-003
 -1.349807878136757E-003 -1.349818269064500E-003
 -1.349818668186180E-003 -1.349807444741172E-003
 -1.349834289753586E-003 -1.349791845030809E-003
 -1.349818594465068E-003 -1.349807522539585E-003
 -1.349815188442308E-003 -1.349810931757449E-003
 -1.349849004482197E-003 -1.349777137867427E-003
 -1.349809456928456E-003 -1.349816677999128E-003
 -1.349811816266480E-003 -1.349814300228989E-003
 -1.349813940667027E-003 -1.349812158980143E-003
 -1.349811670115599E-003 -1.349814450251768E-003
 -1.349823649292620E-003 -1.349802457648508E-003
 -1.349801103261336E-003 -1.349825019515941E-003
 -1.349821812756562E-003 -1.349804317174322E-003
 -1.349824917471261E-003 -1.349801221316171E-003
 -1.349813467116483E-003 -1.349812645564392E-003
 -1.349820294629642E-003 -1.349805841013759E-003
 -1.349831693900055E-003 -1.349794442968217E-003
 -1.349825429247314E-003 -1.349800698421385E-003
 -1.349840470843856E-003 -1.349785656899114E-003
 -1.349843331417032E-003 -1.349782797231973E-003
 -1.349822896558393E-003 -1.349803248435130E-003
 -1.349848082627224E-003 -1.349778064570206E-003
 -1.349819173543402E-003 -1.349806978386185E-003
 -1.349819887634387E-003 -1.349806270869589E-003
 -1.349836941173205E-003 -1.349789232641520E-003
 -1.349819616963616E-003 -1.349806523010492E-003
 -1.349807806806353E-003 -1.349818306386874E-003
 -1.349838502771661E-003 -1.349787643270271E-003
 -1.349820531039877E-003 -1.349805608687661E-003
 -1.349819441964135E-003 -1.349806682770890E-003
 -1.349851677274869E-003 -1.349774493517992E-003
 -1.349823102307913E-003 -1.349803011784070E-003
 -1.349821096675938E-003 -1.349805021367415E-003
 -1.349816341886718E-003 -1.349809778258832E-003
 -1.349806934556663E-003 -1.349819200796462E-003
 -1.349814037141241E-003 -1.349812071761345E-003
 -1.349832790473218E-003 -1.349793321670956E-003
 -1.349809440316103E-003 -1.349816671893024E-003
 -1.349808266313836E-003 -1.349817858600134E-003
 -1.349806256653295E-003 -1.349819882390589E-003
 -1.349809178610181E-003 -1.349817001284008E-003
 -1.349816851403342E-003 -1.349809268749466E-003
 -1.349798529683295E-003 -1.349827578559933E-003
 -1.349816280101352E-003 -1.349809865652147E-003
 -1.349830119028680E-003 -1.349795971234765E-003
 -1.349806582272432E-003 -1.349819563254165E-003
 -1.349835136098241E-003 -1.349791013992696E-003
 -1.349809000815066E-003 -1.349817138842329E-003
 -1.349812707675155E-003 -1.349813417930604E-003
 -1.349836016774574E-003 -1.349790143040620E-003
 -1.349803906845419E-003 -1.349822217257404E-003
 -1.349802910960359E-003 -1.349823204814731E-003
 Gradient of SCF Energy
            1           2           3           4           5           6
    1  -0.0003904  -0.0002325  -0.0013552   0.0009705  -0.0020081   0.0010935
    2  -0.0003394  -0.0001377  -0.0002052   0.0001249   0.0000766   0.0000587
    3   0.0003852   0.0004525   0.0007881  -0.0004270  -0.0008153   0.0005710
            7           8           9          10          11          12
    1   0.0000931  -0.0000092   0.0016089  -0.0010911   0.0007014  -0.0005639
    2   0.0001336   0.0000280   0.0000049   0.0001183  -0.0001772   0.0000044
    3  -0.0018769   0.0009813  -0.0006870   0.0004483   0.0004729  -0.0001118
           13          14          15          16          17          18
    1  -0.0010984   0.0003169  -0.0002118   0.0000627   0.0015627  -0.0007423
    2   0.0000105  -0.0000056   0.0005761  -0.0003963   0.0008287  -0.0005230
    3   0.0004919  -0.0003463   0.0016257  -0.0007483   0.0004815  -0.0003930
           19          20          21          22          23          24
    1   0.0019339  -0.0011737  -0.0003828  -0.0005875   0.0003285  -0.0008531
    2   0.0000243  -0.0002665  -0.0001604  -0.0003692  -0.0016315   0.0020370
    3  -0.0009413   0.0001816  -0.0005424   0.0004077  -0.0001116   0.0003697
           25          26          27          28          29          30
    1  -0.0017319   0.0013688   0.0003039  -0.0002090   0.0026628   0.0005250
    2  -0.0023868   0.0031595   0.0011083  -0.0009698   0.0001326  -0.0017239
    3   0.0008303  -0.0006766   0.0002766   0.0002711  -0.0016936  -0.0005476
           31          32          33          34          35          36
    1  -0.0007561   0.0012015  -0.0000637   0.0001252   0.0016901  -0.0001398
    2  -0.0047090   0.0036463  -0.0005871  -0.0003784   0.0002305   0.0006551
    3   0.0044566   0.0002666  -0.0029582  -0.0001237  -0.0007463   0.0009176
           37          38          39          40          41          42
    1  -0.0010495  -0.0001197  -0.0047113   0.0033615  -0.0004957  -0.0003690
    2   0.0001425  -0.0007054  -0.0015232   0.0018613  -0.0001722   0.0026171
    3  -0.0004763   0.0002677  -0.0040358  -0.0005681   0.0029820   0.0013449
           43          44          45          46          47          48
    1  -0.0013693   0.0026719   0.0004477  -0.0024047   0.0009717  -0.0011439
    2  -0.0028240   0.0026199  -0.0006852  -0.0006323   0.0007096  -0.0007645
    3  -0.0011388   0.0008440  -0.0003716   0.0000612   0.0001826  -0.0002696
           49          50          51          52          53          54
    1   0.0004076   0.0123093  -0.0122543   0.0006498  -0.0005989  -0.0002623
    2  -0.0005559  -0.0029070   0.0031565  -0.0122343   0.0124945   0.0001769
    3  -0.0003395  -0.0033660   0.0034613  -0.0069197   0.0070649   0.0000828
           55          56          57          58          59          60
    1  -0.0007577  -0.0015278   0.0021748  -0.0006823   0.0009632   0.0008681
    2   0.0006023  -0.0010437   0.0013081   0.0005030  -0.0007268   0.0018530
    3  -0.0031044  -0.0015476   0.0013765  -0.0017229   0.0021518  -0.0008418
           61          62          63          64          65          66
    1  -0.0008608   0.0018861  -0.0019966  -0.0006269  -0.0003624   0.0015706
    2  -0.0019794   0.0008687  -0.0014270   0.0000453  -0.0006072   0.0019239
    3   0.0010829   0.0013648  -0.0012461  -0.0007259   0.0010019  -0.0003682
           67          68          69          70          71          72
    1  -0.0017504   0.0016838  -0.0019067   0.0002647  -0.0002588  -0.0013643
    2  -0.0022392   0.0005294  -0.0004937  -0.0011395   0.0015726  -0.0016528
    3   0.0002297   0.0012811  -0.0018872   0.0017667  -0.0022039   0.0005177
           73          74          75          76          77          78
    1   0.0016084   0.0023000   0.0006751   0.0001993  -0.0004039  -0.0006854
    2   0.0024709   0.0007825  -0.0008537   0.0002526   0.0004665   0.0002191
    3  -0.0008278   0.0039233  -0.0001052  -0.0001066   0.0004861  -0.0002305
 Max gradient component =       1.249E-02
 RMS gradient           =       2.220E-03
 Computing fast IEFPCM-SWIG gradient.
 Updating gradient with PCM contributions...
 -- total gradient after adding PCM contribution --
---------------------------------------------------
  Atom         X              Y              Z     
---------------------------------------------------
   1       0.000239      -0.000056       0.000081
   2      -0.000448      -0.000280       0.000195
   3      -0.000009      -0.000084      -0.000030
   4       0.000038       0.000115      -0.000116
   5      -0.000128       0.000039       0.000077
   6       0.000002       0.000061      -0.000007
   7      -0.000012       0.000074      -0.000142
   8       0.000015       0.000053      -0.000008
   9      -0.000091       0.000007       0.000354
  10      -0.000132       0.000102      -0.000187
  11       0.000292      -0.000175      -0.000180
  12      -0.000414       0.000059       0.000186
  13       0.000042       0.000159       0.000160
  14      -0.000156      -0.000001      -0.000121
  15       0.000004      -0.000076      -0.000084
  16       0.000064      -0.000033       0.000074
  17       0.000149      -0.000054      -0.000187
  18       0.000010      -0.000070       0.000027
  19       0.000192      -0.000075      -0.000110
  20      -0.000173      -0.000201      -0.000249
  21      -0.000107       0.000220       0.000101
  22      -0.000128      -0.000213       0.000079
  23      -0.000012       0.000165       0.000033
  24      -0.000035      -0.000036      -0.000099
  25      -0.000080      -0.000405       0.000035
  26      -0.000026       0.000021      -0.000030
  27       0.000317       0.000233       0.000277
  28      -0.000032       0.000020       0.000121
  29       0.000084       0.000059      -0.000047
  30       0.000199      -0.000029       0.000091
  31      -0.000177       0.000108      -0.000140
  32      -0.000019       0.000024      -0.000047
  33      -0.000096      -0.000155       0.000027
  34       0.000036      -0.000216      -0.000109
  35      -0.000105       0.000109       0.000254
  36       0.000129      -0.000020      -0.000206
  37       0.000087      -0.000008       0.000115
  38       0.000058       0.000035      -0.000031
  39       0.000314       0.000234       0.000189
  40      -0.000115      -0.000142      -0.000091
  41      -0.000149      -0.000031      -0.000044
  42      -0.000170      -0.000256      -0.000003
  43       0.000171       0.000099      -0.000001
  44       0.000034       0.000061      -0.000026
  45      -0.000176      -0.000114       0.000053
  46       0.000044      -0.000306      -0.000134
  47      -0.000320       0.000050      -0.000036
  48       0.000097      -0.000033      -0.000007
  49       0.000301       0.000126       0.000063
  50       0.000153       0.000085       0.000014
  51      -0.000044       0.000019       0.000000
  52       0.000019       0.000006      -0.000036
  53       0.000015       0.000011       0.000036
  54      -0.000015       0.000403       0.000021
  55      -0.001319      -0.001010      -0.001765
  56       0.000163       0.000198      -0.000592
  57       0.000075       0.000038       0.000040
  58       0.000176       0.000008      -0.000036
  59       0.000029       0.000084       0.000046
  60       0.000090       0.000228      -0.000028
  61       0.000052       0.000003       0.000046
  62      -0.000031      -0.000306       0.000235
  63       0.000092      -0.000030      -0.000103
  64      -0.000148      -0.000070      -0.000203
  65      -0.000235      -0.000041       0.000412
  66      -0.000082      -0.000009      -0.000217
  67       0.000082       0.000016       0.000022
  68       0.000228       0.000154      -0.000064
  69       0.000002      -0.000001      -0.000017
  70       0.000187       0.000177       0.000179
  71      -0.000035      -0.000055      -0.000021
  72       0.000233       0.000276       0.000183
  73      -0.000080       0.000040      -0.000144
  74       0.000784       0.000474       0.001990
  75       0.000265      -0.000086      -0.000051
  76       0.000048      -0.000014       0.000014
  77      -0.000199       0.000129      -0.000041
  78      -0.000118       0.000112      -0.000038
---------------------------------------------------
 Number of fixed atoms: 0
 Gradient time:  CPU 821.81 s  wall 298.64 s
 Geometry Optimization Parameters
   NAtoms,    NIC,     NZ,  NCons,   NDum,   NFix, NCnnct, MaxDiis
       78     630      78       0       0       0       0       0


** GEOMETRY OPTIMIZATION IN DELOCALIZED INTERNAL COORDINATES **
   Searching for a Minimum

   Optimization Cycle:   1

                       Coordinates (Angstroms)
     ATOM                X               Y               Z
      1  N         0.0000000000    0.0000000000    0.0000000000
      2  C         0.0000000000    0.0000000000    1.3987400000
      3  C         1.1965187758    0.0000000000    2.1158663280
      4  H         2.1447256668    0.0159939793    1.5969066484
      5  C         1.1797699299   -0.0317638982    3.4993753925
      6  H         2.1170114849   -0.0298116997    4.0405498766
      7  C        -0.0238880100   -0.0824659340    4.1814292457
      8  H        -0.0444887481   -0.1179779676    5.2623528717
      9  C        -1.2101758365   -0.0755640183    3.4631605041
     10  H        -2.1442591535   -0.1015581168    4.0071981312
     11  C        -1.2256576421   -0.0150174757    2.0762487998
     12  C        -1.0874629560   -0.5543591787   -0.6860745327
     13  C        -0.9701702773   -1.0287213740   -1.9947945624
     14  H        -0.0452334874   -0.9362160659   -2.5452313272
     15  C        -2.0418993834   -1.6430292865   -2.6187768970
     16  H        -1.9168350098   -2.0098839579   -3.6293661042
     17  C        -3.2449212070   -1.7970094617   -1.9535282311
     18  H        -4.0812722903   -2.2945086857   -2.4262100689
     19  C        -3.3754826575   -1.2757758837   -0.6755016107
     20  H        -4.3325911399   -1.3649981791   -0.1806186535
     21  C        -2.3277565921   -0.6260284741   -0.0359314900
     22  C         1.2338840923    0.1498656504   -0.6827675588
     23  C         1.7271595688    1.4096097646   -0.9675666231
     24  H         1.1880835477    2.2922463255   -0.6490947421
     25  C         2.9236254329    1.5116681011   -1.6541832511
     26  H         3.3376133327    2.4933564856   -1.8496988286
     27  C         1.9302373209   -0.9706037063   -1.1024846419
     28  H         1.5079256363   -1.9374592262   -0.8640182633
     29  C         3.6068464674    0.3936228725   -2.1250334212
     30  C         3.0852596322   -0.8801578853   -1.8747312530
     31  C         4.9226743967    0.6022178490   -2.8100981640
     32  H         5.1962415080    1.6550179898   -2.7317411810
     33  H         4.8660199942    0.3879171428   -3.8816587003
     34  C        -2.5002190478    0.1339924579    1.2647185396
     35  C        -3.7364027767   -0.3158934810    2.0383626485
     36  H        -3.8659443393    0.2729428018    2.9457494014
     37  H        -4.6406604136   -0.1600204780    1.4508163372
     38  H        -3.6856616880   -1.3692929832    2.3166950848
     39  C         6.0138047537   -0.2563953613   -2.1720928385
     40  H         6.9828889799    0.2291931348   -2.2921865515
     41  H         5.8408115191   -0.3276098610   -1.0948596394
     42  C         6.0855464784   -1.6183039947   -2.7937779782
     43  C         7.3427742376   -2.0602856070   -3.2105358198
     44  H         8.2066807881   -1.4377701961   -3.0173726089
     45  C         7.5210453088   -3.2587516357   -3.8741472029
     46  C         4.9659696352   -2.4173865771   -3.0359126132
     47  C         5.1529603019   -3.6169064696   -3.7284367486
     48  H         4.3035364493   -4.2502173019   -3.9466038382
     49  C         6.3964296558   -4.0458500318   -4.1489559327
     50  C         8.8246547924   -3.6658245784   -4.2813900012
     51  N         9.8822281993   -3.9843270210   -4.6054862998
     52  C         6.5144933114   -5.2815967833   -4.8511363555
     53  N         6.5965044702   -6.2804398608   -5.4171012973
     54  C         3.5198410789   -2.1733779644   -2.5832846702
     55  C         3.1075917818   -3.3998258975   -1.7759944253
     56  C         3.6524196936   -3.8578096873   -0.5938043888
     57  H         4.4751687800   -3.3364564563   -0.1201963826
     58  C         3.1201785136   -5.0040990262   -0.0163022786
     59  H         3.5318825336   -5.3774283704    0.9118834521
     60  C         2.0625182072   -5.6766499637   -0.6195848499
     61  H         1.6611541931   -6.5671880581   -0.1542784180
     62  C         1.5203447222   -5.2198763480   -1.8114510880
     63  H         0.6994623156   -5.7490262556   -2.2790854766
     64  C         2.0529268935   -4.0760039134   -2.3866289392
     65  C         1.7092694651   -3.3826154432   -3.6208338245
     66  C         0.7399988913   -3.6614220472   -4.5735225437
     67  H         0.0745022698   -4.5076480841   -4.4577075580
     68  C         0.6406997996   -2.8361720419   -5.6839360450
     69  H        -0.1062893441   -3.0398243774   -6.4399948088
     70  C         1.4961608172   -1.7500406243   -5.8366332679
     71  H         1.4067810437   -1.1172572198   -6.7096152481
     72  C         2.4652681173   -1.4703302629   -4.8803637964
     73  H         3.1216352532   -0.6193993955   -5.0089350864
     74  C         2.5669422883   -2.2930074687   -3.7753472949
     75  C        -2.6770983062    1.6243636825    0.9055982142
     76  H        -1.8274717672    2.0085402324    0.3412620834
     77  H        -2.7818020948    2.2268383396    1.8097741232
     78  H        -3.5717415699    1.7610207287    0.2949016960
   Point Group: c1    Number of degrees of freedom:   228


   Energy is  -1855.543749525


 Attempting to Generate Delocalized Internal Coordinates

228 Hessian modes will be used to form the next step
  Hessian Eigenvalues:
     0.003464    0.005722    0.006075    0.009586    0.011409    0.011830
     0.012954    0.013247    0.014144    0.014924    0.015465    0.016789
     0.016970    0.017065    0.017280    0.017709    0.018403    0.018636
     0.019259    0.019531    0.020157    0.020332    0.020788    0.021186
     0.021823    0.021886    0.023141    0.023304    0.023574    0.023669
     0.023690    0.023693    0.023725    0.023827    0.023833    0.023839
     0.023858    0.023866    0.023888    0.023907    0.023962    0.023985
     0.023989    0.024043    0.024052    0.024060    0.024098    0.024162
     0.024222    0.024246    0.024312    0.024321    0.024340    0.024370
     0.024411    0.024419    0.024495    0.024501    0.024561    0.024576
     0.024672    0.037065    0.044313    0.051212    0.053673    0.053728
     0.054631    0.054681    0.056096    0.056189    0.057209    0.066924
     0.078324    0.086009    0.087182    0.092504    0.093971    0.113691
     0.118146    0.125636    0.126030    0.159622    0.159940    0.159969
     0.159971    0.159974    0.159984    0.159988    0.159989    0.159993
     0.159994    0.159995    0.159995    0.159996    0.159999    0.159999
     0.159999    0.159999    0.160000    0.160000    0.160000    0.160000
     0.160000    0.160000    0.160000    0.160000    0.160000    0.160000
     0.166192    0.176079    0.191495    0.200000    0.200000    0.200000
     0.200000    0.219952    0.219985    0.219999    0.220000    0.220500
     0.224349    0.224726    0.225861    0.225995    0.226320    0.229884
     0.230853    0.233738    0.236286    0.237188    0.239367    0.244365
     0.244853    0.244898    0.244971    0.245972    0.246136    0.249852
     0.249859    0.249895    0.249971    0.249999    0.273095    0.282375
     0.284034    0.285055    0.287929    0.291729    0.295345    0.296687
     0.297837    0.317491    0.319595    0.343264    0.344276    0.346063
     0.346346    0.347283    0.347456    0.347469    0.348215    0.348610
     0.348785    0.356103    0.356265    0.356541    0.356614    0.357101
     0.357146    0.357222    0.357290    0.357334    0.357344    0.357572
     0.357661    0.357708    0.357715    0.357828    0.357893    0.357926
     0.358262    0.358402    0.358535    0.358676    0.359582    0.382616
     0.393723    0.405895    0.415392    0.416993    0.419066    0.421147
     0.421707    0.424362    0.426468    0.427428    0.428619    0.429007
     0.433786    0.434492    0.435470    0.448314    0.453405    0.458365
     0.460017    0.460153    0.462923    0.463440    0.465944    0.471921
     0.472464    0.474286    0.474825    0.476186    0.476563    0.477495
     0.477545    0.478230    0.478894    0.478934    0.482396    0.483167
     0.484914    0.484990    0.485583    0.487010    1.338259    1.338906

 Minimum Search - Taking Simple RFO Step
 Searching for Lamda that Minimizes Along All modes
 Value Taken    Lamda =  -0.00095556
 Step Taken.  Stepsize is  0.235953

                             Maximum     Tolerance    Cnvgd?
         Gradient           0.003408      0.000300      NO
         Displacement       0.177569      0.001200      NO
         Energy change     *********      0.000001      NO


 New Cartesian Coordinates Obtained by Inverse Iteration

 Displacement from previous Coordinates is:  3.109053
 Adding empirical dispersion correction 
 ----------------------------------------------------------------
 Doing -D3(BJ) with
 s6 =   1.00000
 s8 =   0.00000
 a1 =   0.48600
 a2 =   4.50000
 -D3 energy including 3body term =     -0.0782375464 hartrees
 ----------------------------------------------------------------
 Adding gCP correction 
 ----------------------------------------------------------------
 gCP energy =      0.1091137523 hartrees
 ----------------------------------------------------------------
             Standard Nuclear Orientation (Angstroms)
    I     Atom           X                Y                Z
 ----------------------------------------------------------------
    1      N      -0.0247525430     0.0346711448    -0.0585357937
    2      C       0.0102282846    -0.0702430461     1.3360598490
    3      C       1.2241457795    -0.1682289104     2.0166438363
    4      H       2.1587401365    -0.1383373266     1.4744433250
    5      C       1.2424702800    -0.3254755325     3.3914812914
    6      H       2.1929233474    -0.4024943300     3.9033082623
    7      C       0.0559158285    -0.4053142882     4.1000796015
    8      H       0.0617560546    -0.5421138071     5.1730982314
    9      C      -1.1475883046    -0.3000145886     3.4191547546
   10      H      -2.0669632926    -0.3550826672     3.9856056557
   11      C      -1.1975905120    -0.1133141717     2.0443815246
   12      C      -1.1433859520    -0.4407958707    -0.7536002372
   13      C      -1.0740964931    -0.8175831211    -2.0971013171
   14      H      -0.1600295892    -0.7115494130    -2.6632527281
   15      C      -2.1824377626    -1.3443156423    -2.7374712163
   16      H      -2.0960174873    -1.6330967036    -3.7771104222
   17      C      -3.3740252376    -1.5094548898    -2.0540937294
   18      H      -4.2391324041    -1.9384965675    -2.5418563004
   19      C      -3.4541623447    -1.0879372565    -0.7359603121
   20      H      -4.4001278884    -1.1835180993    -0.2214198201
   21      C      -2.3693943883    -0.5245268129    -0.0776072207
   22      C       1.2005038649     0.1865857548    -0.7560299364
   23      C       1.7040410918     1.4452110318    -1.0272432355
   24      H       1.1738443944     2.3287431940    -0.6963590102
   25      C       2.9000595053     1.5448082976    -1.7155749288
   26      H       3.3231856970     2.5249897496    -1.8985573413
   27      C       1.8888561504    -0.9347360466    -1.1850629727
   28      H       1.4663564464    -1.9010944548    -0.9450495873
   29      C       3.5813609916     0.4253517234    -2.1874556169
   30      C       3.0528239001    -0.8473483212    -1.9431695753
   31      C       4.9119281176     0.6329435065    -2.8443193572
   32      H       5.1820713988     1.6862885502    -2.7616194444
   33      H       4.8799275477     0.4177022294    -3.9166673646
   34      C      -2.4883990969     0.1317664814     1.2839771180
   35      C      -3.7166686182    -0.3535619045     2.0492510482
   36      H      -3.8120580903     0.1593979721     3.0059237040
   37      H      -4.6301408634    -0.1291791138     1.4988875684
   38      H      -3.6855855542    -1.4275899056     2.2373230841
   39      C       5.9916890183    -0.2193051365    -2.1794694191
   40      H       6.9617330714     0.2683766664    -2.2845680050
   41      H       5.7997793448    -0.2821120626    -1.1048674770
   42      C       6.0786791951    -1.5861887510    -2.7873844057
   43      C       7.3440286830    -2.0278684752    -3.1790103076
   44      H       8.2020055372    -1.3990813437    -2.9801606822
   45      C       7.5384162199    -3.2342323848    -3.8236533029
   46      C       4.9672914509    -2.3954689518    -3.0333675730
   47      C       5.1713001678    -3.6045811529    -3.7040028533
   48      H       4.3282156542    -4.2458216694    -3.9238843705
   49      C       6.4222327101    -4.0319505555    -4.1024913559
   50      C       8.8499264853    -3.6406249409    -4.2051039173
   51      N       9.9139175894    -3.9584063209    -4.5082934508
   52      C       6.5567897280    -5.2767370388    -4.7854254420
   53      N       6.6521328356    -6.2828520789    -5.3362263289
   54      C       3.5136271976    -2.1575161095    -2.6028302129
   55      C       3.1248677216    -3.3453726354    -1.7277579902
   56      C       3.6668060566    -3.7258328847    -0.5163598985
   57      H       4.4760531267    -3.1640168416    -0.0666795932
   58      C       3.1492565624    -4.8471649547     0.1212941188
   59      H       3.5599683057    -5.1610226224     1.0716230300
   60      C       2.1075721177    -5.5709821003    -0.4495465585
   61      H       1.7167927599    -6.4402383336     0.0626409139
   62      C       1.5663787220    -5.1904103220    -1.6680359031
   63      H       0.7556331834    -5.7571637509    -2.1085420688
   64      C       2.0847682690    -4.0730803524    -2.3043140074
   65      C       1.7327974004    -3.4593506022    -3.5781194154
   66      C       0.7707441039    -3.8122169380    -4.5132883178
   67      H       0.1216676936    -4.6632278510    -4.3489159284
   68      C       0.6560861136    -3.0547662470    -5.6694567913
   69      H      -0.0855411278    -3.3166131970    -6.4127333772
   70      C       1.4901839982    -1.9624280158    -5.8841624895
   71      H       1.3899718482    -1.3823995776    -6.7919586779
   72      C       2.4512241000    -1.6078809037    -4.9442677436
   73      H       3.0904630580    -0.7523055872    -5.1199026545
   74      C       2.5670757935    -2.3624441088    -3.7930864914
   75      C      -2.6378787388     1.6499639604     1.0537936832
   76      H      -1.7974534204     2.0596820191     0.4937722000
   77      H      -2.6965698102     2.1770740093     2.0077167825
   78      H      -3.5479285317     1.8566772346     0.4875080515
 ----------------------------------------------------------------
 Nuclear Repulsion Energy =  5572.6026732095 hartrees
 There are      158 alpha and      158 beta electrons
 Discretize the solute cavity surface with Lebedev spheres
	Using 302 Lebedev grid points for each H atom
	Using 302 Lebedev grid points for other atoms
	Atomic van der Waals radii will be scaled by 1.20
 Remove points where switching function is < 1.0e-08
 Keep 8093 surface tesserae and discard 15463 interior tesserae
 Molecular Surface Area = 620.945 Angst**2
 Nucleus-field energy     =     0.0000000036 hartrees
 Requested basis set is def2-mSVP
 There are 391 shells and 767 basis functions
 A cutoff of  1.0D-12 yielded  37962 shell pairs
 There are    152372 function pairs (    168298 Cartesian)
 Smallest overlap matrix eigenvalue = 2.54E-04
 Guess MOs from SCF MO coefficient file

 -----------------------------------------------------------------------
  General SCF calculation program by
  Eric Jon Sundstrom, Paul Horn, Yuezhi Mao, Dmitri Zuev, Alec White,
  David Stuck, Shaama M.S., Shane Yost, Joonho Lee, David Small,
  Daniel Levine, Susi Lehtola, Hugh Burton, Evgeny Epifanovsky
 -----------------------------------------------------------------------
 Exchange:     0.4200 Hartree-Fock + 0.5800 PBEh-3c
 Correlation:  1.0000 PBEh-3c
 Using SG-1 standard quadrature grid
 Dispersion:   Grimme D3
 using 4 threads for integral computing
 -------------------------------------------------------
 OpenMP Integral computing Module                
 Release: version 2.0, May 2017, Q-Chem Inc. Pleasanton 
 -------------------------------------------------------
 -------------------------------------------------------
 OpenMP BLAS3 based DFT computing Module                
 Release: version 1.0, May 2013, Q-Chem Inc. Pittsburgh 
 -------------------------------------------------------
 A restricted SCF calculation will be
 performed using DIIS
 SCF converges when DIIS error is below 1.0e-09
 ---------------------------------------
  Cycle       Energy         DIIS error
 ---------------------------------------
 Using non-symmetric K matrix
    1   -1856.2109006338      7.40e-04  
    2   -1855.5400767432      1.69e-04  
    3   -1855.5398534303      2.54e-04  
    4   -1855.5441746087      3.40e-05  
    5   -1855.5442331084      2.56e-05  
    6   -1855.5442799503      7.47e-06  
    7   -1855.5442839328      2.68e-06  
    8   -1855.5442844451      1.25e-06  
    9   -1855.5442845633      3.19e-07  
   10   -1855.5442845709      1.28e-07  
   11   -1855.5442845720      4.69e-08  
   12   -1855.5442845722      1.56e-08  
   13   -1855.5442845723      5.19e-09  
   14   -1855.5442845722      2.49e-09  
   15   -1855.5442845722      8.00e-10  Convergence criterion met
 ---------------------------------------
 SCF time:   CPU 7921.62s  wall 2049.00s 

************** Final PCM Free Energy Summary **************
 G_electrostatic  =      -0.01377981 hartree =      -8.64696188 kcal/mol
 G_cavitation     =       0.00000000 hartree =       0.00000000 kcal/mol
 G_dispersion     =       0.00000000 hartree =       0.00000000 kcal/mol
 G_repulsion      =       0.00000000 hartree =       0.00000000 kcal/mol
 --------------------------------------------------
 Non-electrostatic Free Energy =       0.00000000 hartree =       0.00000000 kcal/mol
 Total                         =      -0.01377981 hartree =      -8.64696188 kcal/mol
 --------------------------------------------------
 SCF Energy (H0 + V/2)                       =   -1855.54428457 
 Solute Internal Energy (H0)                 =   -1855.53050476 
 Total Free Energy (H0 + V/2 + non-elec)     =   -1855.54428457 hartree
                                             = -1164371.61242900 kcal/mol
***********************************************************

 SCF   energy in the final basis set =    -1855.5442845722
 Total energy in the final basis set =    -1855.5442845722
 
 --------------------------------------------------------------
 
                    Orbital Energies (a.u.)
 --------------------------------------------------------------
 
 Alpha MOs
 -- Occupied --
-14.680 -14.661 -14.658 -10.520 -10.519 -10.507 -10.506 -10.504
-10.504 -10.497 -10.493 -10.491 -10.491 -10.490 -10.489 -10.482
-10.474 -10.473 -10.470 -10.468 -10.468 -10.467 -10.465 -10.462
-10.461 -10.461 -10.461 -10.460 -10.460 -10.459 -10.459 -10.459
-10.458 -10.457 -10.457 -10.452 -10.451 -10.444 -10.444 -10.442
-10.442 -10.441 -10.439 -10.437 -10.435 -10.427 -10.424  -1.091
 -1.042  -1.028  -1.024  -1.002  -0.984  -0.963  -0.959  -0.958
 -0.935  -0.928  -0.910  -0.894  -0.887  -0.880  -0.853  -0.850
 -0.848  -0.841  -0.834  -0.819  -0.818  -0.806  -0.790  -0.771
 -0.769  -0.743  -0.726  -0.723  -0.712  -0.706  -0.702  -0.687
 -0.676  -0.673  -0.670  -0.666  -0.663  -0.642  -0.617  -0.612
 -0.611  -0.606  -0.593  -0.581  -0.576  -0.568  -0.562  -0.555
 -0.538  -0.536  -0.533  -0.530  -0.524  -0.523  -0.520  -0.516
 -0.511  -0.504  -0.502  -0.500  -0.497  -0.497  -0.494  -0.490
 -0.488  -0.488  -0.482  -0.481  -0.471  -0.465  -0.457  -0.448
 -0.446  -0.444  -0.442  -0.441  -0.437  -0.436  -0.431  -0.427
 -0.426  -0.423  -0.421  -0.418  -0.417  -0.415  -0.410  -0.408
 -0.408  -0.402  -0.401  -0.400  -0.395  -0.394  -0.390  -0.376
 -0.372  -0.364  -0.344  -0.336  -0.319  -0.309  -0.304  -0.298
 -0.296  -0.289  -0.287  -0.282  -0.266  -0.230
 -- Virtual --
 -0.061  -0.035  -0.030  -0.016  -0.002   0.004   0.015   0.017
  0.022   0.034   0.046   0.049   0.054   0.066   0.085   0.107
  0.119   0.128   0.135   0.139   0.140   0.145   0.152   0.157
  0.160   0.162   0.166   0.169   0.174   0.182   0.183   0.188
  0.194   0.198   0.200   0.200   0.201   0.201   0.209   0.212
  0.217   0.218   0.223   0.225   0.228   0.231   0.234   0.235
  0.237   0.239   0.242   0.244   0.250   0.253   0.254   0.258
  0.260   0.262   0.265   0.270   0.274   0.278   0.280   0.285
  0.287   0.290   0.295   0.299   0.303   0.307   0.312   0.313
  0.314   0.324   0.333   0.336   0.340   0.349   0.356   0.361
  0.366   0.368   0.375   0.376   0.383   0.388   0.392   0.398
  0.405   0.418   0.423   0.427   0.430   0.435   0.448   0.454
  0.462   0.470   0.475   0.477   0.484   0.488   0.495   0.499
  0.504   0.506   0.509   0.512   0.522   0.524   0.528   0.529
  0.532   0.534   0.536   0.540   0.542   0.544   0.548   0.551
  0.554   0.556   0.559   0.563   0.564   0.569   0.571   0.576
  0.578   0.582   0.585   0.587   0.591   0.594   0.596   0.600
  0.604   0.604   0.610   0.611   0.614   0.616   0.619   0.621
  0.624   0.626   0.633   0.634   0.636   0.637   0.644   0.645
  0.646   0.650   0.651   0.655   0.657   0.661   0.663   0.666
  0.669   0.678   0.679   0.681   0.684   0.689   0.695   0.697
  0.698   0.702   0.704   0.708   0.716   0.719   0.720   0.727
  0.728   0.735   0.738   0.741   0.744   0.745   0.750   0.751
  0.755   0.761   0.769   0.773   0.778   0.782   0.790   0.800
  0.803   0.809   0.820   0.824   0.826   0.830   0.841   0.845
  0.849   0.862   0.870   0.878   0.881   0.894   0.898   0.908
  0.910   0.916   0.920   0.924   0.932   0.934   0.940   0.944
  0.945   0.947   0.952   0.954   0.959   0.968   0.969   0.972
  0.975   0.978   0.984   0.988   0.992   0.997   0.998   1.001
  1.002   1.006   1.009   1.016   1.020   1.021   1.027   1.029
  1.032   1.041   1.042   1.048   1.054   1.056   1.060   1.061
  1.064   1.067   1.069   1.073   1.079   1.082   1.084   1.088
  1.093   1.096   1.100   1.106   1.113   1.116   1.122   1.125
  1.132   1.133   1.136   1.140   1.142   1.147   1.151   1.153
  1.157   1.163   1.169   1.176   1.178   1.191   1.196   1.200
  1.208   1.227   1.237   1.238   1.243   1.250   1.260   1.261
  1.261   1.269   1.284   1.290   1.291   1.298   1.303   1.309
  1.311   1.311   1.318   1.328   1.337   1.338   1.344   1.349
  1.353   1.362   1.372   1.374   1.380   1.387   1.391   1.399
  1.413   1.417   1.423   1.438   1.444   1.454   1.462   1.481
  1.489   1.496   1.505   1.512   1.514   1.516   1.525   1.526
  1.532   1.536   1.540   1.544   1.545   1.551   1.554   1.560
  1.561   1.564   1.570   1.574   1.577   1.581   1.590   1.595
  1.599   1.606   1.610   1.613   1.627   1.640   1.645   1.648
  1.661   1.663   1.679   1.693   1.701   1.709   1.728   1.731
  1.737   1.745   1.762   1.764   1.772   1.783   1.797   1.802
  1.804   1.810   1.816   1.833   1.837   1.839   1.844   1.846
  1.848   1.854   1.858   1.866   1.873   1.879   1.881   1.891
  1.901   1.905   1.909   1.926   1.928   1.931   1.934   1.945
  1.951   1.964   1.969   1.973   1.981   1.990   1.994   2.000
  2.000   2.005   2.011   2.020   2.022   2.025   2.033   2.034
  2.043   2.045   2.046   2.060   2.064   2.066   2.080   2.086
  2.094   2.101   2.107   2.121   2.131   2.139   2.142   2.145
  2.150   2.161   2.163   2.165   2.168   2.173   2.177   2.190
  2.197   2.201   2.206   2.209   2.217   2.219   2.230   2.239
  2.242   2.247   2.250   2.259   2.261   2.262   2.271   2.279
  2.282   2.290   2.294   2.300   2.309   2.315   2.318   2.320
  2.326   2.334   2.343   2.351   2.352   2.358   2.361   2.364
  2.368   2.375   2.378   2.382   2.385   2.389   2.394   2.398
  2.416   2.422   2.435   2.440   2.462   2.471   2.474   2.487
  2.507   2.513   2.522   2.532   2.545   2.551   2.564   2.578
  2.588   2.595   2.598   2.604   2.620   2.623   2.638   2.654
  2.665   2.676   2.685   2.695   2.704   2.709   2.715   2.717
  2.729   2.733   2.736   2.740   2.741   2.743   2.755   2.760
  2.761   2.772   2.775   2.779   2.785   2.790   2.798   2.816
  2.817   2.821   2.832   2.838   2.840   2.850   2.860   2.863
  2.878   2.886   2.894   2.899   2.907   2.914   2.918   2.931
  2.943   2.980   2.986   2.990   3.002   3.004   3.021   3.029
  3.038   3.043   3.079   3.097   3.161   3.223   3.271   3.327
  3.364   3.374   3.378   3.391   3.414   3.501   3.547   3.560
  3.594   3.676  13.193  13.248  13.266  13.326  13.372  13.413
 13.632  13.663  13.667  13.714  13.727  13.734  13.758  13.770
 13.772  13.806  13.821  13.835  13.901  13.913  13.938  14.023
 14.069  14.079  14.126  14.173  14.177  14.192  14.195  14.216
 14.234  14.244  14.250  14.257  14.264  14.297  14.316  14.399
 14.578  14.582  14.585  14.592  14.606  14.623  19.490  19.561
 19.636
 --------------------------------------------------------------
 
          Ground-State Mulliken Net Atomic Charges

     Atom                 Charge (a.u.)
  ----------------------------------------
      1 N                    -0.696545
      2 C                     0.313241
      3 C                    -0.295657
      4 H                     0.248981
      5 C                    -0.248041
      6 H                     0.227035
      7 C                    -0.233282
      8 H                     0.224191
      9 C                    -0.333369
     10 H                     0.224384
     11 C                     0.161593
     12 C                     0.314895
     13 C                    -0.303809
     14 H                     0.264327
     15 C                    -0.244280
     16 H                     0.229310
     17 C                    -0.236698
     18 H                     0.222215
     19 C                    -0.328033
     20 H                     0.223935
     21 C                     0.144510
     22 C                     0.207109
     23 C                    -0.247534
     24 H                     0.245214
     25 C                    -0.313059
     26 H                     0.232056
     27 C                    -0.287939
     28 H                     0.286480
     29 C                     0.085302
     30 C                     0.188406
     31 C                    -0.540254
     32 H                     0.260072
     33 H                     0.255030
     34 C                    -0.227329
     35 C                    -0.669966
     36 H                     0.232778
     37 H                     0.232494
     38 H                     0.241191
     39 C                    -0.529602
     40 H                     0.258987
     41 H                     0.264991
     42 C                     0.080636
     43 C                    -0.324210
     44 H                     0.262944
     45 C                     0.074586
     46 C                     0.247833
     47 C                    -0.275239
     48 H                     0.289636
     49 C                     0.073973
     50 C                     0.003812
     51 N                    -0.181718
     52 C                     0.002441
     53 N                    -0.182148
     54 C                    -0.431540
     55 C                     0.060593
     56 C                    -0.271699
     57 H                     0.231335
     58 C                    -0.237288
     59 H                     0.240277
     60 C                    -0.224102
     61 H                     0.241514
     62 C                    -0.330783
     63 H                     0.228448
     64 C                     0.153768
     65 C                     0.134753
     66 C                    -0.326332
     67 H                     0.228470
     68 C                    -0.232665
     69 H                     0.240761
     70 C                    -0.235338
     71 H                     0.240172
     72 C                    -0.288650
     73 H                     0.232320
     74 C                     0.139789
     75 C                    -0.601099
     76 H                     0.234292
     77 H                     0.222932
     78 H                     0.224200
  ----------------------------------------
  Sum of atomic charges =     0.000000

 -----------------------------------------------------------------
                    Cartesian Multipole Moments
 -----------------------------------------------------------------
    Charge (ESU x 10^10)
                 0.0000
    Dipole Moment (Debye)
         X      -5.1614      Y       5.9910      Z       3.1935
       Tot       8.5282
    Quadrupole Moments (Debye-Ang)
        XX    -329.8738     XY      71.4570     YY    -302.3425
        XZ      49.0128     YZ     -41.7207     ZZ    -282.2002
    Octopole Moments (Debye-Ang^2)
       XXX   -2552.2125    XXY    1081.0566    XYY    -958.9459
       YYY    1657.0938    XXZ     959.8917    XYZ    -417.9009
       YYZ     696.8687    XZZ    -882.1991    YZZ     679.6222
       ZZZ    1441.6406
    Hexadecapole Moments (Debye-Ang^3)
      XXXX  -35226.5551   XXXY   11310.7231   XXYY   -9707.4005
      XYYY    8104.4787   YYYY  -13501.4707   XXXZ   11729.6706
      XXYZ   -4771.2708   XYYZ    4561.8396   YYYZ   -6240.5459
      XXZZ   -9637.7385   XYZZ    4001.5426   YYZZ   -5986.6077
      XZZZ    8452.3545   YZZZ   -5658.9184   ZZZZ  -15099.0805
 -----------------------------------------------------------------
 Calculating analytic gradient of the SCF energy
 -1.377041948999406E-003 -1.377032600079837E-003
 -1.377036310021156E-003 -1.377038247901835E-003
 -1.377023931110349E-003 -1.377050619946197E-003
 -1.377072347903211E-003 -1.377002187194807E-003
 -1.377027576689902E-003 -1.377047008806795E-003
 -1.377026564233376E-003 -1.377047990065093E-003
 -1.377035958255454E-003 -1.377038587422325E-003
 -1.377034946903115E-003 -1.377039632227304E-003
 -1.377005438687116E-003 -1.377069104684522E-003
 -1.377047381919451E-003 -1.377027158683325E-003
 -1.377043447573735E-003 -1.377031119029709E-003
 -1.377024891061131E-003 -1.377049661935858E-003
 -1.377051464166364E-003 -1.377023054488752E-003
 -1.377028563355537E-003 -1.377046019987040E-003
 -1.377029695941701E-003 -1.377044874355943E-003
 -1.377035130022167E-003 -1.377039414605305E-003
 -1.377031912287481E-003 -1.377042641382553E-003
 -1.377010773497408E-003 -1.377063770825213E-003
 -1.377016005186891E-003 -1.377058557441547E-003
 -1.377029185660209E-003 -1.377045404746389E-003
 -1.376999864759103E-003 -1.377074683007905E-003
 -1.377037751440921E-003 -1.377036814076983E-003
 -1.377024646716361E-003 -1.377049931416708E-003
 -1.377030334237139E-003 -1.377044242261138E-003
 -1.377064684979698E-003 -1.377009836191359E-003
 -1.377022213432506E-003 -1.377052379777413E-003
 -1.377033378983132E-003 -1.377041192081651E-003
 -1.377024460267645E-003 -1.377050070681691E-003
 -1.377022864151438E-003 -1.377051716257689E-003
 -1.377025685587253E-003 -1.377048889367792E-003
 -1.377027554188819E-003 -1.377047004601028E-003
 -1.377024088958343E-003 -1.377050507568227E-003
 -1.377034590782523E-003 -1.377039953946397E-003
 -1.377062442320234E-003 -1.377012096419770E-003
 -1.377032184377757E-003 -1.377042393371239E-003
 -1.377009509038711E-003 -1.377065039440781E-003
 -1.377045093432618E-003 -1.377029462461925E-003
 -1.377055183489925E-003 -1.377019390085321E-003
 -1.377042124541320E-003 -1.377032413616933E-003
 -1.377039694189014E-003 -1.377034863111955E-003
 -1.377063947221116E-003 -1.377010617580673E-003
 -1.377029644367912E-003 -1.377044896330810E-003
 -1.377058179206739E-003 -1.377016369176029E-003
 -1.377043544638652E-003 -1.377031033190527E-003
 -1.377028366914286E-003 -1.377046176941489E-003
 -1.377057110015955E-003 -1.377017421156647E-003
 -1.377046607352601E-003 -1.377027953521943E-003
 -1.377048035382568E-003 -1.377026522993239E-003
[...]
     44  H         8.1914685874   -1.4021991991   -2.9990461936
     45  C         7.5254570890   -3.2609153650   -3.7861659833
     46  C         4.9545768771   -2.3929718356   -3.0254786125
     47  C         5.1571578764   -3.6210012983   -3.6617879958
     48  H         4.3128041649   -4.2662056573   -3.8641322429
     49  C         6.4076251694   -4.0633729354   -4.0446528192
     50  C         8.8367550312   -3.6818811039   -4.1520841215
     51  N         9.9007592895   -4.0111361051   -4.4427325551
     52  C         6.5401559433   -5.3277534407   -4.6910211303
     53  N         6.6335718550   -6.3493695363   -5.2128449321
     54  C         3.5013748000   -2.1461091242   -2.5962404904
     55  C         3.1118893025   -3.3236000909   -1.7056279573
     56  C         3.6460151189   -3.6879276082   -0.4863040655
     57  H         4.4535415823   -3.1215784328   -0.0393644608
     58  C         3.1217719365   -4.7984745211    0.1647607653
     59  H         3.5258664823   -5.0976060222    1.1226032748
     60  C         2.0828710641   -5.5300766537   -0.4012933202
     61  H         1.6879178450   -6.3908442640    0.1217508035
     62  C         1.5497089134   -5.1665697423   -1.6287306773
     63  H         0.7397228846   -5.7367498499   -2.0660793820
     64  C         2.0735253505   -4.0588247938   -2.2769113167
     65  C         1.7194917128   -3.4556404689   -3.5552706969
     66  C         0.7497946107   -3.8086568702   -4.4820624808
     67  H         0.0967125062   -4.6550730226   -4.3099865729
     68  C         0.6301625836   -3.0556954829   -5.6407370446
     69  H        -0.1185509116   -3.3175876385   -6.3768316949
     70  C         1.4676691540   -1.9684496836   -5.8675614800
     71  H         1.3643821861   -1.3929941075   -6.7779939296
     72  C         2.4363655889   -1.6133504476   -4.9358376307
     73  H         3.0794810924   -0.7615492355   -5.1183438450
     74  C         2.5547527314   -2.3623976290   -3.7814831135
     75  C        -2.6495226821    1.6128940559    1.1168953986
     76  H        -1.8154110330    2.0575063215    0.5742016221
     77  H        -2.7159758393    2.0997133709    2.0916407051
     78  H        -3.5631587680    1.8299057239    0.5600274286

Z-matrix Print:
$molecule
0 1
N 
C  1 1.399875
C  2 1.395093 1 121.093865
H  3 1.080748 2 120.435296 1 1.623891 0
C  3 1.384203 2 120.275413 1 -177.597418 0
H  5 1.082254 3 119.280167 2 179.748430 0
C  5 1.384031 3 120.271923 2 0.636829 0
H  7 1.081731 5 120.713016 3 179.136625 0
C  7 1.386653 5 119.190653 3 -1.432170 0
H  9 1.081195 7 118.486035 5 -179.071982 0
C  9 1.388364 7 121.860763 5 0.101490 0
C  1 1.400790 2 119.080946 3 152.720958 0
C  12 1.396763 1 121.643815 2 -155.223821 0
H  13 1.080109 12 121.137151 1 -3.033570 0
C  13 1.384135 12 120.492653 1 176.514702 0
H  15 1.082373 13 118.904314 12 -179.260804 0
C  15 1.383649 13 120.372824 12 -0.023061 0
H  17 1.081879 15 120.818619 13 -178.909256 0
C  17 1.386329 15 118.975511 13 2.305758 0
H  19 1.081034 17 118.445889 15 177.935217 0
C  19 1.388711 17 121.916597 15 -0.970999 0
C  1 1.419520 2 118.528363 3 -2.903093 0
C  22 1.381397 1 120.726560 2 -94.785360 0
H  23 1.082114 22 120.342243 1 1.735464 0
C  23 1.383806 22 118.468535 1 -178.758220 0
H  25 1.083075 23 119.150095 22 -178.175420 0
C  22 1.383979 1 119.412783 2 87.094678 0
H  27 1.081669 22 117.243005 1 -1.327052 0
C  27 1.391628 22 122.292224 1 175.787425 0
C  25 1.392747 23 122.220906 22 2.292858 0
C  30 1.497673 25 118.199031 23 -176.864066 0
H  31 1.090544 30 108.838231 25 3.981802 0
H  31 1.094181 30 111.998587 25 -112.700765 0
C  21 1.515922 19 122.941987 17 171.357161 0
C  34 1.526397 21 112.175291 19 21.655806 0
H  35 1.089380 34 111.056058 21 -177.771936 0
H  35 1.089606 34 110.918311 21 -60.391718 0
H  35 1.090750 34 112.092901 21 60.785900 0
C  31 1.527652 30 110.895659 25 124.388514 0
H  39 1.090820 31 109.698446 30 -151.521909 0
H  39 1.093593 31 109.597945 30 -35.495448 0
C  39 1.498600 31 111.949648 30 88.051810 0
C  42 1.396370 39 116.957811 31 130.589835 0
H  43 1.082154 42 118.883402 39 3.663676 0
C  43 1.381415 42 122.351950 39 -175.684236 0
C  42 1.396943 39 123.737922 31 -45.991646 0
C  46 1.397850 42 117.983120 39 174.354120 0
H  47 1.081742 46 119.736828 42 -178.881106 0
C  47 1.380560 46 122.616147 42 1.547875 0
C  45 1.424995 43 120.237580 42 179.956110 0
N  50 1.151082 45 179.363508 43 1.652813 0
C  49 1.426189 47 119.599380 46 -179.952872 0
N  52 1.150967 49 179.323144 47 5.024044 0
C  46 1.535247 42 128.015692 39 -8.785999 0
C  54 1.526884 46 106.291960 42 -120.827404 0
C  55 1.380136 54 128.329043 46 63.519344 0
H  56 1.082869 55 121.009860 54 -0.541074 0
C  56 1.389975 55 118.605070 54 179.183717 0
H  58 1.081774 56 119.655379 55 -179.835876 0
C  58 1.391033 56 120.749696 55 0.159028 0
H  60 1.081889 58 119.627615 56 -179.941013 0
C  60 1.386723 58 120.628514 56 0.072937 0
H  62 1.082800 60 120.469721 58 -179.879148 0
C  62 1.386225 60 118.559282 58 -0.070365 0
C  64 1.457180 62 130.479916 60 179.871598 0
C  65 1.387039 64 130.593366 62 0.721084 0
H  66 1.082842 65 120.957906 64 0.420328 0
C  66 1.387007 65 118.706094 64 -179.529482 0
H  68 1.082125 66 119.771571 65 179.818185 0
C  68 1.391032 66 120.570580 65 0.032947 0
H  70 1.081991 68 119.698225 66 179.778547 0
C  70 1.390172 68 120.657203 66 -0.233075 0
H  72 1.082807 70 120.121744 68 -179.609515 0
C  72 1.381167 70 118.774098 68 0.172713 0
C  34 1.542725 21 107.457184 19 -96.998110 0
H  75 1.089926 34 111.771713 21 -57.865277 0
H  75 1.091576 34 110.541898 21 -178.217948 0
H  75 1.091754 34 110.201092 21 61.959376 0
$end

 
 --------------------------------------------------------------
 
                    Orbital Energies (a.u.)
 --------------------------------------------------------------
 
 Alpha MOs
 -- Occupied --
-14.680 -14.661 -14.658 -10.520 -10.519 -10.507 -10.506 -10.504
-10.504 -10.497 -10.493 -10.491 -10.491 -10.490 -10.489 -10.482
-10.474 -10.473 -10.470 -10.468 -10.467 -10.467 -10.465 -10.462
-10.461 -10.461 -10.460 -10.460 -10.460 -10.459 -10.459 -10.459
-10.458 -10.457 -10.457 -10.452 -10.451 -10.444 -10.444 -10.442
-10.442 -10.441 -10.439 -10.437 -10.436 -10.427 -10.424  -1.091
 -1.042  -1.028  -1.024  -1.002  -0.984  -0.963  -0.959  -0.958
 -0.935  -0.928  -0.910  -0.894  -0.887  -0.880  -0.853  -0.850
 -0.848  -0.841  -0.834  -0.819  -0.818  -0.806  -0.790  -0.771
 -0.769  -0.743  -0.726  -0.723  -0.712  -0.706  -0.702  -0.687
 -0.676  -0.673  -0.671  -0.666  -0.663  -0.642  -0.617  -0.612
 -0.610  -0.606  -0.593  -0.581  -0.576  -0.568  -0.562  -0.555
 -0.538  -0.536  -0.533  -0.530  -0.523  -0.523  -0.520  -0.516
 -0.511  -0.504  -0.503  -0.500  -0.497  -0.497  -0.494  -0.490
 -0.488  -0.488  -0.483  -0.481  -0.471  -0.465  -0.457  -0.448
 -0.446  -0.444  -0.442  -0.441  -0.437  -0.436  -0.431  -0.427
 -0.426  -0.423  -0.421  -0.418  -0.417  -0.415  -0.410  -0.408
 -0.408  -0.402  -0.401  -0.400  -0.395  -0.394  -0.391  -0.376
 -0.373  -0.365  -0.344  -0.336  -0.319  -0.309  -0.304  -0.298
 -0.296  -0.289  -0.287  -0.282  -0.266  -0.230
 -- Virtual --
 -0.061  -0.035  -0.030  -0.016  -0.002   0.004   0.015   0.017
  0.023   0.034   0.046   0.049   0.054   0.066   0.085   0.108
  0.119   0.127   0.136   0.139   0.140   0.145   0.152   0.157
  0.160   0.162   0.166   0.170   0.175   0.183   0.183   0.188
  0.193   0.198   0.200   0.200   0.201   0.202   0.209   0.211
  0.217   0.219   0.224   0.225   0.228   0.231   0.234   0.236
  0.237   0.239   0.242   0.244   0.250   0.253   0.254   0.257
  0.260   0.262   0.265   0.270   0.274   0.278   0.280   0.285
  0.287   0.290   0.295   0.299   0.303   0.307   0.311   0.313
  0.314   0.324   0.333   0.336   0.340   0.348   0.356   0.361
  0.366   0.368   0.376   0.377   0.383   0.388   0.392   0.398
  0.405   0.418   0.423   0.427   0.430   0.435   0.448   0.454
  0.462   0.469   0.474   0.477   0.484   0.488   0.494   0.498
  0.503   0.505   0.509   0.512   0.521   0.524   0.529   0.529
  0.533   0.534   0.536   0.541   0.543   0.544   0.547   0.552
  0.554   0.556   0.560   0.563   0.564   0.568   0.571   0.576
  0.578   0.582   0.585   0.587   0.591   0.595   0.596   0.600
  0.603   0.604   0.611   0.611   0.614   0.617   0.619   0.621
  0.624   0.625   0.634   0.634   0.636   0.637   0.644   0.645
  0.647   0.650   0.651   0.655   0.658   0.661   0.664   0.667
  0.670   0.678   0.680   0.682   0.684   0.689   0.695   0.698
  0.699   0.702   0.705   0.709   0.716   0.719   0.721   0.727
  0.729   0.736   0.737   0.742   0.744   0.745   0.750   0.751
  0.755   0.761   0.769   0.773   0.778   0.781   0.791   0.801
  0.804   0.809   0.819   0.824   0.825   0.832   0.841   0.846
  0.849   0.863   0.871   0.878   0.881   0.894   0.899   0.908
  0.910   0.917   0.920   0.925   0.930   0.934   0.940   0.944
  0.948   0.948   0.952   0.955   0.961   0.967   0.969   0.972
  0.975   0.979   0.984   0.987   0.993   0.997   0.998   1.001
  1.003   1.006   1.009   1.015   1.020   1.020   1.028   1.030
  1.032   1.041   1.043   1.048   1.055   1.056   1.060   1.061
  1.064   1.067   1.069   1.072   1.078   1.081   1.083   1.089
  1.094   1.095   1.101   1.106   1.115   1.117   1.122   1.124
  1.133   1.133   1.135   1.139   1.141   1.147   1.150   1.153
  1.158   1.163   1.169   1.179   1.181   1.190   1.196   1.199
  1.210   1.226   1.237   1.238   1.244   1.249   1.261   1.262
  1.262   1.270   1.284   1.290   1.292   1.298   1.303   1.308
  1.311   1.311   1.317   1.329   1.337   1.339   1.344   1.346
  1.355   1.364   1.371   1.373   1.381   1.389   1.391   1.400
  1.413   1.416   1.424   1.439   1.444   1.455   1.462   1.480
  1.489   1.495   1.502   1.511   1.515   1.516   1.525   1.527
  1.531   1.536   1.540   1.544   1.545   1.551   1.553   1.560
  1.561   1.564   1.570   1.574   1.577   1.581   1.588   1.595
  1.599   1.606   1.610   1.612   1.627   1.641   1.645   1.647
  1.660   1.664   1.680   1.692   1.700   1.709   1.729   1.731
  1.736   1.746   1.761   1.764   1.773   1.784   1.797   1.802
  1.805   1.809   1.816   1.833   1.838   1.839   1.844   1.847
  1.849   1.854   1.859   1.866   1.875   1.880   1.881   1.891
  1.901   1.905   1.909   1.926   1.930   1.931   1.933   1.941
  1.952   1.963   1.970   1.973   1.982   1.990   1.994   2.000
  2.002   2.005   2.012   2.020   2.022   2.026   2.032   2.034
  2.043   2.045   2.047   2.060   2.065   2.067   2.080   2.086
  2.094   2.102   2.107   2.121   2.130   2.140   2.142   2.145
  2.150   2.162   2.163   2.166   2.167   2.173   2.178   2.190
  2.197   2.201   2.206   2.209   2.217   2.219   2.230   2.239
  2.243   2.247   2.250   2.260   2.260   2.263   2.270   2.279
  2.282   2.290   2.294   2.300   2.309   2.315   2.318   2.320
  2.326   2.334   2.343   2.351   2.353   2.358   2.360   2.364
  2.368   2.375   2.378   2.381   2.385   2.389   2.394   2.398
  2.416   2.422   2.435   2.441   2.462   2.470   2.472   2.486
  2.508   2.514   2.522   2.534   2.548   2.554   2.564   2.577
  2.589   2.594   2.598   2.604   2.621   2.623   2.637   2.654
  2.665   2.676   2.684   2.695   2.704   2.709   2.716   2.717
  2.730   2.733   2.736   2.740   2.741   2.743   2.754   2.760
  2.762   2.772   2.775   2.779   2.785   2.789   2.798   2.814
  2.817   2.821   2.832   2.839   2.841   2.850   2.860   2.862
  2.879   2.886   2.895   2.900   2.908   2.913   2.919   2.929
  2.943   2.980   2.987   2.990   3.002   3.006   3.021   3.029
  3.037   3.042   3.080   3.099   3.163   3.221   3.269   3.327
  3.364   3.375   3.378   3.391   3.415   3.501   3.546   3.559
  3.594   3.676  13.193  13.249  13.266  13.326  13.373  13.413
 13.633  13.663  13.667  13.714  13.728  13.733  13.757  13.770
 13.772  13.806  13.820  13.837  13.901  13.913  13.938  14.023
 14.070  14.079  14.127  14.173  14.177  14.191  14.196  14.217
 14.234  14.245  14.250  14.258  14.265  14.297  14.316  14.399
 14.578  14.582  14.585  14.592  14.606  14.624  19.490  19.561
 19.639
 --------------------------------------------------------------
 
          Ground-State Mulliken Net Atomic Charges

     Atom                 Charge (a.u.)
  ----------------------------------------
      1 N                    -0.690288
      2 C                     0.314110
      3 C                    -0.296611
      4 H                     0.248744
      5 C                    -0.247429
      6 H                     0.227053
      7 C                    -0.233544
      8 H                     0.224166
      9 C                    -0.332458
     10 H                     0.224371
     11 C                     0.159651
     12 C                     0.311155
     13 C                    -0.301509
     14 H                     0.264519
     15 C                    -0.244777
     16 H                     0.229459
     17 C                    -0.236098
     18 H                     0.222178
     19 C                    -0.329515
     20 H                     0.224084
     21 C                     0.147319
     22 C                     0.198689
     23 C                    -0.249458
     24 H                     0.245116
     25 C                    -0.314267
     26 H                     0.231787
     27 C                    -0.282180
     28 H                     0.286066
     29 C                     0.084624
     30 C                     0.190607
     31 C                    -0.542628
     32 H                     0.260501
     33 H                     0.255215
     34 C                    -0.228461
     35 C                    -0.670078
     36 H                     0.232837
     37 H                     0.232630
     38 H                     0.240971
     39 C                    -0.528030
     40 H                     0.258784
     41 H                     0.265566
     42 C                     0.080540
     43 C                    -0.323633
     44 H                     0.263111
     45 C                     0.074472
     46 C                     0.248134
     47 C                    -0.274755
     48 H                     0.289934
     49 C                     0.073691
     50 C                     0.003768
     51 N                    -0.181765
     52 C                     0.002359
     53 N                    -0.182191
     54 C                    -0.433955
     55 C                     0.061428
     56 C                    -0.272474
     57 H                     0.231457
     58 C                    -0.236939
     59 H                     0.240238
     60 C                    -0.224095
     61 H                     0.241457
     62 C                    -0.330743
     63 H                     0.228419
     64 C                     0.152640
     65 C                     0.135938
     66 C                    -0.326800
     67 H                     0.228293
     68 C                    -0.232341
     69 H                     0.240591
     70 C                    -0.236039
     71 H                     0.240016
     72 C                    -0.288429
     73 H                     0.232432
     74 C                     0.141908
     75 C                    -0.601412
     76 H                     0.234970
     77 H                     0.222923
     78 H                     0.223980
  ----------------------------------------
  Sum of atomic charges =     0.000000

 -----------------------------------------------------------------
                    Cartesian Multipole Moments
 -----------------------------------------------------------------
    Charge (ESU x 10^10)
                 0.0000
    Dipole Moment (Debye)
         X      -5.2015      Y       6.0688      Z       3.0158
       Tot       8.5428
    Quadrupole Moments (Debye-Ang)
        XX    -329.8831     XY      73.0147     YY    -303.7926
        XZ      47.2606     YZ     -42.0418     ZZ    -280.2274
    Octopole Moments (Debye-Ang^2)
       XXX   -2548.2293    XXY    1087.2725    XYY    -969.8830
       YYY    1671.3429    XXZ     942.1129    XYZ    -413.9625
       YYZ     697.7110    XZZ    -865.0444    YZZ     670.8103
       ZZZ    1422.8293
    Hexadecapole Moments (Debye-Ang^3)
      XXXX  -35033.9340   XXXY   11362.6040   XXYY   -9760.6354
      XYYY    8195.3714   YYYY  -13636.5281   XXXZ   11503.9758
      XXYZ   -4710.8654   XYYZ    4532.3198   YYYZ   -6186.8299
      XXZZ   -9440.3837   XYZZ    3937.3388   YYZZ   -5930.8341
      XZZZ    8255.3292   YZZZ   -5522.1896   ZZZZ  -14871.1635
 -----------------------------------------------------------------
Archival summary:
1\1\ctcp005\OPT\ProcedureUnspecified\BasisUnspecified\34431\mewes\ThuJan1000:00:542019ThuJan1000:00:542019\0\\#,OPT,ProcedureUnspecified,BasisUnspecified,\\0,1\N\C,1,1.39988\C,2,1.39509,1,121.094\H,3,1.08075,2,120.435,1,1.62389,0\C,3,1.3842,2,120.275,1,-177.597,0\H,5,1.08225,3,119.28,2,179.748,0\C,5,1.38403,3,120.272,2,0.636829,0\H,7,1.08173,5,120.713,3,179.137,0\C,7,1.38665,5,119.191,3,-1.43217,0\H,9,1.0812,7,118.486,5,-179.072,0\C,9,1.38836,7,121.861,5,0.10149,0\C,1,1.40079,2,119.081,3,152.721,0\C,12,1.39676,1,121.644,2,-155.224,0\H,13,1.08011,12,121.137,1,-3.03357,0\C,13,1.38413,12,120.493,1,176.515,0\H,15,1.08237,13,118.904,12,-179.261,0\C,15,1.38365,13,120.373,12,-0.0230608,0\H,17,1.08188,15,120.819,13,-178.909,0\C,17,1.38633,15,118.976,13,2.30576,0\H,19,1.08103,17,118.446,15,177.935,0\C,19,1.38871,17,121.917,15,-0.970999,0\C,1,1.41952,2,118.528,3,-2.90309,0\C,22,1.3814,1,120.727,2,-94.7854,0\H,23,1.08211,22,120.342,1,1.73546,0\C,23,1.38381,22,118.469,1,-178.758,0\H,25,1.08307,23,119.15,22,-178.175,0\C,22,1.38398,1,119.413,2,87.0947,0\H,27,1.08167,22,117.243,1,-1.32705,0\C,27,1.39163,22,122.292,1,175.787,0\C,25,1.39275,23,122.221,22,2.29286,0\C,30,1.49767,25,118.199,23,-176.864,0\H,31,1.09054,30,108.838,25,3.9818,0\H,31,1.09418,30,111.999,25,-112.701,0\C,21,1.51592,19,122.942,17,171.357,0\C,34,1.5264,21,112.175,19,21.6558,0\H,35,1.08938,34,111.056,21,-177.772,0\H,35,1.08961,34,110.918,21,-60.3917,0\H,35,1.09075,34,112.093,21,60.7859,0\C,31,1.52765,30,110.896,25,124.389,0\H,39,1.09082,31,109.698,30,-151.522,0\H,39,1.09359,31,109.598,30,-35.4954,0\C,39,1.4986,31,111.95,30,88.0518,0\C,42,1.39637,39,116.958,31,130.59,0\H,43,1.08215,42,118.883,39,3.66368,0\C,43,1.38141,42,122.352,39,-175.684,0\C,42,1.39694,39,123.738,31,-45.9916,0\C,46,1.39785,42,117.983,39,174.354,0\H,47,1.08174,46,119.737,42,-178.881,0\C,47,1.38056,46,122.616,42,1.54788,0\C,45,1.42499,43,120.238,42,179.956,0\N,50,1.15108,45,179.364,43,1.65281,0\C,49,1.42619,47,119.599,46,-179.953,0\N,52,1.15097,49,179.323,47,5.02404,0\C,46,1.53525,42,128.016,39,-8.786,0\C,54,1.52688,46,106.292,42,-120.827,0\C,55,1.38014,54,128.329,46,63.5193,0\H,56,1.08287,55,121.01,54,-0.541074,0\C,56,1.38998,55,118.605,54,179.184,0\H,58,1.08177,56,119.655,55,-179.836,0\C,58,1.39103,56,120.75,55,0.159028,0\H,60,1.08189,58,119.628,56,-179.941,0\C,60,1.38672,58,120.629,56,0.0729375,0\H,62,1.0828,60,120.47,58,-179.879,0\C,62,1.38623,60,118.559,58,-0.0703649,0\C,64,1.45718,62,130.48,60,179.872,0\C,65,1.38704,64,130.593,62,0.721084,0\H,66,1.08284,65,120.958,64,0.420328,0\C,66,1.38701,65,118.706,64,-179.529,0\H,68,1.08213,66,119.772,65,179.818,0\C,68,1.39103,66,120.571,65,0.032947,0\H,70,1.08199,68,119.698,66,179.779,0\C,70,1.39017,68,120.657,66,-0.233075,0\H,72,1.08281,70,120.122,68,-179.61,0\C,72,1.38117,70,118.774,68,0.172713,0\C,34,1.54273,21,107.457,19,-96.9981,0\H,75,1.08993,34,111.772,21,-57.8653,0\H,75,1.09158,34,110.542,21,-178.218,0\H,75,1.09175,34,110.201,21,61.9594,0\\\@

 Total job time:  26080.25s(wall), 96907.69s(cpu) 
 Thu Jan 10 00:00:54 2019

        *************************************************************
        *                                                           *
        *  Thank you very much for using Q-Chem.  Have a nice day.  *
        *                                                           *
        *************************************************************


0 sent ACK to 0 
now end server 0 ... 
