mFile = /cm/shared/apps/q-chem/intel/QCHEM_5.1.0_Trunk/bin/mpi/machines
Process 0 of 1 is on ctcp010 - thread support 0
initial socket setup ...start
initial socket setup ...done 
now start server 0 ... 
Q-Chem Developer Version!
                  Welcome to Q-Chem
     A Quantum Leap Into The Future Of Chemistry


 Q-Chem 5.1, Q-Chem, Inc., Pleasanton, CA (2018)

 Yihan Shao,  Zhengting Gan,  E. Epifanovsky,  A. T. B. Gilbert,  M. Wormit,  
 J. Kussmann,  A. W. Lange,  A. Behn,  Jia Deng,  Xintian Feng,  D. Ghosh,  
 M. Goldey,  P. R. Horn,  L. D. Jacobson,  I. Kaliman,  T. Kus,  A. Landau,  
 Jie Liu,  E. I. Proynov,  R. M. Richard,  R. P. Steele,  E. J. Sundstrom,  
 H. L. Woodcock III,  P. M. Zimmerman,  D. Zuev,  B. Albrecht,  E. Alguire,  
 S. A. Baeppler,  D. Barton,  Z. Benda,  Y. A. Bernard,  E. J. Berquist,  
 K. B. Bravaya,  H. Burton,  D. Casanova,  Chun-Min Chang,  Yunqing Chen,  
 A. Chien,  K. D. Closser,  M. P. Coons,  S. Coriani,  S. Dasgupta,  
 A. L. Dempwolff,  M. Diedenhofen,  Hainam Do,  R. G. Edgar,  Po-Tung Fang,  
 S. Faraji,  S. Fatehi,  Qingguo Feng,  K. D. Fenk,  J. Fosso-Tande,  
 Qinghui Ge,  A. Ghysels,  G. Gidofalvi,  J. Gomes,  J. Gonthier,  A. Gunina,  
 D. Hait,  M. W. D. Hanson-Heine,  P. H. P. Harbach,  A. W. Hauser,  
 J. E. Herr,  E. G. Hohenstein,  Z. C. Holden,  Kerwin Hui,  B. C. Huynh,  
 T.-C. Jagau,  Hyunjun Ji,  B. Kaduk,  K. Khistyaev,  Jaehoon Kim,  
 P. Klunzinger,  K. Koh,  D. Kosenkov,  L. Koulias,  T. Kowalczyk,  
 C. M. Krauter,  A. Kunitsa,  Ka Un Lao,  A. Laurent,  K. V. Lawler,  
 Joonho Lee,  D. Lefrancois,  S. Lehtola,  D. S. Levine,  Yi-Pei Li,  
 You-Sheng Lin,  Fenglai Liu,  E. Livshits,  A. Luenser,  P. Manohar,  
 E. Mansoor,  S. F. Manzer,  Shan-Ping Mao,  Yuezhi Mao,  N. Mardirossian,  
 A. V. Marenich,  T. Markovich,  L. A. Martinez-Martinez,  S. A. Maurer,  
 N. J. Mayhall,  S. C. McKenzie,  J.-M. Mewes,  A. F. Morrison,  
 J. W. Mullinax,  K. Nanda,  T. S. Nguyen-Beck,  R. Olivares-Amaya,  
 J. A. Parkhill,  T. M. Perrine,  F. Plasser,  P. Pokhilko,  S. Prager,  
 A. Prociuk,  E. Ramos,  D. R. Rehn,  F. Rob,  M. Schneider,  N. Sergueev,  
 S. M. Sharada,  S. Sharma,  D. W. Small,  T. Stauch,  T. Stein,  
 Yu-Chuan Su,  A. J. W. Thom,  A. Tkatchenko,  T. Tsuchimochi,  N. M. Tubman,  
 L. Vogt,  M. L. Vidal,  O. Vydrov,  M. A. Watson,  J. Wenzel,  
 M. de Wergifosse,  T. A. Wesolowski,  A. White,  J. Witte,  A. Yamada,  
 Jun Yang,  K. Yao,  S. Yeganeh,  S. R. Yost,  Zhi-Qiang You,  A. Zech,  
 Igor Ying Zhang,  Xing Zhang,  Yan Zhao,  Ying Zhu,  B. R. Brooks,  
 G. K. L. Chan,  C. J. Cramer,  M. S. Gordon,  W. J. Hehre,  A. Klamt,  
 M. W. Schmidt,  C. D. Sherrill,  D. G. Truhlar,  A. Aspuru-Guzik,  R. Baer,  
 A. T. Bell,  N. A. Besley,  Jeng-Da Chai,  A. E. DePrince, III,  
 R. A. DiStasio Jr.,  A. Dreuw,  B. D. Dunietz,  T. R. Furlani,  
 Chao-Ping Hsu,  Yousung Jung,  Jing Kong,  D. S. Lambrecht,  WanZhen Liang,  
 C. Ochsenfeld,  V. A. Rassolov,  L. V. Slipchenko,  J. E. Subotnik,  
 T. Van Voorhis,  J. M. Herbert,  A. I. Krylov,  P. M. W. Gill,  M. Head-Gordon

 Contributors to earlier versions of Q-Chem not listed above: 
 R. D. Adamson,  B. Austin,  J. Baker,  G. J. O. Beran,  K. Brandhorst,  
 S. T. Brown,  E. F. C. Byrd,  A. K. Chakraborty,  C.-L. Cheng,  
 Siu Hung Chien,  D. M. Chipman,  D. L. Crittenden,  H. Dachsel,  
 R. J. Doerksen,  A. D. Dutoi,  L. Fusti-Molnar,  W. A. Goddard III,  
 A. Golubeva-Zadorozhnaya,  S. R. Gwaltney,  G. Hawkins,  A. Heyden,  
 S. Hirata,  G. Kedziora,  F. J. Keil,  C. Kelley,  Jihan Kim,  R. A. King,  
 R. Z. Khaliullin,  P. P. Korambath,  W. Kurlancheek,  A. M. Lee,  M. S. Lee,  
 S. V. Levchenko,  Ching Yeh Lin,  D. Liotard,  R. C. Lochan,  I. Lotan,  
 P. E. Maslen,  N. Nair,  D. P. O'Neill,  D. Neuhauser,  E. Neuscamman,  
 C. M. Oana,  R. Olson,  B. Peters,  R. Peverati,  P. A. Pieniazek,  
 Y. M. Rhee,  J. Ritchie,  M. A. Rohrdanz,  E. Rosta,  N. J. Russ,  
 H. F. Schaefer III,  N. E. Schultz,  N. Shenvi,  A. C. Simmonett,  A. Sodt,  
 D. Stuck,  K. S. Thanthiriwatte,  V. Vanovschi,  Tao Wang,  A. Warshel,  
 C. F. Williams,  Q. Wu,  X. Xu,  W. Zhang

 Please cite Q-Chem as follows:
 Y. Shao et al., Mol. Phys. 113, 184-215 (2015)
 DOI: 10.1080/00268976.2014.952696

 Q-Chem 5.1.1 for Intel X86 EM64T Linux

 Parts of Q-Chem use Armadillo 8.300.2 (Tropical Shenanigans).
 http://arma.sourceforge.net/

 Q-Chem begins on Mon Jan 14 16:40:13 2019  

Host: ctcp010
0

     Scratch files written to /scratch/mewes/143314/qchem87707//
 Parallel job on  1  processors
The previous job contains 0 fragments, simply inherited here
Symmetry turned off for PCM/SM12/SMD calculation
Input Ideriv = 2
Curr. Ideriv = -1
Max.  Ideriv = 2
Input Ideriv = 1
Curr. Ideriv = 2
Max.  Ideriv = 1

Checking the input file for inconsistencies... 	...done.

--------------------------------------------------------------
User input:
--------------------------------------------------------------
$solvent
dielectric      3.50000000000000000000 
dielectric_infi 2.25
$end

$rem
threads 8
jobtype	sp
method PBEh-3c
basis def2-mSVP
mem_static	1024
mem_total	14000
sym_ignore	true
cis_n_roots             2
cis_singlets            true 
cis_triplets		false
rpa                     false
calc_soc 		true
cis_moments             true
cis_relaxed_density	true
solvent_method		pcm
$end

$pcm
StateSpecific   1
ChargeSeparation Excited
$end


$molecule
read moms1opt_350.mol
$end


--------------------------------------------------------------
 Adding empirical dispersion correction 
 ----------------------------------------------------------------
 Doing -D3(BJ) with
 s6 =   1.00000
 s8 =   0.00000
 a1 =   0.48600
 a2 =   4.50000
 -D3 energy including 3body term =     -0.0782837135 hartrees
 ----------------------------------------------------------------
 Adding gCP correction 
 ----------------------------------------------------------------
 gCP energy =      0.1090795360 hartrees
 ----------------------------------------------------------------
             Standard Nuclear Orientation (Angstroms)
    I     Atom           X                Y                Z
 ----------------------------------------------------------------
    1      N       0.0000000000     0.0000000000     0.0000000000
    2      C       0.0000000000     0.0000000000     1.3786430000
    3      C       1.1604187343     0.0000000000    -0.7457273424
    4      C       2.4044086157     0.1870234884    -0.1175684415
    5      C       3.5293792103     0.2365832769    -0.9281321903
    6      H       4.5000220287     0.4122909085    -0.4852145210
    7      C       3.4456993877     0.0719190798    -2.3013345946
    8      H       4.3440304528     0.1150116098    -2.9017952420
    9      C       2.2116100814    -0.1595606405    -2.9053474300
   10      H       2.1431016240    -0.3153339832    -3.9727910065
   11      C       1.0737757978    -0.1940343930    -2.1390462422
   12      H       0.1196586916    -0.3862003511    -2.6069870909
   13      C       1.2154574809     0.1319002631     2.0776722710
   14      C       1.1639094519     0.1200455895     3.4637354011
   15      H       2.0753820508     0.2415784945     4.0319082339
   16      C      -0.0304021304    -0.0264525377     4.1505651772
   17      H      -0.0298198085    -0.0374349033     5.2319272531
   18      C      -1.2272276902    -0.1437429903     3.4484615137
   19      H      -2.1670932001    -0.2515013186     3.9715209328
   20      C      -1.2205469086    -0.1178280038     2.0769615969
   21      H      -2.1606612239    -0.2004733239     1.5529165036
   22      C      -1.2515507276     0.0834735574    -0.6982982171
   23      C      -2.0934030426    -1.0045266355    -0.7524647495
   24      H      -1.7836505186    -1.9282105897    -0.2799002919
   25      C      -1.6019735346     1.2909395982    -1.2829968896
   26      H      -0.9486636274     2.1519153921    -1.2282162303
   27      C      -2.8026741709     1.3493922257    -1.9546483225
   28      H      -3.0777245606     2.2711884277    -2.4519808176
   29      C      -3.3474147259    -0.9235146282    -1.3664671011
   30      C      -3.6833676337     0.2641489504    -2.0219932329
   31      C      -4.9075064699     0.4225755494    -2.8761590654
   32      H      -4.7772797520     1.3157882538    -3.4898166122
   33      H      -5.7953513407     0.6011006616    -2.2634108552
   34      C       2.5232281204     0.3889305346     1.3712135803
   35      C      -5.1431952203    -0.7993185826    -3.7685578963
   36      H      -5.6555755087    -0.4913496995    -4.6814211969
   37      H      -4.1718112513    -1.1956466705    -4.0882795294
   38      C      -5.9827581121    -1.8120119948    -3.0560223358
   39      C      -7.1644697255    -2.2073683732    -3.6189632639
   40      H      -7.4031526094    -1.8637584124    -4.6198039706
   41      C      -8.1174378648    -3.0079372456    -2.9518662304
   42      C      -9.2990795526    -3.3864773453    -3.5911489311
   43      N     -10.2838894809    -3.6949905480    -4.1305468120
   44      C      -5.6590606442    -2.2215280218    -1.7113820823
   45      C      -6.5995731690    -2.9703683626    -1.0316043733
   46      H      -6.3972895732    -3.3024863783    -0.0216331516
   47      C      -7.8227876662    -3.3642749575    -1.5835064651
   48      C      -8.7279401963    -4.0963760284    -0.7990314734
   49      N      -9.4748307220    -4.7040786573    -0.1498065713
   50      C      -4.2491484218    -2.1465845170    -1.1268047728
   51      C      -4.2904809362    -2.3117714059     0.3852212799
   52      C      -4.8177194850    -1.4293047748     1.3084121503
   53      H      -5.2845886978    -0.5054035479     0.9876291955
   54      C      -4.7641828420    -1.7660161056     2.6554397865
   55      H      -5.1862588971    -1.0968858662     3.3943964905
   56      C      -3.7153502373    -3.5161098191     0.7830920025
   57      C      -3.6627422282    -3.8532316436     2.1290993165
   58      H      -3.2276515086    -4.7910686851     2.4514505152
   59      C      -4.1899623057    -2.9685047959     3.0601720415
   60      H      -4.1643721475    -3.2207884742     4.1123528088
   61      C      -3.2532648916    -4.2202009442    -0.4109682192
   62      C      -2.6420514912    -5.4556443144    -0.5569099605
   63      H      -2.4363477306    -6.0798825316     0.3041534371
   64      C      -2.3046636400    -5.8867547306    -1.8331472014
   65      H      -1.8324785255    -6.8511714611    -1.9671537153
   66      C      -2.5773548874    -5.0928415378    -2.9428089517
   67      H      -2.3156372681    -5.4470990246    -3.9315081012
   68      C      -3.1925795992    -3.8554462972    -2.7972136366
   69      H      -3.4168453396    -3.2533015720    -3.6687799999
   70      C      -3.5269531775    -3.4252619180    -1.5274032114
   71      C       3.6106962207    -0.5441399086     1.9286338696
   72      H       3.7417022167    -0.4018072347     2.9995454747
   73      H       4.5753553627    -0.3422158483     1.4671267408
   74      H       3.3576994858    -1.5886291298     1.7504518182
   75      C       2.9039304469     1.8649121935     1.6246869115
   76      H       3.0156913466     2.0516152815     2.6926241160
   77      H       3.8480546880     2.1065140407     1.1366128709
   78      H       2.1396608057     2.5409684444     1.2402803488
 ----------------------------------------------------------------
 Nuclear Repulsion Energy =  5538.6349180041 hartrees
 There are      158 alpha and      158 beta electrons
 Requested basis set is def2-mSVP
 There are 391 shells and 767 basis functions

 Total QAlloc Memory Limit  14000 MB
 Mega-Array Size      1001 MB
 MEM_STATIC part      1024 MB
 Discretize the solute cavity surface with Lebedev spheres
	Using 302 Lebedev grid points for each H atom
	Using 302 Lebedev grid points for other atoms
	Atomic van der Waals radii will be scaled by 1.20
 Remove points where switching function is < 1.0e-08
 Keep 8002 surface tesserae and discard 15554 interior tesserae
 Molecular Surface Area = 614.136 Angst**2
 A cutoff of  1.0D-11 yielded  34885 shell pairs
 There are    140123 function pairs (    154729 Cartesian)
 
 -------------------------------------------------------
 OpenMP Integral Computing Module                       
 Release: version 1.0, May 2013, Q-Chem Inc. Pittsburgh 
 -------------------------------------------------------
 Integral Job Info:
 Integral job number is                      11
 Integral operator is                         1
 short-range coefficients                     0
 long-range coefficients              100000000
 Omega coefficients                           0
 if combine SR and LR in K                    0
 Integral screening is                        0
 Integral computing path is                   2
 max size of driver memory is            800000
 size of driver memory is                593474
 size of scratch memory is              1809772
 max col of scratch BK array               1296
 max len of scratch array in speh3          155
 max len of scratch index in speh4           18
 max int batch size is                      520
 min int batch size is                       52
 fixed nKL is                                52
 max L of basis functions is                  2
 order of int derivative is                   0
 number of shells is                        391
 number of basis is                         814
 number of cartesian basis is               814
 number of contracted shell pairs         34885
 number of primitive shell pairs          73111
 maxK2 (contraction) of shell pair           25
 max number of K2 of shell pair               1
 max number of CS2 of shell pair           8286
 max number of PS2 of shell pair          12955
 mem total for path MDJ                  880588
 -------------------------------------------------------
 Smallest overlap matrix eigenvalue = 2.79E-04

 Scale SEOQF with 1.000000e-02/1.000000e-02/1.000000e-01

 Standard Electronic Orientation quadrupole field applied
 Nucleus-field energy     =    -0.0000001405 hartrees
 Guess from superposition of atomic densities
 Warning:  Energy on first SCF cycle will be non-variational
 SAD guess density has 316.000000 electrons

 -----------------------------------------------------------------------
  General SCF calculation program by
  Eric Jon Sundstrom, Paul Horn, Yuezhi Mao, Dmitri Zuev, Alec White,
  David Stuck, Shaama M.S., Shane Yost, Joonho Lee, David Small,
  Daniel Levine, Susi Lehtola, Hugh Burton, Evgeny Epifanovsky
 -----------------------------------------------------------------------
 Exchange:     0.4200 Hartree-Fock + 0.5800 PBEh-3c
 Correlation:  1.0000 PBEh-3c
 Using SG-1 standard quadrature grid
 Dispersion:   Grimme D3
 using 8 threads for integral computing
 -------------------------------------------------------
 OpenMP Integral computing Module                
 Release: version 2.0, May 2017, Q-Chem Inc. Pleasanton 
 -------------------------------------------------------
 -------------------------------------------------------
 OpenMP BLAS3 based DFT computing Module                
 Release: version 1.0, May 2013, Q-Chem Inc. Pittsburgh 
 -------------------------------------------------------
 A restricted SCF calculation will be
 performed using DIIS
 SCF converges when DIIS error is below 1.0e-08
 ---------------------------------------
  Cycle       Energy         DIIS error
 ---------------------------------------
    1   -1870.9713401327      3.09e-02  
    2   -1855.1708027433      2.14e-03  
    3   -1855.1653762575      2.34e-03  
    4   -1855.5066612939      7.27e-04  
    5   -1855.5408258914      2.07e-04  
    6   -1855.5431431256      9.06e-05  
    7   -1855.5437315476      1.62e-05  
    8   -1855.5437504134      5.61e-06  
    9   -1855.5437526476      1.93e-06  
   10   -1855.5437529168      7.45e-07  
   11   -1855.5437530151      2.67e-07  
   12   -1855.5437527404      9.70e-08  
   13   -1855.5437530275      3.29e-08  
   14   -1855.5437530452      1.23e-08  
   15   -1855.5437530158      5.88e-09  Convergence criterion met
 ---------------------------------------
 SCF time:   CPU 8487.23s  wall 1221.00s 

************** Final PCM Free Energy Summary **************
 G_electrostatic  =      -0.02763673 hartree =     -17.34230735 kcal/mol
 G_cavitation     =       0.00000000 hartree =       0.00000000 kcal/mol
 G_dispersion     =       0.00000000 hartree =       0.00000000 kcal/mol
 G_repulsion      =       0.00000000 hartree =       0.00000000 kcal/mol
 --------------------------------------------------
 Non-electrostatic Free Energy =       0.00000000 hartree =       0.00000000 kcal/mol
 Total                         =      -0.02763673 hartree =     -17.34230735 kcal/mol
 --------------------------------------------------
 SCF Energy (H0 + V/2)                       =   -1855.54375302 
 Solute Internal Energy (H0)                 =   -1855.51611629 
 Total Free Energy (H0 + V/2 + non-elec)     =   -1855.54375302 hartree
                                             = -1164371.27887228 kcal/mol
***********************************************************

 SCF   energy in the final basis set =    -1855.5437530158
 Total energy in the final basis set =    -1855.5437530158
 
 Direct TDDFT/TDA calculation will be performed
 Exchange:     0.4200 Hartree-Fock + 0.5800 PBEh-3c
 Correlation:  1.0000 PBEh-3c
 Using SG-1 standard quadrature grid
 Dispersion:   Grimme D3
 Singlet excitation energies requested
 Adding PCM contribution to the XC response
 CIS energy converged when residual is below 10e- 6
 ---------------------------------------------------
 Iter    Rts Conv    Rts Left    Ttl Dev     Max Dev
 ---------------------------------------------------
   1         0           2      0.000035    0.000020
   2         0           2      0.000026    0.000019
   3         0           2      0.000016    0.000013
   4         0           2      0.000009    0.000008
   5         1           1      0.000011    0.000010
   6         1           1      0.000009    0.000009
   7         1           1      0.000011    0.000010
   8         1           1      0.000022    0.000022
   9         1           1      0.000095    0.000094
  10         1           1      0.000033    0.000033
  11         1           1      0.000017    0.000017
  12         1           1      0.000009    0.000008
  13         1           1      0.000005    0.000005
  14         1           1      0.000003    0.000002
  15         1           1      0.000002    0.000001
  16         2           0      0.000001    0.000001    Roots Converged
 ---------------------------------------------------
 
 ---------------------------------------------------
         TDDFT/TDA Excitation Energies              
 ---------------------------------------------------

 Excited state   1: excitation energy (eV) =    3.2080
 Total energy for state  1:                 -1855.42586255 au
    Multiplicity: Singlet
    Trans. Mom.: -0.1312 X  -0.0615 Y  -0.0418 Z
    Strength   :     0.0017886923
    D(158) --> V(  1) amplitude =  0.9978

 Excited state   2: excitation energy (eV) =    3.8735
 Total energy for state  2:                 -1855.40140611 au
    Multiplicity: Singlet
    Trans. Mom.: -0.5996 X   0.1491 Y  -0.3755 Z
    Strength   :     0.0496114995
    D(157) --> V(  1) amplitude = -0.9891
 
 ---------------------------------------------------
 Calculating Relaxed Density
 ---------------------------------------------------
 Iter    Rts Conv    Rts Left    Ttl Dev     Max Dev
 ---------------------------------------------------
   1         0           2      0.000385    0.000215
   2         0           2      0.000132    0.000069
   3         0           2      0.000051    0.000026
   4         0           2      0.000018    0.000009
   5         0           2      0.000006    0.000003
   6         2           0      0.000000    0.000000    Roots Converged
 ---------------------------------------------------
  SETman timing summary (seconds)
  CPU time              9750.31s
  System time              0.00s
  Wall time             2572.63s



*********SPIN-ORBIT COUPLING JOB BEGINS HERE*********
There is no spin-orbit coupling effect between singlet states.

=======================================================================================
    SPIN-ORBIT COUPLING BETWEEN THE SINGLET GROUND STATE AND EXCITED TRIPLET STATE
=======================================================================================

SOC between the singlet ground state and excited triplet states (ms=0):
T1(ms=0)      0.000000  +  0.314834i    cm-1
T2(ms=0)      0.000000  +  -0.432106i    cm-1
SOC between the singlet ground state and excited triplet states (ms=1):
T1(ms=1)      -0.493427  + (0.092253i)    cm-1
T2(ms=1)      -0.426893  + (-0.104121i)    cm-1
SOC between the singlet ground state and excited triplet states (ms=-1):
T1(ms=-1)     -0.493427  - (0.092253i)    cm-1
T2(ms=-1)     -0.426893  - (-0.104121i)    cm-1
Total SOC between the singlet ground state and excited triplet states:
T1      0.776584    cm-1
T2      0.756885    cm-1




=======================================================================================
                     SPIN-ORBIT COUPLING BETWEEN EXCITED TRIPLET STATES
=======================================================================================

SOC between the T1 (ms=0) state and excited triplet states (ms=1):
T2(ms=1)      -0.138656  + (-0.180733i)    cm-1
SOC between the T1 (ms=0) state and excited triplet states (ms=-1):
T2(ms=-1)     0.138656  + (-0.180733i)    cm-1
SOC between the T1 (ms=1) state and excited triplet states (ms=0):
T2(ms=0)      0.138656  + (-0.180733i)    cm-1
SOC between the T1 (ms=1) state and excited triplet states (ms=1):
T2(ms=1)      0.000000  + (0.147007i)    cm-1
SOC between the T1 (ms=-1) state and excited triplet states (ms=0):
T2(ms=0)      -0.138656  + (-0.180733i)    cm-1
SOC between the T1 (ms=-1) state and excited triplet states (ms=-1):
T2(ms=-1)     0.000000  + (-0.147007i)    cm-1
Total SOC between the T1 state and excited triplet states:
T2      0.500781    cm-1







=======================================================================================
         SPIN-ORBIT COUPLING BETWEEN EXCITED SINGLET STATES AND TRIPLET STATES
=======================================================================================

SOC between the S1 state and excited triplet states (ms=0):
T1(ms=0)      0.000000  +  0.006313i    cm-1
T2(ms=0)      0.000000  +  0.109266i    cm-1
SOC between the S1 state and excited triplet states (ms=1):
T1(ms=1)      (0.024209)  + (0.000685i)    cm-1
T2(ms=1)      (0.176921)  + (0.227049i)    cm-1
SOC between the S1 state and excited triplet states (ms=-1):
T1(ms=-1)    -(0.024209)  + (0.000685i)    cm-1
T2(ms=-1)    -(0.176921)  + (0.227049i)    cm-1
Total SOC between the S1 state and excited triplet states:
T1      0.034827    cm-1
T2      0.421479    cm-1



SOC between the S2 state and excited triplet states (ms=0):
T1(ms=0)      0.000000  +  0.000068i    cm-1
T2(ms=0)      0.000000  +  0.000004i    cm-1
SOC between the S2 state and excited triplet states (ms=1):
T1(ms=1)      (0.000012)  + (-0.000004i)    cm-1
T2(ms=1)      (0.000001)  + (-0.000000i)    cm-1
SOC between the S2 state and excited triplet states (ms=-1):
T1(ms=-1)    -(0.000012)  + (-0.000004i)    cm-1
T2(ms=-1)    -(0.000001)  + (-0.000000i)    cm-1
Total SOC between the S2 state and excited triplet states:
T1      0.000070    cm-1
T2      0.000004    cm-1






            *********SOC CODE ENDS HERE*********



 
 --------------------------------------------------------------
 
                    Orbital Energies (a.u.)
 --------------------------------------------------------------
 
 Alpha MOs
 -- Occupied --
-14.680 -14.669 -14.666 -10.527 -10.526 -10.514 -10.512 -10.507
-10.506 -10.498 -10.496 -10.496 -10.495 -10.490 -10.489 -10.482
-10.473 -10.473 -10.470 -10.469 -10.469 -10.468 -10.462 -10.461
-10.461 -10.460 -10.460 -10.459 -10.459 -10.458 -10.458 -10.458
-10.458 -10.457 -10.456 -10.453 -10.453 -10.446 -10.445 -10.444
-10.444 -10.443 -10.441 -10.438 -10.437 -10.425 -10.425  -1.096
 -1.041  -1.029  -1.026  -0.999  -0.983  -0.963  -0.960  -0.960
 -0.934  -0.927  -0.911  -0.896  -0.886  -0.880  -0.855  -0.850
 -0.850  -0.840  -0.839  -0.819  -0.819  -0.806  -0.790  -0.774
 -0.770  -0.741  -0.727  -0.723  -0.713  -0.711  -0.703  -0.685
 -0.676  -0.672  -0.670  -0.665  -0.663  -0.642  -0.618  -0.617
 -0.613  -0.605  -0.593  -0.582  -0.574  -0.565  -0.560  -0.555
 -0.538  -0.535  -0.531  -0.529  -0.526  -0.524  -0.523  -0.519
 -0.510  -0.506  -0.504  -0.502  -0.496  -0.495  -0.493  -0.488
 -0.487  -0.482  -0.481  -0.480  -0.470  -0.461  -0.459  -0.453
 -0.452  -0.451  -0.448  -0.442  -0.439  -0.437  -0.433  -0.430
 -0.427  -0.426  -0.424  -0.422  -0.419  -0.413  -0.412  -0.407
 -0.406  -0.403  -0.401  -0.398  -0.398  -0.394  -0.389  -0.376
 -0.375  -0.366  -0.345  -0.333  -0.322  -0.309  -0.302  -0.300
 -0.296  -0.292  -0.288  -0.287  -0.266  -0.222
 -- Virtual --
 -0.079  -0.037  -0.023  -0.011  -0.006  -0.002   0.011   0.011
  0.022   0.029   0.038   0.049   0.053   0.057   0.078   0.103
  0.125   0.132   0.135   0.141   0.144   0.147   0.155   0.157
  0.158   0.162   0.169   0.171   0.178   0.180   0.186   0.188
  0.191   0.197   0.198   0.201   0.203   0.209   0.214   0.215
  0.216   0.221   0.222   0.226   0.230   0.231   0.233   0.236
  0.238   0.240   0.243   0.245   0.252   0.254   0.259   0.261
  0.264   0.266   0.269   0.272   0.277   0.280   0.284   0.289
  0.290   0.295   0.296   0.302   0.303   0.305   0.309   0.315
  0.316   0.317   0.334   0.337   0.340   0.344   0.354   0.356
  0.369   0.374   0.377   0.379   0.381   0.387   0.393   0.400
  0.405   0.411   0.420   0.426   0.430   0.438   0.441   0.454
  0.458   0.467   0.472   0.476   0.479   0.487   0.492   0.493
  0.497   0.502   0.509   0.511   0.515   0.518   0.519   0.523
  0.524   0.528   0.532   0.533   0.537   0.542   0.547   0.549
  0.552   0.558   0.559   0.563   0.567   0.568   0.572   0.572
  0.575   0.580   0.581   0.585   0.586   0.590   0.596   0.598
  0.600   0.602   0.604   0.610   0.613   0.616   0.618   0.621
  0.624   0.625   0.626   0.631   0.632   0.634   0.635   0.639
  0.642   0.647   0.649   0.655   0.658   0.661   0.664   0.666
  0.671   0.675   0.682   0.683   0.685   0.692   0.693   0.698
  0.701   0.703   0.708   0.711   0.713   0.719   0.721   0.723
  0.729   0.731   0.738   0.743   0.752   0.755   0.757   0.762
  0.766   0.770   0.772   0.776   0.782   0.792   0.798   0.800
  0.806   0.811   0.814   0.818   0.823   0.829   0.835   0.843
  0.848   0.856   0.860   0.876   0.881   0.886   0.891   0.904
  0.909   0.917   0.919   0.922   0.929   0.932   0.936   0.941
  0.946   0.950   0.954   0.955   0.958   0.969   0.971   0.972
  0.977   0.979   0.982   0.986   0.990   0.994   0.997   1.001
  1.008   1.012   1.013   1.014   1.018   1.019   1.022   1.033
  1.037   1.046   1.047   1.049   1.051   1.055   1.057   1.059
  1.062   1.064   1.073   1.075   1.080   1.082   1.086   1.088
  1.097   1.100   1.103   1.112   1.115   1.117   1.124   1.128
  1.130   1.132   1.135   1.138   1.140   1.144   1.154   1.157
  1.164   1.165   1.173   1.179   1.185   1.188   1.194   1.205
  1.213   1.220   1.229   1.234   1.238   1.247   1.266   1.273
  1.276   1.280   1.288   1.291   1.300   1.305   1.310   1.313
  1.318   1.323   1.328   1.334   1.339   1.343   1.344   1.354
  1.361   1.371   1.375   1.383   1.390   1.392   1.398   1.398
  1.405   1.415   1.423   1.427   1.428   1.454   1.460   1.469
  1.479   1.496   1.498   1.502   1.506   1.513   1.514   1.526
  1.530   1.536   1.540   1.544   1.546   1.547   1.548   1.554
  1.556   1.560   1.563   1.573   1.576   1.579   1.586   1.588
  1.593   1.601   1.605   1.608   1.620   1.625   1.628   1.644
  1.649   1.657   1.662   1.684   1.689   1.709   1.710   1.715
  1.740   1.743   1.758   1.760   1.772   1.778   1.784   1.792
  1.799   1.802   1.813   1.825   1.828   1.829   1.835   1.838
  1.845   1.851   1.859   1.868   1.870   1.887   1.888   1.894
  1.903   1.904   1.915   1.922   1.926   1.930   1.938   1.941
  1.944   1.953   1.955   1.968   1.978   1.980   1.985   1.989
  1.996   2.004   2.007   2.009   2.019   2.025   2.037   2.041
  2.045   2.050   2.051   2.054   2.060   2.070   2.080   2.086
  2.096   2.100   2.111   2.119   2.132   2.139   2.141   2.143
  2.143   2.154   2.165   2.168   2.173   2.181   2.184   2.185
  2.190   2.194   2.198   2.202   2.211   2.215   2.222   2.229
  2.239   2.246   2.255   2.262   2.266   2.268   2.269   2.276
  2.281   2.287   2.292   2.299   2.300   2.309   2.312   2.323
  2.327   2.337   2.340   2.344   2.348   2.353   2.357   2.358
  2.364   2.372   2.376   2.382   2.385   2.387   2.399   2.404
  2.411   2.417   2.435   2.443   2.451   2.466   2.473   2.475
  2.495   2.499   2.513   2.522   2.531   2.537   2.542   2.571
  2.589   2.593   2.596   2.616   2.621   2.632   2.650   2.663
  2.671   2.676   2.681   2.693   2.696   2.699   2.707   2.711
  2.718   2.723   2.730   2.735   2.738   2.742   2.748   2.753
  2.768   2.778   2.781   2.782   2.789   2.793   2.799   2.812
  2.817   2.818   2.822   2.823   2.837   2.848   2.856   2.861
  2.878   2.879   2.892   2.898   2.902   2.911   2.919   2.941
  2.949   2.971   2.974   2.980   2.990   3.012   3.019   3.025
  3.035   3.059   3.067   3.075   3.145   3.211   3.278   3.311
  3.363   3.369   3.376   3.408   3.412   3.491   3.565   3.567
  3.593   3.638  13.199  13.248  13.269  13.339  13.369  13.421
 13.624  13.646  13.666  13.691  13.714  13.738  13.744  13.770
 13.781  13.810  13.828  13.872  13.896  13.904  13.932  13.983
 14.076  14.125  14.131  14.166  14.174  14.181  14.201  14.213
 14.228  14.251  14.252  14.273  14.286  14.308  14.322  14.401
 14.546  14.576  14.581  14.590  14.598  14.607  19.473  19.540
 19.629
 --------------------------------------------------------------
 
          Ground-State Mulliken Net Atomic Charges

     Atom                 Charge (a.u.)
  ----------------------------------------
      1 N                    -0.706591
      2 C                     0.300855
      3 C                     0.294679
      4 C                     0.132292
      5 C                    -0.316182
      6 H                     0.236751
      7 C                    -0.258778
      8 H                     0.233320
      9 C                    -0.253714
     10 H                     0.240276
     11 C                    -0.314456
     12 H                     0.265212
     13 C                     0.125466
     14 C                    -0.314128
     15 H                     0.235900
     16 C                    -0.260037
     17 H                     0.231970
     18 C                    -0.252837
     19 H                     0.238323
     20 C                    -0.324928
     21 H                     0.277716
     22 C                     0.171064
     23 C                    -0.284722
     24 H                     0.284796
     25 C                    -0.221735
     26 H                     0.261620
     27 C                    -0.323103
     28 H                     0.245442
     29 C                     0.223409
     30 C                     0.061334
     31 C                    -0.529141
     32 H                     0.266349
     33 H                     0.261645
     34 C                    -0.200289
     35 C                    -0.551049
     36 H                     0.272557
     37 H                     0.270350
     38 C                     0.142319
     39 C                    -0.320060
     40 H                     0.275864
     41 C                     0.065517
     42 C                     0.016310
     43 N                    -0.207223
     44 C                     0.168986
     45 C                    -0.290378
     46 H                     0.293154
     47 C                     0.074741
     48 C                     0.014860
     49 N                    -0.206992
     50 C                    -0.413171
     51 C                     0.025633
     52 C                    -0.268715
     53 H                     0.250778
     54 C                    -0.254241
     55 H                     0.251412
     56 C                     0.157418
     57 C                    -0.348154
     58 H                     0.242639
     59 C                    -0.233444
     60 H                     0.252361
     61 C                     0.122922
     62 C                    -0.339881
     63 H                     0.242607
     64 C                    -0.239385
     65 H                     0.252280
     66 C                    -0.244342
     67 H                     0.250764
     68 C                    -0.300040
     69 H                     0.245024
     70 C                     0.156151
     71 C                    -0.631121
     72 H                     0.231333
     73 H                     0.230943
     74 H                     0.236644
     75 C                    -0.610095
     76 H                     0.228008
     77 H                     0.227332
     78 H                     0.231608
  ----------------------------------------
  Sum of atomic charges =    -0.000000

 -----------------------------------------------------------------
                    Cartesian Multipole Moments
 -----------------------------------------------------------------
    Charge (ESU x 10^10)
                -0.0000
    Dipole Moment (Debye)
         X       7.2720      Y       4.5070      Z      -0.9729
       Tot       8.6106
    Quadrupole Moments (Debye-Ang)
        XX    -386.4822     XY     -66.1308     YY    -284.4199
        XZ     -10.6321     YZ     -11.9945     ZZ    -244.1001
    Octopole Moments (Debye-Ang^2)
       XXX    3817.0898    XXY    1226.4759    XYY    1033.1665
       YYY    1286.6377    XXZ     424.0318    XYZ     147.8947
       YYZ     175.0641    XZZ     731.6960    YZZ     420.8239
       ZZZ     426.7395
    Hexadecapole Moments (Debye-Ang^3)
      XXXX  -52831.6204   XXXY  -15622.4247   XXYY  -11360.9337
      XYYY   -8642.7519   YYYY  -10570.0416   XXXZ   -7525.5114
      XXYZ   -2071.6861   XYYZ   -1829.9626   YYYZ   -1674.0236
      XXZZ   -8079.0629   XYZZ   -2844.6925   YYZZ   -3281.1366
      XZZZ   -4125.1340   YZZZ   -1665.9028   ZZZZ   -7949.6882
 -----------------------------------------------------------------
 -----------------------------------------------------------------
               TDA Excited-State Multipoles, State  1
 -----------------------------------------------------------------
    Charge (ESU x 10^10)
                -0.0000
    Dipole Moment (Debye)
         X      42.9343      Y      18.1815      Z      10.7160
       Tot      47.8409
    Quadrupole Moments (Debye-Ang)
        XX    -620.3438     XY    -167.9485     YY    -331.3390
        XZ     -88.6205     YZ     -38.3585     ZZ    -249.5529
    Octopole Moments (Debye-Ang^2)
       XXX    6132.8904    XXY    2110.5922    XYY    1436.5277
       YYY    1515.2500    XXZ    1037.2055    XYZ     370.8601
       YYZ     275.0587    XZZ    1039.9950    YZZ     526.2499
       ZZZ     620.7717
    Hexadecapole Moments (Debye-Ang^3)
      XXXX  -72917.2499   XXXY  -23527.3815   XXYY  -14747.7547
      XYYY  -10296.1251   YYYY  -11606.2753   XXXZ  -13170.8573
      XXYZ   -4037.5439   XYYZ   -2609.8881   YYYZ   -2049.7952
      XXZZ  -10349.3505   XYZZ   -3696.6497   YYZZ   -3622.7350
      XZZZ   -5261.7028   YZZZ   -2039.6222   ZZZZ   -8054.2572
 -----------------------------------------------------------------
 -----------------------------------------------------------------
               TDA Excited-State Multipoles, State  2
 -----------------------------------------------------------------
    Charge (ESU x 10^10)
                -0.0000
    Dipole Moment (Debye)
         X      22.8782      Y       4.0407      Z       7.2041
       Tot      24.3236
    Quadrupole Moments (Debye-Ang)
        XX    -565.0705     XY    -118.0451     YY    -271.0310
        XZ     -81.7982     YZ     -28.8716     ZZ    -253.4290
    Octopole Moments (Debye-Ang^2)
       XXX    5596.3153    XXY    1863.2384    XYY    1211.6464
       YYY    1186.5566    XXZ    1020.2957    XYZ     340.8528
       YYZ     201.4324    XZZ     905.0992    YZZ     437.5566
       ZZZ     545.8435
    Hexadecapole Moments (Debye-Ang^3)
      XXXX  -69809.4154   XXXY  -22034.0113   XXYY  -13801.8962
      XYYY   -9284.2509   YYYY   -9845.7023   XXXZ  -12716.9562
      XXYZ   -3858.8629   XYYZ   -2418.8976   YYYZ   -1637.2809
      XXZZ   -9870.3104   XYZZ   -3355.8847   YYZZ   -3257.0733
      XZZZ   -5135.5139   YZZZ   -1926.2359   ZZZZ   -8196.0577
 -----------------------------------------------------------------
Archival summary:
1\1\ctcp010\SP\ProcedureUnspecified\BasisUnspecified\34431\mewes\MonJan1418:01:102019MonJan1418:01:102019\0\\#,ProcedureUnspecified,BasisUnspecified,\\0,1\N\C,1,1.37864\C,1,1.37938,2,122.726\C,3,1.40608,1,120.183,2,-8.85133,0\C,4,1.38745,3,117.458,1,-177.192,0\H,5,1.08129,4,119.627,3,177.954,0\C,5,1.38557,4,121.721,3,-1.76532,0\H,7,1.08139,5,119.696,4,-179.895,0\C,7,1.39334,5,120.19,4,-0.44245,0\H,9,1.08092,7,120.542,5,-178.344,0\C,9,1.37225,7,119.769,5,1.46902,0\H,11,1.07992,9,119.675,7,-179.215,0\C,2,1.40832,1,119.759,3,6.19345,0\C,13,1.38707,2,117.589,1,-179.71,0\H,14,1.08091,13,119.535,2,-178.618,0\C,14,1.38549,13,121.891,2,0.523671,0\H,16,1.08142,14,119.757,13,179.598,0\C,16,1.39251,14,119.989,13,-1.12477,0\H,18,1.08099,16,120.777,14,-179.561,0\C,18,1.37176,16,119.889,14,0.188538,0\H,20,1.07948,18,118.665,16,-179.399,0\C,1,1.43561,2,119.105,3,-176.184,0\C,22,1.37673,1,120.416,2,-74.0611,0\H,23,1.0828,22,118.819,1,-1.4325,0\C,22,1.38659,1,118.429,2,104.325,0\H,25,1.08217,22,121.259,1,0.651708,0\C,25,1.37703,22,117.581,1,179.649,0\H,27,1.08291,25,118.79,22,-177.609,0\C,23,1.39861,22,121.316,1,176.585,0\C,29,1.39754,23,118.078,22,5.08985,0\C,30,1.50107,29,123.548,23,171.371,0\H,31,1.0915,30,107.999,29,-163.428,0\H,31,1.09344,30,111.133,29,80.5111,0\C,4,1.5071,3,121.93,1,0.138806,0\C,31,1.53132,30,111.896,29,-42.0919,0\H,35,1.09119,31,109.548,30,-150.896,0\H,35,1.09676,31,108.778,30,-35.5667,0\C,35,1.49604,31,110.423,30,89.0157,0\C,38,1.36735,35,118.989,31,122.012,0\H,39,1.08477,38,118.582,35,7.09354,0\C,39,1.41212,38,123.55,35,-170.814,0\C,41,1.3958,39,120.577,38,-179.371,0\N,42,1.16447,41,179.531,39,-21.3006,0\C,38,1.44241,35,120.68,31,-48.9484,0\C,44,1.3811,38,117.384,35,168.731,0\H,45,1.08225,44,119.897,38,179.77,0\C,45,1.39857,44,123.648,38,1.11337,0\C,47,1.40381,45,119.36,44,-178.379,0\N,48,1.16131,47,179.861,45,-61.2022,0\C,44,1.52814,38,123.349,35,-25.342,0\C,50,1.52158,44,110.472,38,165.845,0\C,51,1.38167,50,127.229,44,-68.2223,0\H,52,1.08373,51,120.738,50,1.19458,0\C,52,1.3895,51,118.572,50,179.733,0\H,54,1.08256,52,119.797,51,-178.974,0\C,51,1.39266,50,111.504,44,111.517,0\C,56,1.38858,51,120.167,50,-179.722,0\H,57,1.08294,56,120.931,51,179.36,0\C,57,1.38838,56,118.748,51,-0.111958,0\H,59,1.08231,57,119.632,56,179.465,0\C,56,1.46118,51,108.291,50,0.300373,0\C,61,1.38607,56,130.919,51,-178.655,0\H,62,1.08324,61,120.91,56,0.409551,0\C,62,1.38869,61,118.725,56,179.943,0\H,64,1.08213,62,119.768,61,-179.618,0\C,64,1.3914,62,120.543,61,-0.077447,0\H,66,1.08237,64,119.627,62,-179.483,0\C,66,1.38955,64,120.751,62,-0.054525,0\H,68,1.08282,66,120.17,64,-178.877,0\C,68,1.38177,66,118.729,64,0.134866,0\C,34,1.53751,4,109.427,3,131.572,0\H,71,1.08824,34,111.257,4,178.349,0\H,71,1.08827,34,111.137,4,59.6755,0\H,71,1.08936,34,110.996,4,-60.9507,0\C,34,1.54522,4,108.025,3,-108.393,0\H,75,1.08988,34,110.465,4,-179.127,0\H,75,1.08993,34,110.591,4,-59.3955,0\H,75,1.09038,34,111.206,4,60.8089,0\\\@

 Total job time:  4857.50s(wall), 19311.34s(cpu) 
 Mon Jan 14 18:01:10 2019

        *************************************************************
        *                                                           *
        *  Thank you very much for using Q-Chem.  Have a nice day.  *
        *                                                           *
        *************************************************************


0 sent ACK to 0 
now end server 0 ... 
 
*************************************************************
Job 2 of 2 
*************************************************************
 
mFile = /cm/shared/apps/q-chem/intel/QCHEM_5.1.0_Trunk/bin/mpi/machines
Process 0 of 1 is on ctcp010 - thread support 0
initial socket setup ...start
initial socket setup ...done 
now start server 0 ... 
Q-Chem Developer Version!
                  Welcome to Q-Chem
     A Quantum Leap Into The Future Of Chemistry


 Q-Chem 5.1, Q-Chem, Inc., Pleasanton, CA (2018)

 Yihan Shao,  Zhengting Gan,  E. Epifanovsky,  A. T. B. Gilbert,  M. Wormit,  
 J. Kussmann,  A. W. Lange,  A. Behn,  Jia Deng,  Xintian Feng,  D. Ghosh,  
 M. Goldey,  P. R. Horn,  L. D. Jacobson,  I. Kaliman,  T. Kus,  A. Landau,  
 Jie Liu,  E. I. Proynov,  R. M. Richard,  R. P. Steele,  E. J. Sundstrom,  
 H. L. Woodcock III,  P. M. Zimmerman,  D. Zuev,  B. Albrecht,  E. Alguire,  
 S. A. Baeppler,  D. Barton,  Z. Benda,  Y. A. Bernard,  E. J. Berquist,  
 K. B. Bravaya,  H. Burton,  D. Casanova,  Chun-Min Chang,  Yunqing Chen,  
 A. Chien,  K. D. Closser,  M. P. Coons,  S. Coriani,  S. Dasgupta,  
 A. L. Dempwolff,  M. Diedenhofen,  Hainam Do,  R. G. Edgar,  Po-Tung Fang,  
 S. Faraji,  S. Fatehi,  Qingguo Feng,  K. D. Fenk,  J. Fosso-Tande,  
 Qinghui Ge,  A. Ghysels,  G. Gidofalvi,  J. Gomes,  J. Gonthier,  A. Gunina,  
 D. Hait,  M. W. D. Hanson-Heine,  P. H. P. Harbach,  A. W. Hauser,  
 J. E. Herr,  E. G. Hohenstein,  Z. C. Holden,  Kerwin Hui,  B. C. Huynh,  
 T.-C. Jagau,  Hyunjun Ji,  B. Kaduk,  K. Khistyaev,  Jaehoon Kim,  
 P. Klunzinger,  K. Koh,  D. Kosenkov,  L. Koulias,  T. Kowalczyk,  
 C. M. Krauter,  A. Kunitsa,  Ka Un Lao,  A. Laurent,  K. V. Lawler,  
 Joonho Lee,  D. Lefrancois,  S. Lehtola,  D. S. Levine,  Yi-Pei Li,  
 You-Sheng Lin,  Fenglai Liu,  E. Livshits,  A. Luenser,  P. Manohar,  
 E. Mansoor,  S. F. Manzer,  Shan-Ping Mao,  Yuezhi Mao,  N. Mardirossian,  
 A. V. Marenich,  T. Markovich,  L. A. Martinez-Martinez,  S. A. Maurer,  
 N. J. Mayhall,  S. C. McKenzie,  J.-M. Mewes,  A. F. Morrison,  
 J. W. Mullinax,  K. Nanda,  T. S. Nguyen-Beck,  R. Olivares-Amaya,  
 J. A. Parkhill,  T. M. Perrine,  F. Plasser,  P. Pokhilko,  S. Prager,  
 A. Prociuk,  E. Ramos,  D. R. Rehn,  F. Rob,  M. Schneider,  N. Sergueev,  
 S. M. Sharada,  S. Sharma,  D. W. Small,  T. Stauch,  T. Stein,  
 Yu-Chuan Su,  A. J. W. Thom,  A. Tkatchenko,  T. Tsuchimochi,  N. M. Tubman,  
 L. Vogt,  M. L. Vidal,  O. Vydrov,  M. A. Watson,  J. Wenzel,  
 M. de Wergifosse,  T. A. Wesolowski,  A. White,  J. Witte,  A. Yamada,  
 Jun Yang,  K. Yao,  S. Yeganeh,  S. R. Yost,  Zhi-Qiang You,  A. Zech,  
 Igor Ying Zhang,  Xing Zhang,  Yan Zhao,  Ying Zhu,  B. R. Brooks,  
 G. K. L. Chan,  C. J. Cramer,  M. S. Gordon,  W. J. Hehre,  A. Klamt,  
 M. W. Schmidt,  C. D. Sherrill,  D. G. Truhlar,  A. Aspuru-Guzik,  R. Baer,  
 A. T. Bell,  N. A. Besley,  Jeng-Da Chai,  A. E. DePrince, III,  
 R. A. DiStasio Jr.,  A. Dreuw,  B. D. Dunietz,  T. R. Furlani,  
 Chao-Ping Hsu,  Yousung Jung,  Jing Kong,  D. S. Lambrecht,  WanZhen Liang,  
 C. Ochsenfeld,  V. A. Rassolov,  L. V. Slipchenko,  J. E. Subotnik,  
 T. Van Voorhis,  J. M. Herbert,  A. I. Krylov,  P. M. W. Gill,  M. Head-Gordon

 Contributors to earlier versions of Q-Chem not listed above: 
 R. D. Adamson,  B. Austin,  J. Baker,  G. J. O. Beran,  K. Brandhorst,  
 S. T. Brown,  E. F. C. Byrd,  A. K. Chakraborty,  C.-L. Cheng,  
 Siu Hung Chien,  D. M. Chipman,  D. L. Crittenden,  H. Dachsel,  
 R. J. Doerksen,  A. D. Dutoi,  L. Fusti-Molnar,  W. A. Goddard III,  
 A. Golubeva-Zadorozhnaya,  S. R. Gwaltney,  G. Hawkins,  A. Heyden,  
 S. Hirata,  G. Kedziora,  F. J. Keil,  C. Kelley,  Jihan Kim,  R. A. King,  
 R. Z. Khaliullin,  P. P. Korambath,  W. Kurlancheek,  A. M. Lee,  M. S. Lee,  
 S. V. Levchenko,  Ching Yeh Lin,  D. Liotard,  R. C. Lochan,  I. Lotan,  
 P. E. Maslen,  N. Nair,  D. P. O'Neill,  D. Neuhauser,  E. Neuscamman,  
 C. M. Oana,  R. Olson,  B. Peters,  R. Peverati,  P. A. Pieniazek,  
 Y. M. Rhee,  J. Ritchie,  M. A. Rohrdanz,  E. Rosta,  N. J. Russ,  
 H. F. Schaefer III,  N. E. Schultz,  N. Shenvi,  A. C. Simmonett,  A. Sodt,  
 D. Stuck,  K. S. Thanthiriwatte,  V. Vanovschi,  Tao Wang,  A. Warshel,  
 C. F. Williams,  Q. Wu,  X. Xu,  W. Zhang

 Please cite Q-Chem as follows:
 Y. Shao et al., Mol. Phys. 113, 184-215 (2015)
 DOI: 10.1080/00268976.2014.952696

 Q-Chem 5.1.1 for Intel X86 EM64T Linux

 Parts of Q-Chem use Armadillo 8.300.2 (Tropical Shenanigans).
 http://arma.sourceforge.net/

 Q-Chem begins on Mon Jan 14 18:01:13 2019  

Host: ctcp010
0

     Scratch files written to /scratch/mewes/143314/qchem87707//
 Parallel job on  1  processors
The previous job contains 0 fragments, simply inherited here
Symmetry turned off for PCM/SM12/SMD calculation
Input Ideriv = 2
Curr. Ideriv = -1
Max.  Ideriv = 2
Input Ideriv = 1
Curr. Ideriv = 2
Max.  Ideriv = 1

Checking the input file for inconsistencies... 	...done.

--------------------------------------------------------------
User input:
--------------------------------------------------------------
$rem
threads 8
jobtype sp
method PBEh-3c
basis def2-mSVP
mem_static      1024
mem_total       14000
sym_ignore      true
cis_n_roots             6
cis_singlets            true
cis_triplets            true
rpa                     false
calc_soc                true
cis_moments             true
cis_relaxed_density     true
solvent_method          pcm
$end

$molecule
read
$end

$pcm
statespecific           Marcus 
$end

$solvent
dielectric      3.50000000000000000000  
dielectric_infi 2.25
$end

--------------------------------------------------------------
 Adding empirical dispersion correction 
 ----------------------------------------------------------------
 Doing -D3(BJ) with
 s6 =   1.00000
 s8 =   0.00000
 a1 =   0.48600
 a2 =   4.50000
 -D3 energy including 3body term =     -0.0782837135 hartrees
 ----------------------------------------------------------------
 Adding gCP correction 
 ----------------------------------------------------------------
 gCP energy =      0.1090795360 hartrees
 ----------------------------------------------------------------
             Standard Nuclear Orientation (Angstroms)
    I     Atom           X                Y                Z
 ----------------------------------------------------------------
    1      N       0.0000000000     0.0000000000     0.0000000000
    2      C       0.0000000000     0.0000000000     1.3786430000
    3      C       1.1604187343     0.0000000000    -0.7457273424
    4      C       2.4044086157     0.1870234884    -0.1175684415
    5      C       3.5293792103     0.2365832769    -0.9281321903
    6      H       4.5000220287     0.4122909085    -0.4852145210
    7      C       3.4456993877     0.0719190798    -2.3013345946
    8      H       4.3440304528     0.1150116098    -2.9017952420
    9      C       2.2116100814    -0.1595606405    -2.9053474300
   10      H       2.1431016240    -0.3153339832    -3.9727910065
   11      C       1.0737757978    -0.1940343930    -2.1390462422
   12      H       0.1196586916    -0.3862003511    -2.6069870909
   13      C       1.2154574809     0.1319002631     2.0776722710
   14      C       1.1639094519     0.1200455895     3.4637354011
   15      H       2.0753820508     0.2415784945     4.0319082339
   16      C      -0.0304021304    -0.0264525377     4.1505651772
   17      H      -0.0298198085    -0.0374349033     5.2319272531
   18      C      -1.2272276902    -0.1437429903     3.4484615137
   19      H      -2.1670932001    -0.2515013186     3.9715209328
   20      C      -1.2205469086    -0.1178280038     2.0769615969
   21      H      -2.1606612239    -0.2004733239     1.5529165036
   22      C      -1.2515507276     0.0834735574    -0.6982982171
   23      C      -2.0934030426    -1.0045266355    -0.7524647495
   24      H      -1.7836505186    -1.9282105897    -0.2799002919
   25      C      -1.6019735346     1.2909395982    -1.2829968896
   26      H      -0.9486636274     2.1519153921    -1.2282162303
   27      C      -2.8026741709     1.3493922257    -1.9546483225
   28      H      -3.0777245606     2.2711884277    -2.4519808176
   29      C      -3.3474147259    -0.9235146282    -1.3664671011
   30      C      -3.6833676337     0.2641489504    -2.0219932329
   31      C      -4.9075064699     0.4225755494    -2.8761590654
   32      H      -4.7772797520     1.3157882538    -3.4898166122
   33      H      -5.7953513407     0.6011006616    -2.2634108552
   34      C       2.5232281204     0.3889305346     1.3712135803
   35      C      -5.1431952203    -0.7993185826    -3.7685578963
   36      H      -5.6555755087    -0.4913496995    -4.6814211969
   37      H      -4.1718112513    -1.1956466705    -4.0882795294
   38      C      -5.9827581121    -1.8120119948    -3.0560223358
   39      C      -7.1644697255    -2.2073683732    -3.6189632639
   40      H      -7.4031526094    -1.8637584124    -4.6198039706
   41      C      -8.1174378648    -3.0079372456    -2.9518662304
   42      C      -9.2990795526    -3.3864773453    -3.5911489311
   43      N     -10.2838894809    -3.6949905480    -4.1305468120
   44      C      -5.6590606442    -2.2215280218    -1.7113820823
   45      C      -6.5995731690    -2.9703683626    -1.0316043733
   46      H      -6.3972895732    -3.3024863783    -0.0216331516
   47      C      -7.8227876662    -3.3642749575    -1.5835064651
   48      C      -8.7279401963    -4.0963760284    -0.7990314734
   49      N      -9.4748307220    -4.7040786573    -0.1498065713
   50      C      -4.2491484218    -2.1465845170    -1.1268047728
   51      C      -4.2904809362    -2.3117714059     0.3852212799
   52      C      -4.8177194850    -1.4293047748     1.3084121503
   53      H      -5.2845886978    -0.5054035479     0.9876291955
   54      C      -4.7641828420    -1.7660161056     2.6554397865
   55      H      -5.1862588971    -1.0968858662     3.3943964905
   56      C      -3.7153502373    -3.5161098191     0.7830920025
   57      C      -3.6627422282    -3.8532316436     2.1290993165
   58      H      -3.2276515086    -4.7910686851     2.4514505152
   59      C      -4.1899623057    -2.9685047959     3.0601720415
   60      H      -4.1643721475    -3.2207884742     4.1123528088
   61      C      -3.2532648916    -4.2202009442    -0.4109682192
   62      C      -2.6420514912    -5.4556443144    -0.5569099605
   63      H      -2.4363477306    -6.0798825316     0.3041534371
   64      C      -2.3046636400    -5.8867547306    -1.8331472014
   65      H      -1.8324785255    -6.8511714611    -1.9671537153
   66      C      -2.5773548874    -5.0928415378    -2.9428089517
   67      H      -2.3156372681    -5.4470990246    -3.9315081012
   68      C      -3.1925795992    -3.8554462972    -2.7972136366
   69      H      -3.4168453396    -3.2533015720    -3.6687799999
   70      C      -3.5269531775    -3.4252619180    -1.5274032114
   71      C       3.6106962207    -0.5441399086     1.9286338696
   72      H       3.7417022167    -0.4018072347     2.9995454747
   73      H       4.5753553627    -0.3422158483     1.4671267408
   74      H       3.3576994858    -1.5886291298     1.7504518182
   75      C       2.9039304469     1.8649121935     1.6246869115
   76      H       3.0156913466     2.0516152815     2.6926241160
   77      H       3.8480546880     2.1065140407     1.1366128709
   78      H       2.1396608057     2.5409684444     1.2402803488
 ----------------------------------------------------------------
 Nuclear Repulsion Energy =  5538.6349180041 hartrees
 There are      158 alpha and      158 beta electrons
 Requested basis set is def2-mSVP
 There are 391 shells and 767 basis functions

 Total QAlloc Memory Limit  14000 MB
 Mega-Array Size      1001 MB
 MEM_STATIC part      1024 MB
 Discretize the solute cavity surface with Lebedev spheres
	Using 302 Lebedev grid points for each H atom
	Using 302 Lebedev grid points for other atoms
	Atomic van der Waals radii will be scaled by 1.20
 Remove points where switching function is < 1.0e-08
 Keep 8002 surface tesserae and discard 15554 interior tesserae
 Molecular Surface Area = 614.136 Angst**2
 A cutoff of  1.0D-11 yielded  34885 shell pairs
 There are    140123 function pairs (    154729 Cartesian)
 
 -------------------------------------------------------
 OpenMP Integral Computing Module                       
 Release: version 1.0, May 2013, Q-Chem Inc. Pittsburgh 
 -------------------------------------------------------
 Integral Job Info:
 Integral job number is                      11
 Integral operator is                         1
 short-range coefficients                     0
 long-range coefficients              100000000
 Omega coefficients                           0
 if combine SR and LR in K                    0
 Integral screening is                        0
 Integral computing path is                   2
 max size of driver memory is            800000
 size of driver memory is                593474
 size of scratch memory is              1809772
 max col of scratch BK array               1296
 max len of scratch array in speh3          155
 max len of scratch index in speh4           18
 max int batch size is                      520
 min int batch size is                       52
 fixed nKL is                                52
 max L of basis functions is                  2
 order of int derivative is                   0
 number of shells is                        391
 number of basis is                         814
 number of cartesian basis is               814
 number of contracted shell pairs         34885
 number of primitive shell pairs          73111
 maxK2 (contraction) of shell pair           25
 max number of K2 of shell pair               1
 max number of CS2 of shell pair           8286
 max number of PS2 of shell pair          12955
 mem total for path MDJ                  880588
 -------------------------------------------------------
 Smallest overlap matrix eigenvalue = 2.79E-04

 Scale SEOQF with 1.000000e-02/1.000000e-02/1.000000e-01

 Standard Electronic Orientation quadrupole field applied
 Nucleus-field energy     =    -0.0000001405 hartrees
 Guess from superposition of atomic densities
 Warning:  Energy on first SCF cycle will be non-variational
 SAD guess density has 316.000000 electrons

 -----------------------------------------------------------------------
  General SCF calculation program by
  Eric Jon Sundstrom, Paul Horn, Yuezhi Mao, Dmitri Zuev, Alec White,
  David Stuck, Shaama M.S., Shane Yost, Joonho Lee, David Small,
  Daniel Levine, Susi Lehtola, Hugh Burton, Evgeny Epifanovsky
 -----------------------------------------------------------------------
 Exchange:     0.4200 Hartree-Fock + 0.5800 PBEh-3c
 Correlation:  1.0000 PBEh-3c
 Using SG-1 standard quadrature grid
 Dispersion:   Grimme D3
 using 8 threads for integral computing
 -------------------------------------------------------
 OpenMP Integral computing Module                
 Release: version 2.0, May 2017, Q-Chem Inc. Pleasanton 
 -------------------------------------------------------
 -------------------------------------------------------
 OpenMP BLAS3 based DFT computing Module                
 Release: version 1.0, May 2013, Q-Chem Inc. Pittsburgh 
 -------------------------------------------------------
 A restricted SCF calculation will be
 performed using DIIS
 SCF converges when DIIS error is below 1.0e-08
 ---------------------------------------
  Cycle       Energy         DIIS error
 ---------------------------------------
    1   -1870.9713401327      3.09e-02  
    2   -1855.1586504248      2.14e-03  
    3   -1855.1402686398      2.39e-03  
    4   -1855.4945130894      7.58e-04  
    5   -1855.5317026193      2.10e-04  
    6   -1855.5340896131      9.22e-05  
    7   -1855.5346939013      1.75e-05  
    8   -1855.5347159310      6.19e-06  
    9   -1855.5347187157      2.02e-06  
   10   -1855.5347190285      8.14e-07  
   11   -1855.5347190259      2.96e-07  
   12   -1855.5347190204      1.05e-07  
   13   -1855.5347190901      3.85e-08  
   14   -1855.5347191151      1.37e-08  
   15   -1855.5347190873      6.16e-09  Convergence criterion met
 ---------------------------------------
 SCF time:   CPU 8420.66s  wall 1213.00s 

************** Final PCM Free Energy Summary **************
 G_electrostatic  =      -0.01878440 hartree =     -11.78738749 kcal/mol
 G_cavitation     =       0.00000000 hartree =       0.00000000 kcal/mol
 G_dispersion     =       0.00000000 hartree =       0.00000000 kcal/mol
 G_repulsion      =       0.00000000 hartree =       0.00000000 kcal/mol
 --------------------------------------------------
 Non-electrostatic Free Energy =       0.00000000 hartree =       0.00000000 kcal/mol
 Total                         =      -0.01878440 hartree =     -11.78738749 kcal/mol
 --------------------------------------------------
 SCF Energy (H0 + V/2)                       =   -1855.53471909 
 Solute Internal Energy (H0)                 =   -1855.51593469 
 Total Free Energy (H0 + V/2 + non-elec)     =   -1855.53471909 hartree
                                             = -1164365.60999662 kcal/mol
***********************************************************

 SCF   energy in the final basis set =    -1855.5347190873
 Total energy in the final basis set =    -1855.5347190873
 
 Direct TDDFT/TDA calculation will be performed
 Exchange:     0.4200 Hartree-Fock + 0.5800 PBEh-3c
 Correlation:  1.0000 PBEh-3c
 Using SG-1 standard quadrature grid
 Dispersion:   Grimme D3
 Triplet excitation energies requested
 Singlet excitation energies requested
 Adding PCM contribution to the XC response
 CIS energy converged when residual is below 10e- 6
 ---------------------------------------------------
 Iter    Rts Conv    Rts Left    Ttl Dev     Max Dev
 ---------------------------------------------------
   1         0           6      0.000108    0.000041
   2         0           6      0.000153    0.000045
   3         0           6      0.000189    0.000063
   4         0           6      0.000187    0.000043
   5         1           5      0.000200    0.000061
   6         1           5      0.000153    0.000047
   7         1           5      0.000076    0.000028
   8         1           5      0.000038    0.000011
   9         2           4      0.000018    0.000005
  10         2           4      0.000009    0.000003
  11         4           2      0.000004    0.000002
  12         5           1      0.000003    0.000001
  13         6           0      0.000002    0.000001    Roots Converged
 ---------------------------------------------------
 Triplets done: starting singlet calculation
 ---------------------------------------------------
 Iter    Rts Conv    Rts Left    Ttl Dev     Max Dev
 ---------------------------------------------------
  14         0           6      0.000137    0.000066
  15         0           6      0.000097    0.000028
  16         0           6      0.000237    0.000107
  17         1           5      0.000112    0.000043
  18         1           5      0.000117    0.000073
  19         2           4      0.000044    0.000023
  20         3           3      0.000025    0.000011
  21         3           3      0.000015    0.000007
  22         3           3      0.000009    0.000004
  23         4           2      0.000006    0.000002
  24         5           1      0.000004    0.000001
  25         6           0      0.000003    0.000001    Roots Converged
 ---------------------------------------------------
 
 ---------------------------------------------------
         TDDFT/TDA Excitation Energies              
 ---------------------------------------------------

 Excited state   1: excitation energy (eV) =    2.7133
 Total energy for state  1:                 -1855.43500894 au
    Multiplicity: Triplet
    Trans. Mom.:  0.0000 X   0.0000 Y   0.0000 Z
    Strength   :     0.0000000000
    D(158) --> V(  1) amplitude =  0.9977

 Excited state   2: excitation energy (eV) =    2.7146
 Total energy for state  2:                 -1855.43495943 au
    Multiplicity: Singlet
    Trans. Mom.: -0.1381 X  -0.0628 Y  -0.0464 Z
    Strength   :     0.0016736008
    D(158) --> V(  1) amplitude =  0.9984

 Excited state   3: excitation energy (eV) =    2.9524
 Total energy for state  3:                 -1855.42622005 au
    Multiplicity: Triplet
    Trans. Mom.:  0.0000 X   0.0000 Y   0.0000 Z
    Strength   :     0.0000000000
    D(148) --> V(  1) amplitude =  0.2122
    D(149) --> V(  1) amplitude = -0.4438
    D(150) --> V(  1) amplitude = -0.5484
    D(151) --> V(  1) amplitude = -0.5144
    D(157) --> V(  1) amplitude =  0.2472

 Excited state   4: excitation energy (eV) =    3.3648
 Total energy for state  4:                 -1855.41106431 au
    Multiplicity: Triplet
    Trans. Mom.:  0.0000 X   0.0000 Y   0.0000 Z
    Strength   :     0.0000000000
    D(157) --> V(  1) amplitude =  0.2769
    D(157) --> V(  2) amplitude =  0.4545
    D(157) --> V(  3) amplitude =  0.6336

 Excited state   5: excitation energy (eV) =    3.4381
 Total energy for state  5:                 -1855.40837177 au
    Multiplicity: Triplet
    Trans. Mom.:  0.0000 X   0.0000 Y   0.0000 Z
    Strength   :     0.0000000000
    D(158) --> V(  6) amplitude =  0.2818
    D(158) --> V(  7) amplitude = -0.4362
    D(158) --> V(  8) amplitude = -0.6578
    D(158) --> V(  9) amplitude =  0.2844

 Excited state   6: excitation energy (eV) =    3.6153
 Total energy for state  6:                 -1855.40185819 au
    Multiplicity: Triplet
    Trans. Mom.:  0.0000 X   0.0000 Y   0.0000 Z
    Strength   :     0.0000000000
    D(149) --> V(  1) amplitude =  0.3181
    D(157) --> V(  1) amplitude =  0.8257
    D(157) --> V(  3) amplitude = -0.2285

 Excited state   7: excitation energy (eV) =    3.6664
 Total energy for state  7:                 -1855.39998180 au
    Multiplicity: Singlet
    Trans. Mom.:  0.5264 X  -0.1405 Y   0.3051 Z
    Strength   :     0.0350232387
    D(157) --> V(  1) amplitude =  0.9901

 Excited state   8: excitation energy (eV) =    3.7281
 Total energy for state  8:                 -1855.39771548 au
    Multiplicity: Triplet
    Trans. Mom.:  0.0000 X   0.0000 Y   0.0000 Z
    Strength   :     0.0000000000
    D(152) --> V(  6) amplitude = -0.2271
    D(158) --> V(  4) amplitude = -0.2424
    D(158) --> V(  5) amplitude =  0.3185
    D(158) --> V(  6) amplitude = -0.3927
    D(158) --> V(  7) amplitude =  0.3884
    D(158) --> V(  8) amplitude = -0.4068

 Excited state   9: excitation energy (eV) =    3.8041
 Total energy for state  9:                 -1855.39492008 au
    Multiplicity: Singlet
    Trans. Mom.: -0.1039 X  -0.0682 Y   0.0046 Z
    Strength   :     0.0014411437
    D(158) --> V(  2) amplitude =  0.9530
    D(158) --> V(  3) amplitude =  0.2625

 Excited state  10: excitation energy (eV) =    4.0898
 Total energy for state 10:                 -1855.38442340 au
    Multiplicity: Singlet
    Trans. Mom.:  0.4444 X   0.0614 Y   0.0374 Z
    Strength   :     0.0203104527
    D(158) --> V(  3) amplitude =  0.7312
    D(158) --> V(  4) amplitude = -0.2350
    D(158) --> V(  6) amplitude = -0.5811

 Excited state  11: excitation energy (eV) =    4.1116
 Total energy for state 11:                 -1855.38362118 au
    Multiplicity: Singlet
    Trans. Mom.:  0.0203 X  -0.1493 Y   0.0788 Z
    Strength   :     0.0029132774
    D(158) --> V(  4) amplitude = -0.5342
    D(158) --> V(  5) amplitude =  0.7964

 Excited state  12: excitation energy (eV) =    4.2899
 Total energy for state 12:                 -1855.37706739 au
    Multiplicity: Singlet
    Trans. Mom.: -0.3769 X  -0.0358 Y   0.1007 Z
    Strength   :     0.0161330155
    D(153) --> V(  1) amplitude =  0.2162
    D(154) --> V(  1) amplitude = -0.3262
    D(158) --> V(  2) amplitude = -0.2282
    D(158) --> V(  3) amplitude =  0.5363
    D(158) --> V(  6) amplitude =  0.6338
    D(158) --> V(  7) amplitude = -0.2156
 
 ---------------------------------------------------
 Calculating Relaxed Density
 ---------------------------------------------------
 Iter    Rts Conv    Rts Left    Ttl Dev     Max Dev
 ---------------------------------------------------
   1         0           6      0.000572    0.000221
   2         0           6      0.000201    0.000073
   3         0           6      0.000056    0.000019
   4         0           6      0.000018    0.000006
   5         4           2      0.000003    0.000002
   6         6           0      0.000000    0.000000    Roots Converged
 ---------------------------------------------------
 Triplets done- using as guess for singlets
 ---------------------------------------------------
 Iter    Rts Conv    Rts Left    Ttl Dev     Max Dev
 ---------------------------------------------------
   1         0           6      0.001059    0.000228
   2         0           6      0.000357    0.000079
   3         0           6      0.000114    0.000025
   4         0           6      0.000033    0.000007
   5         0           6      0.000012    0.000002
   6         6           0      0.000000    0.000000    Roots Converged
 ---------------------------------------------------
  SETman timing summary (seconds)
  CPU time             27754.67s
  System time              0.01s
  Wall time             8616.23s



*********SPIN-ORBIT COUPLING JOB BEGINS HERE*********


=======================================================================================
    SPIN-ORBIT COUPLING BETWEEN THE SINGLET GROUND STATE AND EXCITED TRIPLET STATE
=======================================================================================

SOC between the singlet ground state and excited triplet states (ms=0):
T1(ms=0)      0.000000  +  0.240928i    cm-1
T2(ms=0)      0.000000  +  0.776984i    cm-1
T3(ms=0)      0.000000  +  0.676088i    cm-1
T4(ms=0)      0.000000  +  0.363218i    cm-1
T5(ms=0)      0.000000  +  0.089137i    cm-1
T6(ms=0)      0.000000  +  -0.951728i    cm-1
SOC between the singlet ground state and excited triplet states (ms=1):
T1(ms=1)      -0.420321  + (0.077953i)    cm-1
T2(ms=1)      -0.396919  + (0.303287i)    cm-1
T3(ms=1)      0.453145  + (0.483101i)    cm-1
T4(ms=1)      -0.620426  + (-0.247504i)    cm-1
T5(ms=1)      0.683628  + (-0.363879i)    cm-1
T6(ms=1)      -0.757174  + (-0.010231i)    cm-1
SOC between the singlet ground state and excited triplet states (ms=-1):
T1(ms=-1)     -0.420321  - (0.077953i)    cm-1
T2(ms=-1)     -0.396919  - (0.303287i)    cm-1
T3(ms=-1)     0.453145  - (0.483101i)    cm-1
T4(ms=-1)     -0.620426  - (-0.247504i)    cm-1
T5(ms=-1)     0.683628  - (-0.363879i)    cm-1
T6(ms=-1)     -0.757174  - (-0.010231i)    cm-1
Total SOC between the singlet ground state and excited triplet states:
T1      0.650798    cm-1
T2      1.050123    cm-1
T3      1.155226    cm-1
T4      1.012077    cm-1
T5      1.098843    cm-1
T6      1.432696    cm-1




=======================================================================================
                     SPIN-ORBIT COUPLING BETWEEN EXCITED TRIPLET STATES
=======================================================================================

SOC between the T1 (ms=0) state and excited triplet states (ms=1):
T2(ms=1)      0.061877  + (-0.063715i)    cm-1
T3(ms=1)      0.032895  + (0.080207i)    cm-1
T4(ms=1)      0.115188  + (-0.050475i)    cm-1
T5(ms=1)      0.144577  + (0.207798i)    cm-1
T6(ms=1)      -0.101255  + (-0.210008i)    cm-1
SOC between the T1 (ms=0) state and excited triplet states (ms=-1):
T2(ms=-1)     -0.061877  + (-0.063715i)    cm-1
T3(ms=-1)     -0.032895  + (0.080207i)    cm-1
T4(ms=-1)     -0.115188  + (-0.050475i)    cm-1
T5(ms=-1)     -0.144577  + (0.207798i)    cm-1
T6(ms=-1)     0.101255  + (-0.210008i)    cm-1
SOC between the T1 (ms=1) state and excited triplet states (ms=0):
T2(ms=0)      -0.061877  + (-0.063715i)    cm-1
T3(ms=0)      -0.032895  + (0.080207i)    cm-1
T4(ms=0)      -0.115188  + (-0.050475i)    cm-1
T5(ms=0)      -0.144577  + (0.207798i)    cm-1
T6(ms=0)      0.101255  + (-0.210008i)    cm-1
SOC between the T1 (ms=1) state and excited triplet states (ms=1):
T2(ms=1)      0.000000  + (0.030374i)    cm-1
T3(ms=1)      0.000000  + (-0.077119i)    cm-1
T4(ms=1)      0.000000  + (-0.118962i)    cm-1
T5(ms=1)      0.000000  + (-0.156364i)    cm-1
T6(ms=1)      0.000000  + (-0.072806i)    cm-1
SOC between the T1 (ms=-1) state and excited triplet states (ms=0):
T2(ms=0)      0.061877  + (-0.063715i)    cm-1
T3(ms=0)      0.032895  + (0.080207i)    cm-1
T4(ms=0)      0.115188  + (-0.050475i)    cm-1
T5(ms=0)      0.144577  + (0.207798i)    cm-1
T6(ms=0)      -0.101255  + (-0.210008i)    cm-1
SOC between the T1 (ms=-1) state and excited triplet states (ms=-1):
T2(ms=-1)     0.000000  + (-0.030374i)    cm-1
T3(ms=-1)     0.000000  + (0.077119i)    cm-1
T4(ms=-1)     0.000000  + (0.118962i)    cm-1
T5(ms=-1)     0.000000  + (0.156364i)    cm-1
T6(ms=-1)     0.000000  + (0.072806i)    cm-1
Total SOC between the T1 state and excited triplet states:
T2      0.182754    cm-1
T3      0.204830    cm-1
T4      0.302602    cm-1
T5      0.552475    cm-1
T6      0.477519    cm-1



SOC between the T2 (ms=0) state and excited triplet states (ms=1):
T3(ms=1)      -0.075968  + (-0.209970i)    cm-1
T4(ms=1)      0.006216  + (-0.003659i)    cm-1
T5(ms=1)      0.058947  + (-0.319873i)    cm-1
T6(ms=1)      -0.044499  + (-0.000007i)    cm-1
SOC between the T2 (ms=0) state and excited triplet states (ms=-1):
T3(ms=-1)     0.075968  + (-0.209970i)    cm-1
T4(ms=-1)     -0.006216  + (-0.003659i)    cm-1
T5(ms=-1)     -0.058947  + (-0.319873i)    cm-1
T6(ms=-1)     0.044499  + (-0.000007i)    cm-1
SOC between the T2 (ms=1) state and excited triplet states (ms=0):
T3(ms=0)      0.075968  + (-0.209970i)    cm-1
T4(ms=0)      -0.006216  + (-0.003659i)    cm-1
T5(ms=0)      -0.058947  + (-0.319873i)    cm-1
T6(ms=0)      0.044499  + (-0.000007i)    cm-1
SOC between the T2 (ms=1) state and excited triplet states (ms=1):
T3(ms=1)      0.000000  + (0.507203i)    cm-1
T4(ms=1)      0.000000  + (-0.008982i)    cm-1
T5(ms=1)      0.000000  + (-0.143659i)    cm-1
T6(ms=1)      0.000000  + (0.007593i)    cm-1
SOC between the T2 (ms=-1) state and excited triplet states (ms=0):
T3(ms=0)      -0.075968  + (-0.209970i)    cm-1
T4(ms=0)      0.006216  + (-0.003659i)    cm-1
T5(ms=0)      0.058947  + (-0.319873i)    cm-1
T6(ms=0)      -0.044499  + (-0.000007i)    cm-1
SOC between the T2 (ms=-1) state and excited triplet states (ms=-1):
T3(ms=-1)     0.000000  + (-0.507203i)    cm-1
T4(ms=-1)     0.000000  + (0.008982i)    cm-1
T5(ms=-1)     0.000000  + (0.143659i)    cm-1
T6(ms=-1)     0.000000  + (-0.007593i)    cm-1
Total SOC between the T2 state and excited triplet states:
T3      0.844953    cm-1
T4      0.019221    cm-1
T5      0.681507    cm-1
T6      0.089644    cm-1



SOC between the T3 (ms=0) state and excited triplet states (ms=1):
T4(ms=1)      0.007406  + (-0.007607i)    cm-1
T5(ms=1)      0.250403  + (0.216256i)    cm-1
T6(ms=1)      -0.167496  + (0.131901i)    cm-1
SOC between the T3 (ms=0) state and excited triplet states (ms=-1):
T4(ms=-1)     -0.007406  + (-0.007607i)    cm-1
T5(ms=-1)     -0.250403  + (0.216256i)    cm-1
T6(ms=-1)     0.167496  + (0.131901i)    cm-1
SOC between the T3 (ms=1) state and excited triplet states (ms=0):
T4(ms=0)      -0.007406  + (-0.007607i)    cm-1
T5(ms=0)      -0.250403  + (0.216256i)    cm-1
T6(ms=0)      0.167496  + (0.131901i)    cm-1
SOC between the T3 (ms=1) state and excited triplet states (ms=1):
T4(ms=1)      0.000000  + (-0.023958i)    cm-1
T5(ms=1)      0.000000  + (-0.942159i)    cm-1
T6(ms=1)      0.000000  + (0.172904i)    cm-1
SOC between the T3 (ms=-1) state and excited triplet states (ms=0):
T4(ms=0)      0.007406  + (-0.007607i)    cm-1
T5(ms=0)      0.250403  + (0.216256i)    cm-1
T6(ms=0)      -0.167496  + (0.131901i)    cm-1
SOC between the T3 (ms=-1) state and excited triplet states (ms=-1):
T4(ms=-1)     0.000000  + (0.023958i)    cm-1
T5(ms=-1)     0.000000  + (0.942159i)    cm-1
T6(ms=-1)     0.000000  + (-0.172904i)    cm-1
Total SOC between the T3 state and excited triplet states:
T4      0.039985    cm-1
T5      1.487682    cm-1
T6      0.491531    cm-1



SOC between the T4 (ms=0) state and excited triplet states (ms=1):
T5(ms=1)      -0.015209  + (-0.011384i)    cm-1
T6(ms=1)      0.528755  + (0.306646i)    cm-1
SOC between the T4 (ms=0) state and excited triplet states (ms=-1):
T5(ms=-1)     0.015209  + (-0.011384i)    cm-1
T6(ms=-1)     -0.528755  + (0.306646i)    cm-1
SOC between the T4 (ms=1) state and excited triplet states (ms=0):
T5(ms=0)      0.015209  + (-0.011384i)    cm-1
T6(ms=0)      -0.528755  + (0.306646i)    cm-1
SOC between the T4 (ms=1) state and excited triplet states (ms=1):
T5(ms=1)      0.000000  + (0.050252i)    cm-1
T6(ms=1)      0.000000  + (-0.652449i)    cm-1
SOC between the T4 (ms=-1) state and excited triplet states (ms=0):
T5(ms=0)      -0.015209  + (-0.011384i)    cm-1
T6(ms=0)      0.528755  + (0.306646i)    cm-1
SOC between the T4 (ms=-1) state and excited triplet states (ms=-1):
T5(ms=-1)     0.000000  + (-0.050252i)    cm-1
T6(ms=-1)     0.000000  + (0.652449i)    cm-1
Total SOC between the T4 state and excited triplet states:
T5      0.080587    cm-1
T6      1.531611    cm-1



SOC between the T5 (ms=0) state and excited triplet states (ms=1):
T6(ms=1)      -0.113540  + (0.106841i)    cm-1
SOC between the T5 (ms=0) state and excited triplet states (ms=-1):
T6(ms=-1)     0.113540  + (0.106841i)    cm-1
SOC between the T5 (ms=1) state and excited triplet states (ms=0):
T6(ms=0)      0.113540  + (0.106841i)    cm-1
SOC between the T5 (ms=1) state and excited triplet states (ms=1):
T6(ms=1)      0.000000  + (0.193334i)    cm-1
SOC between the T5 (ms=-1) state and excited triplet states (ms=0):
T6(ms=0)      -0.113540  + (0.106841i)    cm-1
SOC between the T5 (ms=-1) state and excited triplet states (ms=-1):
T6(ms=-1)     0.000000  + (-0.193334i)    cm-1
Total SOC between the T5 state and excited triplet states:
T6      0.414705    cm-1







=======================================================================================
         SPIN-ORBIT COUPLING BETWEEN EXCITED SINGLET STATES AND TRIPLET STATES
=======================================================================================

SOC between the S1 state and excited triplet states (ms=0):
T1(ms=0)      0.000000  +  0.001219i    cm-1
T2(ms=0)      0.000000  +  0.036866i    cm-1
T3(ms=0)      0.000000  +  -0.080530i    cm-1
T4(ms=0)      0.000000  +  0.112608i    cm-1
T5(ms=0)      0.000000  +  -0.157018i    cm-1
T6(ms=0)      0.000000  +  0.050859i    cm-1
SOC between the S1 state and excited triplet states (ms=1):
T1(ms=1)      (0.006579)  + (-0.003860i)    cm-1
T2(ms=1)      (-0.056286)  + (0.063003i)    cm-1
T3(ms=1)      (-0.034856)  + (-0.071390i)    cm-1
T4(ms=1)      (0.114889)  + (-0.056051i)    cm-1
T5(ms=1)      (-0.130617)  + (-0.166005i)    cm-1
T6(ms=1)      (-0.102022)  + (-0.221877i)    cm-1
SOC between the S1 state and excited triplet states (ms=-1):
T1(ms=-1)    -(0.006579)  + (-0.003860i)    cm-1
T2(ms=-1)    -(-0.056286)  + (0.063003i)    cm-1
T3(ms=-1)    -(-0.034856)  + (-0.071390i)    cm-1
T4(ms=-1)    -(0.114889)  + (-0.056051i)    cm-1
T5(ms=-1)    -(-0.130617)  + (-0.166005i)    cm-1
T6(ms=-1)    -(-0.102022)  + (-0.221877i)    cm-1
Total SOC between the S1 state and excited triplet states:
T1      0.010856    cm-1
T2      0.125036    cm-1
T3      0.138232    cm-1
T4      0.212986    cm-1
T5      0.337479    cm-1
T6      0.349088    cm-1



SOC between the S2 state and excited triplet states (ms=0):
T1(ms=0)      0.000000  +  0.175100i    cm-1
T2(ms=0)      0.000000  +  -0.198884i    cm-1
T3(ms=0)      0.000000  +  -1.194314i    cm-1
T4(ms=0)      0.000000  +  0.020136i    cm-1
T5(ms=0)      0.000000  +  -0.021786i    cm-1
T6(ms=0)      0.000000  +  -0.312231i    cm-1
SOC between the S2 state and excited triplet states (ms=1):
T1(ms=1)      (0.138343)  + (0.179618i)    cm-1
T2(ms=1)      (0.123258)  + (-0.373167i)    cm-1
T3(ms=1)      (-0.278585)  + (-0.108631i)    cm-1
T4(ms=1)      (0.009537)  + (-0.006546i)    cm-1
T5(ms=1)      (0.074711)  + (0.127006i)    cm-1
T6(ms=1)      (-0.125923)  + (0.149653i)    cm-1
SOC between the S2 state and excited triplet states (ms=-1):
T1(ms=-1)    -(0.138343)  + (0.179618i)    cm-1
T2(ms=-1)    -(0.123258)  + (-0.373167i)    cm-1
T3(ms=-1)    -(-0.278585)  + (-0.108631i)    cm-1
T4(ms=-1)    -(0.009537)  + (-0.006546i)    cm-1
T5(ms=-1)    -(0.074711)  + (0.127006i)    cm-1
T6(ms=-1)    -(-0.125923)  + (0.149653i)    cm-1
Total SOC between the S2 state and excited triplet states:
T1      0.365325    cm-1
T2      0.590295    cm-1
T3      1.266967    cm-1
T4      0.025944    cm-1
T5      0.209521    cm-1
T6      0.417125    cm-1



SOC between the S3 state and excited triplet states (ms=0):
T1(ms=0)      0.000000  +  0.156128i    cm-1
T2(ms=0)      0.000000  +  -0.006300i    cm-1
T3(ms=0)      0.000000  +  -0.091873i    cm-1
T4(ms=0)      0.000000  +  0.372964i    cm-1
T5(ms=0)      0.000000  +  0.038927i    cm-1
T6(ms=0)      0.000000  +  -0.065007i    cm-1
SOC between the S3 state and excited triplet states (ms=1):
T1(ms=1)      (0.210504)  + (-0.004243i)    cm-1
T2(ms=1)      (-0.016545)  + (-0.017496i)    cm-1
T3(ms=1)      (-0.036375)  + (-0.124636i)    cm-1
T4(ms=1)      (-0.059877)  + (-0.082834i)    cm-1
T5(ms=1)      (0.033777)  + (0.062408i)    cm-1
T6(ms=1)      (-0.267818)  + (-0.000420i)    cm-1
SOC between the S3 state and excited triplet states (ms=-1):
T1(ms=-1)    -(0.210504)  + (-0.004243i)    cm-1
T2(ms=-1)    -(-0.016545)  + (-0.017496i)    cm-1
T3(ms=-1)    -(-0.036375)  + (-0.124636i)    cm-1
T4(ms=-1)    -(-0.059877)  + (-0.082834i)    cm-1
T5(ms=-1)    -(0.033777)  + (0.062408i)    cm-1
T6(ms=-1)    -(-0.267818)  + (-0.000420i)    cm-1
Total SOC between the S3 state and excited triplet states:
T1      0.336207    cm-1
T2      0.034632    cm-1
T3      0.205317    cm-1
T4      0.399995    cm-1
T5      0.107641    cm-1
T6      0.384291    cm-1



SOC between the S4 state and excited triplet states (ms=0):
T1(ms=0)      0.000000  +  1.007623i    cm-1
T2(ms=0)      0.000000  +  0.052645i    cm-1
T3(ms=0)      0.000000  +  -0.029818i    cm-1
T4(ms=0)      0.000000  +  -0.642167i    cm-1
T5(ms=0)      0.000000  +  0.033266i    cm-1
T6(ms=0)      0.000000  +  -0.777175i    cm-1
SOC between the S4 state and excited triplet states (ms=1):
T1(ms=1)      (0.442031)  + (0.371594i)    cm-1
T2(ms=1)      (0.033322)  + (0.010437i)    cm-1
T3(ms=1)      (-0.042655)  + (-0.079137i)    cm-1
T4(ms=1)      (-0.041912)  + (-0.450115i)    cm-1
T5(ms=1)      (0.017350)  + (0.039465i)    cm-1
T6(ms=1)      (0.052658)  + (0.178016i)    cm-1
SOC between the S4 state and excited triplet states (ms=-1):
T1(ms=-1)    -(0.442031)  + (0.371594i)    cm-1
T2(ms=-1)    -(0.033322)  + (0.010437i)    cm-1
T3(ms=-1)    -(-0.042655)  + (-0.079137i)    cm-1
T4(ms=-1)    -(-0.041912)  + (-0.450115i)    cm-1
T5(ms=-1)    -(0.017350)  + (0.039465i)    cm-1
T6(ms=-1)    -(0.052658)  + (0.178016i)    cm-1
Total SOC between the S4 state and excited triplet states:
T1      1.297016    cm-1
T2      0.072181    cm-1
T3      0.130588    cm-1
T4      0.906145    cm-1
T5      0.069452    cm-1
T6      0.820321    cm-1



SOC between the S5 state and excited triplet states (ms=0):
T1(ms=0)      0.000000  +  -1.045418i    cm-1
[...]
     54 C                    -0.252537
     55 H                     0.252505
     56 C                     0.156874
     57 C                    -0.347383
     58 H                     0.243051
     59 C                    -0.232096
     60 H                     0.253676
     61 C                     0.123153
     62 C                    -0.339672
     63 H                     0.243715
     64 C                    -0.239407
     65 H                     0.253252
     66 C                    -0.244540
     67 H                     0.251202
     68 C                    -0.300577
     69 H                     0.242241
     70 C                     0.155305
     71 C                    -0.631038
     72 H                     0.230901
     73 H                     0.230759
     74 H                     0.236790
     75 C                    -0.609887
     76 H                     0.227634
     77 H                     0.227149
     78 H                     0.232453
  ----------------------------------------
  Sum of atomic charges =    -0.000000

 -----------------------------------------------------------------
                    Cartesian Multipole Moments
 -----------------------------------------------------------------
    Charge (ESU x 10^10)
                -0.0000
    Dipole Moment (Debye)
         X       8.4286      Y       4.8850      Z      -0.5026
       Tot       9.7548
    Quadrupole Moments (Debye-Ang)
        XX    -394.8863     XY     -69.3035     YY    -285.3227
        XZ     -13.7026     YZ     -13.2591     ZZ    -244.8162
    Octopole Moments (Debye-Ang^2)
       XXX    3891.0628    XXY    1253.2778    XYY    1045.0230
       YYY    1291.0008    XXZ     447.6665    XYZ     156.7978
       YYZ     179.1483    XZZ     740.9827    YZZ     423.8550
       ZZZ     433.5135
    Hexadecapole Moments (Debye-Ang^3)
      XXXX  -53450.6612   XXXY  -15848.7984   XXYY  -11460.0909
      XYYY   -8690.1918   YYYY  -10583.4802   XXXZ   -7724.0052
      XXYZ   -2142.0789   XYYZ   -1861.7981   YYYZ   -1689.8854
      XXZZ   -8154.1599   XYZZ   -2870.2926   YYZZ   -3290.5711
      XZZZ   -4164.0400   YZZZ   -1681.7180   ZZZZ   -7962.9897
 -----------------------------------------------------------------
 -----------------------------------------------------------------
               TDA Excited-State Multipoles, State  1
 -----------------------------------------------------------------
    Charge (ESU x 10^10)
                -0.0000
    Dipole Moment (Debye)
         X      43.1616      Y      18.2032      Z      10.7591
       Tot      48.0629
    Quadrupole Moments (Debye-Ang)
        XX    -622.4568     XY    -168.6892     YY    -331.3720
        XZ     -89.1443     YZ     -38.4099     ZZ    -249.5480
    Octopole Moments (Debye-Ang^2)
       XXX    6154.9694    XXY    2119.1222    XYY    1439.6853
       YYY    1515.0476    XXZ    1042.0708    XYZ     372.3215
       YYZ     275.1615    XZZ    1041.8119    YZZ     526.4977
       ZZZ     621.5857
    Hexadecapole Moments (Debye-Ang^3)
      XXXX  -73129.2144   XXXY  -23612.7930   XXYY  -14783.6255
      XYYY  -10309.0337   YYYY  -11602.6661   XXXZ  -13219.0289
      XXYZ   -4053.7707   XYYZ   -2615.1621   YYYZ   -2049.1222
      XXZZ  -10367.1504   XYZZ   -3702.1612   YYZZ   -3623.2685
      XZZZ   -5270.3210   YZZZ   -2041.3967   ZZZZ   -8055.1837
 -----------------------------------------------------------------
 -----------------------------------------------------------------
               TDA Excited-State Multipoles, State  2
 -----------------------------------------------------------------
    Charge (ESU x 10^10)
                -0.0000
    Dipole Moment (Debye)
         X      43.2137      Y      18.2208      Z      10.7752
       Tot      48.1199
    Quadrupole Moments (Debye-Ang)
        XX    -622.8289     XY    -168.8468     YY    -331.4267
        XZ     -89.2627     YZ     -38.4499     ZZ    -249.5532
    Octopole Moments (Debye-Ang^2)
       XXX    6158.7487    XXY    2120.5957    XYY    1440.2999
       YYY    1515.2924    XXZ    1043.0199    XYZ     372.6801
       YYZ     275.3060    XZZ    1042.2521    YZZ     526.6428
       ZZZ     621.8517
    Hexadecapole Moments (Debye-Ang^3)
      XXXX  -73162.9200   XXXY  -23626.3678   XXYY  -14789.3133
      XYYY  -10311.5438   YYYY  -11603.6466   XXXZ  -13227.9443
      XXYZ   -4056.9865   XYYZ   -2616.3978   YYYZ   -2049.6398
      XXZZ  -10370.5737   XYZZ   -3703.4614   YYZZ   -3623.7220
      XZZZ   -5272.0363   YZZZ   -2041.9718   ZZZZ   -8055.3375
 -----------------------------------------------------------------
 -----------------------------------------------------------------
               TDA Excited-State Multipoles, State  3
 -----------------------------------------------------------------
    Charge (ESU x 10^10)
                -0.0000
    Dipole Moment (Debye)
         X       9.6707      Y       4.9748      Z      -0.0627
       Tot      10.8755
    Quadrupole Moments (Debye-Ang)
        XX    -409.4467     XY     -74.2726     YY    -284.7709
        XZ     -18.4167     YZ     -14.2598     ZZ    -246.2266
    Octopole Moments (Debye-Ang^2)
       XXX    4040.8608    XXY    1311.3187    XYY    1063.0982
       YYY    1285.4454    XXZ     491.7818    XYZ     170.3900
       YYZ     179.5814    XZZ     760.0196    YZZ     427.7789
       ZZZ     445.9442
    Hexadecapole Moments (Debye-Ang^3)
      XXXX  -54908.0843   XXXY  -16430.4766   XXYY  -11689.2744
      XYYY   -8761.0755   YYYY  -10535.0916   XXXZ   -8133.4907
      XXYZ   -2276.2586   XYYZ   -1898.4063   YYYZ   -1680.8234
      XXZZ   -8338.6759   XYZZ   -2925.3124   YYZZ   -3293.7306
      XZZZ   -4270.4690   YZZZ   -1714.5341   ZZZZ   -8005.1539
 -----------------------------------------------------------------
 -----------------------------------------------------------------
               TDA Excited-State Multipoles, State  4
 -----------------------------------------------------------------
    Charge (ESU x 10^10)
                -0.0000
    Dipole Moment (Debye)
         X       9.6307      Y       5.0220      Z       0.0739
       Tot      10.8617
    Quadrupole Moments (Debye-Ang)
        XX    -407.9856     XY     -73.1102     YY    -285.4174
        XZ     -19.3831     YZ     -14.1564     ZZ    -245.9913
    Octopole Moments (Debye-Ang^2)
       XXX    4021.1456    XXY    1297.1766    XYY    1058.2608
       YYY    1292.8804    XXZ     496.9962    XYZ     171.3317
       YYZ     177.9605    XZZ     757.7468    YZZ     427.3319
       ZZZ     443.2975
    Hexadecapole Moments (Debye-Ang^3)
      XXXX  -54681.5524   XXXY  -16288.4274   XXYY  -11621.5475
      XYYY   -8746.1889   YYYY  -10597.4197   XXXZ   -8159.3674
      XXYZ   -2286.4222   XYYZ   -1898.3739   YYYZ   -1670.5532
      XXZZ   -8314.7543   XYZZ   -2920.2660   YYZZ   -3296.4113
      XZZZ   -4248.3495   YZZZ   -1702.7296   ZZZZ   -7992.9107
 -----------------------------------------------------------------
 -----------------------------------------------------------------
               TDA Excited-State Multipoles, State  5
 -----------------------------------------------------------------
    Charge (ESU x 10^10)
                -0.0000
    Dipole Moment (Debye)
         X       7.9989      Y       4.9320      Z      -0.5879
       Tot       9.4156
    Quadrupole Moments (Debye-Ang)
        XX    -395.0346     XY     -69.0221     YY    -284.6645
        XZ     -11.9238     YZ     -13.2539     ZZ    -247.0929
    Octopole Moments (Debye-Ang^2)
       XXX    3880.6638    XXY    1251.6973    XYY    1043.7191
       YYY    1289.8748    XXZ     446.3932    XYZ     156.8135
       YYZ     178.9635    XZZ     737.9053    YZZ     424.0676
       ZZZ     431.6872
    Hexadecapole Moments (Debye-Ang^3)
      XXXX  -53411.5817   XXXY  -15832.8988   XXYY  -11449.1402
      XYYY   -8682.8233   YYYY  -10570.3102   XXXZ   -7694.0808
      XXYZ   -2139.2322   XYYZ   -1857.5791   YYYZ   -1687.8221
      XXZZ   -8153.4888   XYZZ   -2867.1365   YYZZ   -3288.5474
      XZZZ   -4146.0307   YZZZ   -1681.8916   ZZZZ   -8000.6404
 -----------------------------------------------------------------
 -----------------------------------------------------------------
               TDA Excited-State Multipoles, State  6
 -----------------------------------------------------------------
    Charge (ESU x 10^10)
                -0.0000
    Dipole Moment (Debye)
         X      19.5022      Y       4.9763      Z       4.8691
       Tot      20.7077
    Quadrupole Moments (Debye-Ang)
        XX    -521.3553     XY    -107.5104     YY    -277.7119
        XZ     -62.4528     YZ     -24.8334     ZZ    -251.2754
    Octopole Moments (Debye-Ang^2)
       XXX    5165.4202    XXY    1715.4560    XYY    1179.1864
       YYY    1231.8049    XXZ     867.0422    XYZ     294.2216
       YYZ     196.9679    XZZ     865.0243    YZZ     438.7573
       ZZZ     512.6020
    Hexadecapole Moments (Debye-Ang^3)
      XXXX  -65701.5800   XXXY  -20507.5799   XXYY  -13244.9337
      XYYY   -9187.9327   YYYY  -10136.0206   XXXZ  -11452.2089
      XXYZ   -3439.6669   XYYZ   -2286.9456   YYYZ   -1663.6635
      XXZZ   -9443.0291   XYZZ   -3253.6187   YYZZ   -3286.2732
      XZZZ   -4856.8984   YZZZ   -1861.5671   ZZZZ   -8125.7238
 -----------------------------------------------------------------
 -----------------------------------------------------------------
               TDA Excited-State Multipoles, State  7
 -----------------------------------------------------------------
    Charge (ESU x 10^10)
                -0.0000
    Dipole Moment (Debye)
         X      23.9739      Y       4.9891      Z       7.3601
       Tot      25.5697
    Quadrupole Moments (Debye-Ang)
        XX    -571.0423     XY    -122.2138     YY    -274.3386
        XZ     -82.8415     YZ     -30.0585     ZZ    -253.5501
    Octopole Moments (Debye-Ang^2)
       XXX    5652.2237    XXY    1890.5594    XYY    1228.8824
       YYY    1206.0096    XXZ    1029.8498    XYZ     346.7943
       YYZ     206.1080    XZZ     911.0924    YZZ     442.1012
       ZZZ     549.0459
    Hexadecapole Moments (Debye-Ang^3)
      XXXX  -70246.0623   XXXY  -22236.6241   XXYY  -13909.0661
      XYYY   -9366.7834   YYYY   -9943.6523   XXXZ  -12809.8206
      XXYZ   -3900.1360   XYYZ   -2441.3746   YYYZ   -1663.9893
      XXZZ   -9906.6196   XYZZ   -3377.4854   YYZZ   -3273.6459
      XZZZ   -5147.1229   YZZZ   -1938.1706   ZZZZ   -8196.0703
 -----------------------------------------------------------------
 -----------------------------------------------------------------
               TDA Excited-State Multipoles, State  8
 -----------------------------------------------------------------
    Charge (ESU x 10^10)
                -0.0000
    Dipole Moment (Debye)
         X      10.8100      Y       5.2374      Z       0.4248
       Tot      12.0194
    Quadrupole Moments (Debye-Ang)
        XX    -402.6215     XY     -71.5891     YY    -288.3568
        XZ     -17.8222     YZ     -12.9141     ZZ    -244.4630
    Octopole Moments (Debye-Ang^2)
       XXX    3958.4988    XXY    1270.8086    XYY    1059.8294
       YYY    1303.0393    XXZ     457.7957    XYZ     157.5877
       YYZ     182.5371    XZZ     756.8948    YZZ     427.0151
       ZZZ     449.0899
    Hexadecapole Moments (Debye-Ang^3)
      XXXX  -53875.1886   XXXY  -15992.0189   XXYY  -11540.4962
      XYYY   -8740.5752   YYYY  -10655.0333   XXXZ   -7855.8939
      XXYZ   -2161.0358   XYYZ   -1874.7124   YYYZ   -1696.7885
      XXZZ   -8214.8055   XYZZ   -2889.8508   YYZZ   -3307.6974
      XZZZ   -4210.0513   YZZZ   -1683.7164   ZZZZ   -7934.9523
 -----------------------------------------------------------------
 -----------------------------------------------------------------
               TDA Excited-State Multipoles, State  9
 -----------------------------------------------------------------
    Charge (ESU x 10^10)
                 0.0000
    Dipole Moment (Debye)
         X      33.4212      Y      18.2884      Z       5.5787
       Tot      38.5041
    Quadrupole Moments (Debye-Ang)
        XX    -506.9971     XY    -133.5418     YY    -337.8089
        XZ     -42.4062     YZ     -25.5148     ZZ    -243.6897
    Octopole Moments (Debye-Ang^2)
       XXX    4952.6404    XXY    1680.2660    XYY    1311.7155
       YYY    1567.5718    XXZ     636.6006    XYZ     233.8175
       YYZ     243.5962    XZZ     926.9632    YZZ     510.5829
       ZZZ     552.1229
    Hexadecapole Moments (Debye-Ang^3)
      XXXX  -61267.3540   XXXY  -19089.4208   XXYY  -13060.2261
      XYYY   -9831.7571   YYYY  -11994.1011   XXXZ   -9530.3322
      XXYZ   -2747.9077   XYYZ   -2155.1223   YYYZ   -1987.4908
      XXZZ   -9123.5586   XYZZ   -3318.1100   YYZZ   -3605.4664
      XZZZ   -4622.8620   YZZZ   -1860.9921   ZZZZ   -7907.2404
 -----------------------------------------------------------------
 -----------------------------------------------------------------
               TDA Excited-State Multipoles, State 10
 -----------------------------------------------------------------
    Charge (ESU x 10^10)
                -0.0000
    Dipole Moment (Debye)
         X      26.2737      Y      12.1125      Z       4.5484
       Tot      29.2867
    Quadrupole Moments (Debye-Ang)
        XX    -456.4847     XY    -101.8826     YY    -316.4951
        XZ     -33.0693     YZ     -16.9355     ZZ    -241.7072
    Octopole Moments (Debye-Ang^2)
       XXX    4490.0589    XXY    1467.3548    XYY    1197.4927
       YYY    1449.5824    XXZ     550.5783    XYZ     186.5870
       YYZ     215.8102    XZZ     869.0240    YZZ     473.1424
       ZZZ     519.2631
    Hexadecapole Moments (Debye-Ang^3)
      XXXX  -57469.1163   XXXY  -17445.0401   XXYY  -12292.3100
      XYYY   -9301.5872   YYYY  -11416.5762   XXXZ   -8717.1080
      XXYZ   -2409.8490   XYYZ   -2008.2312   YYYZ   -1842.6062
      XXZZ   -8725.9062   XYZZ   -3120.4244   YYZZ   -3484.0403
      XZZZ   -4444.2424   YZZZ   -1752.3167   ZZZZ   -7868.8948
 -----------------------------------------------------------------
 -----------------------------------------------------------------
               TDA Excited-State Multipoles, State 11
 -----------------------------------------------------------------
    Charge (ESU x 10^10)
                -0.0000
    Dipole Moment (Debye)
         X      21.0707      Y       7.4178      Z       5.0996
       Tot      22.9130
    Quadrupole Moments (Debye-Ang)
        XX    -422.7483     XY     -80.7660     YY    -303.3583
        XZ     -28.2519     YZ     -12.1963     ZZ    -238.4020
    Octopole Moments (Debye-Ang^2)
       XXX    4187.2096    XXY    1334.4355    XYY    1125.2520
       YYY    1372.4055    XXZ     499.4945    XYZ     161.5148
       YYZ     201.7919    XZZ     819.6028    YZZ     444.2689
       ZZZ     507.5594
    Hexadecapole Moments (Debye-Ang^3)
      XXXX  -55061.1417   XXXY  -16445.6468   XXYY  -11822.4373
      XYYY   -8970.3816   YYYY  -11062.8276   XXXZ   -8180.6135
      XXYZ   -2214.2018   XYYZ   -1925.0579   YYYZ   -1751.7141
      XXZZ   -8399.6182   XYZZ   -2971.3148   YYZZ   -3391.1269
      XZZZ   -4327.7104   YZZZ   -1691.7341   ZZZZ   -7800.2189
 -----------------------------------------------------------------
 -----------------------------------------------------------------
               TDA Excited-State Multipoles, State 12
 -----------------------------------------------------------------
    Charge (ESU x 10^10)
                 0.0000
    Dipole Moment (Debye)
         X      27.8394      Y      12.1955      Z       5.7932
       Tot      30.9406
    Quadrupole Moments (Debye-Ang)
        XX    -500.3550     XY    -116.1608     YY    -311.8698
        XZ     -50.8737     YZ     -24.4488     ZZ    -246.2683
    Octopole Moments (Debye-Ang^2)
       XXX    4922.1950    XXY    1634.9600    XYY    1235.8122
       YYY    1420.7325    XXZ     711.7914    XYZ     248.2814
       YYZ     228.1919    XZZ     901.9143    YZZ     477.6042
       ZZZ     539.1914
    Hexadecapole Moments (Debye-Ang^3)
      XXXX  -61816.8228   XXXY  -19117.0532   XXYY  -12899.4926
      XYYY   -9451.5295   YYYY  -11205.6168   XXXZ  -10101.1495
      XXYZ   -2927.2395   XYYZ   -2185.5883   YYYZ   -1872.7981
      XXZZ   -9186.0697   XYZZ   -3255.5108   YYZZ   -3470.6756
      XZZZ   -4709.2701   YZZZ   -1848.1717   ZZZZ   -7983.4891
 -----------------------------------------------------------------
Archival summary:
1\1\ctcp010\SP\ProcedureUnspecified\BasisUnspecified\34431\mewes\MonJan1421:02:462019MonJan1421:02:462019\0\\#,ProcedureUnspecified,BasisUnspecified,\\0,1\N\C,1,1.37864\C,1,1.37938,2,122.726\C,3,1.40608,1,120.183,2,-8.85133,0\C,4,1.38745,3,117.458,1,-177.192,0\H,5,1.08129,4,119.627,3,177.954,0\C,5,1.38557,4,121.721,3,-1.76532,0\H,7,1.08139,5,119.696,4,-179.895,0\C,7,1.39334,5,120.19,4,-0.44245,0\H,9,1.08092,7,120.542,5,-178.344,0\C,9,1.37225,7,119.769,5,1.46902,0\H,11,1.07992,9,119.675,7,-179.215,0\C,2,1.40832,1,119.759,3,6.19345,0\C,13,1.38707,2,117.589,1,-179.71,0\H,14,1.08091,13,119.535,2,-178.618,0\C,14,1.38549,13,121.891,2,0.523671,0\H,16,1.08142,14,119.757,13,179.598,0\C,16,1.39251,14,119.989,13,-1.12477,0\H,18,1.08099,16,120.777,14,-179.561,0\C,18,1.37176,16,119.889,14,0.188538,0\H,20,1.07948,18,118.665,16,-179.399,0\C,1,1.43561,2,119.105,3,-176.184,0\C,22,1.37673,1,120.416,2,-74.0611,0\H,23,1.0828,22,118.819,1,-1.4325,0\C,22,1.38659,1,118.429,2,104.325,0\H,25,1.08217,22,121.259,1,0.651708,0\C,25,1.37703,22,117.581,1,179.649,0\H,27,1.08291,25,118.79,22,-177.609,0\C,23,1.39861,22,121.316,1,176.585,0\C,29,1.39754,23,118.078,22,5.08985,0\C,30,1.50107,29,123.548,23,171.371,0\H,31,1.0915,30,107.999,29,-163.428,0\H,31,1.09344,30,111.133,29,80.5111,0\C,4,1.5071,3,121.93,1,0.138806,0\C,31,1.53132,30,111.896,29,-42.0919,0\H,35,1.09119,31,109.548,30,-150.896,0\H,35,1.09676,31,108.778,30,-35.5667,0\C,35,1.49604,31,110.423,30,89.0157,0\C,38,1.36735,35,118.989,31,122.012,0\H,39,1.08477,38,118.582,35,7.09354,0\C,39,1.41212,38,123.55,35,-170.814,0\C,41,1.3958,39,120.577,38,-179.371,0\N,42,1.16447,41,179.531,39,-21.3006,0\C,38,1.44241,35,120.68,31,-48.9484,0\C,44,1.3811,38,117.384,35,168.731,0\H,45,1.08225,44,119.897,38,179.77,0\C,45,1.39857,44,123.648,38,1.11337,0\C,47,1.40381,45,119.36,44,-178.379,0\N,48,1.16131,47,179.861,45,-61.2022,0\C,44,1.52814,38,123.349,35,-25.342,0\C,50,1.52158,44,110.472,38,165.845,0\C,51,1.38167,50,127.229,44,-68.2223,0\H,52,1.08373,51,120.738,50,1.19458,0\C,52,1.3895,51,118.572,50,179.733,0\H,54,1.08256,52,119.797,51,-178.974,0\C,51,1.39266,50,111.504,44,111.517,0\C,56,1.38858,51,120.167,50,-179.722,0\H,57,1.08294,56,120.931,51,179.36,0\C,57,1.38838,56,118.748,51,-0.111958,0\H,59,1.08231,57,119.632,56,179.465,0\C,56,1.46118,51,108.291,50,0.300373,0\C,61,1.38607,56,130.919,51,-178.655,0\H,62,1.08324,61,120.91,56,0.409551,0\C,62,1.38869,61,118.725,56,179.943,0\H,64,1.08213,62,119.768,61,-179.618,0\C,64,1.3914,62,120.543,61,-0.077447,0\H,66,1.08237,64,119.627,62,-179.483,0\C,66,1.38955,64,120.751,62,-0.054525,0\H,68,1.08282,66,120.17,64,-178.877,0\C,68,1.38177,66,118.729,64,0.134866,0\C,34,1.53751,4,109.427,3,131.572,0\H,71,1.08824,34,111.257,4,178.349,0\H,71,1.08827,34,111.137,4,59.6755,0\H,71,1.08936,34,110.996,4,-60.9507,0\C,34,1.54522,4,108.025,3,-108.393,0\H,75,1.08988,34,110.465,4,-179.127,0\H,75,1.08993,34,110.591,4,-59.3955,0\H,75,1.09038,34,111.206,4,60.8089,0\\\@

 Total job time:  10892.82s(wall), 37246.15s(cpu) 
 Mon Jan 14 21:02:46 2019

        *************************************************************
        *                                                           *
        *  Thank you very much for using Q-Chem.  Have a nice day.  *
        *                                                           *
        *************************************************************


0 sent ACK to 0 
now end server 0 ... 
