mFile = /cm/shared/apps/q-chem/intel/QCHEM_5.1.0_Trunk/bin/mpi/machines
Process 0 of 1 is on ctcp011 - thread support 0
initial socket setup ...start
initial socket setup ...done 
now start server 0 ... 
Q-Chem Developer Version!
                  Welcome to Q-Chem
     A Quantum Leap Into The Future Of Chemistry


 Q-Chem 5.1, Q-Chem, Inc., Pleasanton, CA (2018)

 Yihan Shao,  Zhengting Gan,  E. Epifanovsky,  A. T. B. Gilbert,  M. Wormit,  
 J. Kussmann,  A. W. Lange,  A. Behn,  Jia Deng,  Xintian Feng,  D. Ghosh,  
 M. Goldey,  P. R. Horn,  L. D. Jacobson,  I. Kaliman,  T. Kus,  A. Landau,  
 Jie Liu,  E. I. Proynov,  R. M. Richard,  R. P. Steele,  E. J. Sundstrom,  
 H. L. Woodcock III,  P. M. Zimmerman,  D. Zuev,  B. Albrecht,  E. Alguire,  
 S. A. Baeppler,  D. Barton,  Z. Benda,  Y. A. Bernard,  E. J. Berquist,  
 K. B. Bravaya,  H. Burton,  D. Casanova,  Chun-Min Chang,  Yunqing Chen,  
 A. Chien,  K. D. Closser,  M. P. Coons,  S. Coriani,  S. Dasgupta,  
 A. L. Dempwolff,  M. Diedenhofen,  Hainam Do,  R. G. Edgar,  Po-Tung Fang,  
 S. Faraji,  S. Fatehi,  Qingguo Feng,  K. D. Fenk,  J. Fosso-Tande,  
 Qinghui Ge,  A. Ghysels,  G. Gidofalvi,  J. Gomes,  J. Gonthier,  A. Gunina,  
 D. Hait,  M. W. D. Hanson-Heine,  P. H. P. Harbach,  A. W. Hauser,  
 J. E. Herr,  E. G. Hohenstein,  Z. C. Holden,  Kerwin Hui,  B. C. Huynh,  
 T.-C. Jagau,  Hyunjun Ji,  B. Kaduk,  K. Khistyaev,  Jaehoon Kim,  
 P. Klunzinger,  K. Koh,  D. Kosenkov,  L. Koulias,  T. Kowalczyk,  
 C. M. Krauter,  A. Kunitsa,  Ka Un Lao,  A. Laurent,  K. V. Lawler,  
 Joonho Lee,  D. Lefrancois,  S. Lehtola,  D. S. Levine,  Yi-Pei Li,  
 You-Sheng Lin,  Fenglai Liu,  E. Livshits,  A. Luenser,  P. Manohar,  
 E. Mansoor,  S. F. Manzer,  Shan-Ping Mao,  Yuezhi Mao,  N. Mardirossian,  
 A. V. Marenich,  T. Markovich,  L. A. Martinez-Martinez,  S. A. Maurer,  
 N. J. Mayhall,  S. C. McKenzie,  J.-M. Mewes,  A. F. Morrison,  
 J. W. Mullinax,  K. Nanda,  T. S. Nguyen-Beck,  R. Olivares-Amaya,  
 J. A. Parkhill,  T. M. Perrine,  F. Plasser,  P. Pokhilko,  S. Prager,  
 A. Prociuk,  E. Ramos,  D. R. Rehn,  F. Rob,  M. Schneider,  N. Sergueev,  
 S. M. Sharada,  S. Sharma,  D. W. Small,  T. Stauch,  T. Stein,  
 Yu-Chuan Su,  A. J. W. Thom,  A. Tkatchenko,  T. Tsuchimochi,  N. M. Tubman,  
 L. Vogt,  M. L. Vidal,  O. Vydrov,  M. A. Watson,  J. Wenzel,  
 M. de Wergifosse,  T. A. Wesolowski,  A. White,  J. Witte,  A. Yamada,  
 Jun Yang,  K. Yao,  S. Yeganeh,  S. R. Yost,  Zhi-Qiang You,  A. Zech,  
 Igor Ying Zhang,  Xing Zhang,  Yan Zhao,  Ying Zhu,  B. R. Brooks,  
 G. K. L. Chan,  C. J. Cramer,  M. S. Gordon,  W. J. Hehre,  A. Klamt,  
 M. W. Schmidt,  C. D. Sherrill,  D. G. Truhlar,  A. Aspuru-Guzik,  R. Baer,  
 A. T. Bell,  N. A. Besley,  Jeng-Da Chai,  A. E. DePrince, III,  
 R. A. DiStasio Jr.,  A. Dreuw,  B. D. Dunietz,  T. R. Furlani,  
 Chao-Ping Hsu,  Yousung Jung,  Jing Kong,  D. S. Lambrecht,  WanZhen Liang,  
 C. Ochsenfeld,  V. A. Rassolov,  L. V. Slipchenko,  J. E. Subotnik,  
 T. Van Voorhis,  J. M. Herbert,  A. I. Krylov,  P. M. W. Gill,  M. Head-Gordon

 Contributors to earlier versions of Q-Chem not listed above: 
 R. D. Adamson,  B. Austin,  J. Baker,  G. J. O. Beran,  K. Brandhorst,  
 S. T. Brown,  E. F. C. Byrd,  A. K. Chakraborty,  C.-L. Cheng,  
 Siu Hung Chien,  D. M. Chipman,  D. L. Crittenden,  H. Dachsel,  
 R. J. Doerksen,  A. D. Dutoi,  L. Fusti-Molnar,  W. A. Goddard III,  
 A. Golubeva-Zadorozhnaya,  S. R. Gwaltney,  G. Hawkins,  A. Heyden,  
 S. Hirata,  G. Kedziora,  F. J. Keil,  C. Kelley,  Jihan Kim,  R. A. King,  
 R. Z. Khaliullin,  P. P. Korambath,  W. Kurlancheek,  A. M. Lee,  M. S. Lee,  
 S. V. Levchenko,  Ching Yeh Lin,  D. Liotard,  R. C. Lochan,  I. Lotan,  
 P. E. Maslen,  N. Nair,  D. P. O'Neill,  D. Neuhauser,  E. Neuscamman,  
 C. M. Oana,  R. Olson,  B. Peters,  R. Peverati,  P. A. Pieniazek,  
 Y. M. Rhee,  J. Ritchie,  M. A. Rohrdanz,  E. Rosta,  N. J. Russ,  
 H. F. Schaefer III,  N. E. Schultz,  N. Shenvi,  A. C. Simmonett,  A. Sodt,  
 D. Stuck,  K. S. Thanthiriwatte,  V. Vanovschi,  Tao Wang,  A. Warshel,  
 C. F. Williams,  Q. Wu,  X. Xu,  W. Zhang

 Please cite Q-Chem as follows:
 Y. Shao et al., Mol. Phys. 113, 184-215 (2015)
 DOI: 10.1080/00268976.2014.952696

 Q-Chem 5.1.1 for Intel X86 EM64T Linux

 Parts of Q-Chem use Armadillo 8.300.2 (Tropical Shenanigans).
 http://arma.sourceforge.net/

 Q-Chem begins on Thu Oct 25 22:18:05 2018  

Host: ctcp011
0

     Scratch files written to /scratch/mewes/138417/qchem75952//
 Parallel job on  1  processors
The previous job contains 0 fragments, simply inherited here
Input Ideriv = 1
Curr. Ideriv = -1
Max.  Ideriv = 1

Checking the input file for inconsistencies... 	...done.

--------------------------------------------------------------
User input:
--------------------------------------------------------------
$rem
threads 8
jobtype	opt
method PBEh-3c
basis def2-mSVP
mem_static	1024
mem_total	12000
sym_ignore	true
cis_n_roots             2
cis_singlets            true
cis_triplets		false
rpa                     false
cis_state_deriv         1
$end


$molecule
read s1opt.mol
$end

--------------------------------------------------------------
 Adding empirical dispersion correction 
 ----------------------------------------------------------------
 Doing -D3(BJ) with
 s6 =   1.00000
 s8 =   0.00000
 a1 =   0.48600
 a2 =   4.50000
 -D3 energy including 3body term =     -0.1318847085 hartrees
 ----------------------------------------------------------------
 Adding gCP correction 
 ----------------------------------------------------------------
 gCP energy =      0.1772246254 hartrees
 ----------------------------------------------------------------
             Standard Nuclear Orientation (Angstroms)
    I     Atom           X                Y                Z
 ----------------------------------------------------------------
    1      S       0.0000000000     0.0000000000     0.0000000000
    2      C       0.0000000000     0.0000000000     1.7569860000
    3      C       1.2095447200     0.0000000000     2.4324910128
    4      H       2.1258218407     0.1216959230     1.8683861592
    5      C       1.2500430424    -0.1845524741     3.8053762857
    6      H       2.1985178606    -0.2058000908     4.3245933001
    7      C       0.0599816053    -0.3508636331     4.4912186067
    8      H       0.0657864152    -0.5081545115     5.5618142122
    9      C      -1.1564476601    -0.3051299086     3.8272586155
   10      H      -2.0674935555    -0.4303589615     4.3937284093
   11      C      -1.2117424800    -0.1201256039     2.4458371728
   12      N      -2.4280483220    -0.0643724841     1.7532120746
   13      C      -2.5709841158     0.7155392832     0.5969221753
   14      C      -3.7806091071     1.3224466226     0.2606709970
   15      H      -4.6486816851     1.1807740352     0.8876691336
   16      C      -3.8909580428     2.1006924617    -0.8815501329
   17      H      -4.8463289730     2.5503428198    -1.1177899880
   18      C      -2.7974619735     2.3168894253    -1.7017003058
   19      H      -2.8792538336     2.9356619147    -2.5848589135
   20      C      -1.5893463027     1.7206174174    -1.3779493780
   21      H      -0.7192405370     1.8680287357    -2.0054806222
   22      C      -1.4828621498     0.9072706460    -0.2617435252
   23      C      -3.6135021735    -0.4528025450     2.4460543276
   24      C      -4.1389418841    -1.7091657057     2.2276855039
   25      H      -3.6313436208    -2.3776547669     1.5407408530
   26      C      -4.2498487988     0.4171414138     3.3216372240
   27      H      -3.8304605548     1.4038979654     3.4883437413
   28      C      -5.4166233210     0.0352747412     3.9678780646
   29      C      -5.3111253915    -2.1084997118     2.8670978766
   30      C      -5.9696288374    -1.2367589077     3.7400352618
   31      C      -6.0915120406     0.9931612616     4.9083406398
   32      H      -5.5690299951     1.9490050220     4.9485244911
   33      H      -6.1311234784     0.5890848883     5.9217180248
   34      H      -7.1223665416     1.1869507318     4.6056603415
   35      C      -5.8162498542    -3.5055510919     2.6166937189
   36      H      -6.8789426320    -3.5712035413     2.8590290948
   37      H      -5.7322480999    -3.7372940017     1.5510739501
   38      C      -5.0447041772    -4.5478004610     3.4223970533
   39      H      -5.1531572704    -4.3728022744     4.4926305147
   40      H      -5.4082984664    -5.5542247320     3.2111293684
   41      H      -3.9798055720    -4.5215306393     3.1863753715
   42      B      -7.3297439339    -1.6378959345     4.4465592620
   43      C      -7.3294642407    -2.2774881982     5.8385965996
   44      C      -6.1159907216    -2.5577871306     6.4879315688
   45      H      -5.1811587743    -2.3028952138     5.9978579110
   46      C      -6.1018007324    -3.1528289402     7.7262066186
   47      C      -7.3269032639    -3.4876058198     8.3740998714
   48      C      -8.5233621727    -3.2142236250     7.7563557762
   49      H      -9.4513969592    -3.4731772835     8.2554827811
   50      C      -8.5627819645    -2.6053982263     6.4856077210
   51      C      -5.0009194599    -3.5576333619     8.5908415622
   52      C      -3.6293905576    -3.5068607150     8.5178298648
   53      H      -3.1181414099    -3.0861404762     7.6606654125
   54      C      -5.5910481423    -4.1234367087     9.7393697142
   55      C      -4.8700333478    -4.6361192953    10.8152547989
   56      C      -6.9986703642    -4.1020228814     9.6582727193
   57      C      -7.7117820219    -4.6149119612    10.7142453207
   58      H      -8.7948092400    -4.6206787807    10.7169705367
   59      C      -2.8748089021    -4.0222449075     9.5947136264
   60      H      -1.7944225680    -3.9819291210     9.5336566712
   61      C      -3.4588939267    -4.5714105947    10.7133268380
   62      H      -2.8382018994    -4.9539719543    11.5144262582
   63      C      -7.0084347958    -5.1399557364    11.8208471551
   64      H      -7.5737669826    -5.5423082792    12.6521296541
   65      C      -5.6337938354    -5.1592863282    11.8850884099
   66      H      -5.1368246426    -5.5728930001    12.7542153885
   67      B      -9.8909992034    -2.2914295643     5.7898371542
   68      C      -9.9098880713    -1.6754379657     4.3891425916
   69      C     -11.1166736417    -1.4167026666     3.7058123679
   70      H     -12.0611679772    -1.6461498278     4.1900107342
   71      C     -11.1139342250    -0.8821635128     2.4379330147
   72      C      -9.8732315524    -0.5771917090     1.8071957465
   73      C      -8.6858892686    -0.8134610154     2.4564528016
   74      H      -7.7443995662    -0.5810224148     1.9688661454
   75      C      -8.6697475391    -1.3650310046     3.7464924939
   76      C     -10.1478311084    -0.0413430569     0.4840745292
   77      C      -9.3772529925     0.4031666813    -0.5621545675
   78      H      -8.2951507905     0.4101614846    -0.5114516446
   79      C     -11.5500798141    -0.0308517717     0.3459002600
   80      C     -12.2148223350     0.4063078252    -0.7955461318
   81      C     -12.1830512542    -0.5320806495     1.5030828870
   82      C     -13.5541794363    -0.5938915644     1.5093475019
   83      H     -14.1016756499    -0.9733300788     2.3630995593
   84      C     -10.0277668443     0.8549518406    -1.7309870574
   85      H      -9.4217003090     1.2050318563    -2.5571087587
   86      C     -11.3982829936     0.8636032324    -1.8591518247
   87      H     -11.8515717134     1.2179192901    -2.7767501956
   88      C     -14.2590767263    -0.1532575092     0.3663475039
   89      H     -15.3405002242    -0.2039663062     0.3754501750
   90      C     -13.6274331469     0.3331508678    -0.7558015796
   91      H     -14.2117170698     0.6566838339    -1.6084336857
   92      C     -11.2424094020    -2.6554478367     6.5508156329
   93      C     -11.7641664360    -1.8159459525     7.5452397764
   94      C     -12.8912133260    -2.2020554417     8.2664099196
   95      H     -13.2818913037    -1.5658590736     9.0526470019
   96      C     -13.4879096451    -3.4142648027     7.9869629400
   97      C     -13.0059301060    -4.2539732221     7.0025284388
   98      H     -13.4859977201    -5.2072032202     6.8129060119
   99      C     -11.8781887296    -3.8773387129     6.2810478927
  100      N     -14.6105020441    -3.8464541339     8.7830453717
  101      C     -15.8638851462    -3.4548586327     8.3838766053
  102      C     -14.3293829417    -4.6251294570     9.8794200418
  103      C     -16.0165278515    -2.6714773784     7.2243394902
  104      H     -15.1458598800    -2.3898535968     6.6529268164
  105      C     -17.2599083992    -2.2624853397     6.8179378436
  106      H     -17.3464542918    -1.6609781293     5.9245980647
  107      C     -18.4074237424    -2.6106727296     7.5386816801
  108      H     -19.3815786320    -2.2807017488     7.2091140179
  109      C     -18.2873751525    -3.3788004519     8.6689699335
  110      H     -19.1651837948    -3.6602200168     9.2361347488
  111      C     -17.0281205495    -3.8055836082     9.0980329149
  112      C     -12.9939439531    -4.9642111521    10.1754606799
  113      H     -12.1959471914    -4.6079218834     9.5438143582
  114      C     -12.6952391960    -5.7483999737    11.2589117005
  115      H     -11.6616136236    -5.9933281626    11.4571836125
  116      C     -13.7014094803    -6.2316669634    12.1023942707
  117      H     -13.4526993423    -6.8502350544    12.9522900875
  118      C     -15.0094913559    -5.9112836634    11.8421966270
  119      H     -15.7999469478    -6.2731202488    12.4869270506
  120      C     -15.3326188454    -5.1134019522    10.7412908066
  121      C     -11.3195746683    -4.7999480162     5.2366714461
  122      H     -11.8766517348    -5.7349926018     5.1801455291
  123      H     -11.3349471004    -4.3349629287     4.2505290935
  124      H     -10.2762459363    -5.0371200044     5.4497176600
  125      C     -11.1169238827    -0.4918382106     7.8532298964
  126      H     -10.0320504729    -0.6009250537     7.8120091918
  127      H     -11.3579793521    -0.1961764494     8.8779174762
  128      C     -11.5514810082     0.6105775942     6.8897934003
  129      H     -11.2599925669     0.3776453104     5.8667480391
  130      H     -11.0847718379     1.5586390019     7.1574963441
  131      H     -12.6330654557     0.7536374208     6.9092458210
  132      S     -17.0005297816    -4.7662121391    10.5228891615
 ----------------------------------------------------------------
 Nuclear Repulsion Energy = 12469.5295162412 hartrees
 There are      276 alpha and      276 beta electrons
 Requested basis set is def2-mSVP
 There are 666 shells and 1310 basis functions

 Total QAlloc Memory Limit  12000 MB
 Mega-Array Size      1001 MB
 MEM_STATIC part      1024 MB
 A cutoff of  1.0D-11 yielded  59893 shell pairs
 There are    238323 function pairs (    262507 Cartesian)
 
 -------------------------------------------------------
 OpenMP Integral Computing Module                       
 Release: version 1.0, May 2013, Q-Chem Inc. Pittsburgh 
 -------------------------------------------------------
 Integral Job Info:
 Integral job number is                      11
 Integral operator is                         1
 short-range coefficients                     0
 long-range coefficients              100000000
 Omega coefficients                           0
 if combine SR and LR in K                    0
 Integral screening is                        0
 Integral computing path is                   2
 max size of driver memory is            800000
 size of driver memory is                593474
 size of scratch memory is              7590872
 max col of scratch BK array               1296
 max len of scratch array in speh3          155
 max len of scratch index in speh4           18
 max int batch size is                      520
 min int batch size is                       52
 fixed nKL is                                52
 max L of basis functions is                  2
 order of int derivative is                   0
 number of shells is                        666
 number of basis is                        1390
 number of cartesian basis is              1390
 number of contracted shell pairs         59893
 number of primitive shell pairs         124393
 maxK2 (contraction) of shell pair           25
 max number of K2 of shell pair               1
 max number of CS2 of shell pair          14387
 max number of PS2 of shell pair          21675
 mem total for path MDJ                 1125612
 -------------------------------------------------------
 Smallest overlap matrix eigenvalue = 1.95E-04

 Scale SEOQF with 1.000000e-03/1.000000e-02/1.000000e-02

 Standard Electronic Orientation quadrupole field applied
 Nucleus-field energy     =    -0.0000002029 hartrees
 Guess from superposition of atomic densities
 Warning:  Energy on first SCF cycle will be non-variational
 SAD guess density has 552.000001 electrons

 -----------------------------------------------------------------------
  General SCF calculation program by
  Eric Jon Sundstrom, Paul Horn, Yuezhi Mao, Dmitri Zuev, Alec White,
  David Stuck, Shaama M.S., Shane Yost, Joonho Lee, David Small,
  Daniel Levine, Susi Lehtola, Hugh Burton, Evgeny Epifanovsky
 -----------------------------------------------------------------------
 Exchange:     0.4200 Hartree-Fock + 0.5800 PBEh-3c
 Correlation:  1.0000 PBEh-3c
 Using SG-1 standard quadrature grid
 Dispersion:   Grimme D3
 using 8 threads for integral computing
 -------------------------------------------------------
 OpenMP Integral computing Module                
 Release: version 2.0, May 2017, Q-Chem Inc. Pleasanton 
 -------------------------------------------------------
 -------------------------------------------------------
 OpenMP BLAS3 based DFT computing Module                
 Release: version 1.0, May 2013, Q-Chem Inc. Pittsburgh 
 -------------------------------------------------------
 A restricted SCF calculation will be
 performed using DIIS
 SCF converges when DIIS error is below 1.0e-08
 ---------------------------------------
  Cycle       Energy         DIIS error
 ---------------------------------------
    1   -3826.5864669708      2.37e-02  
    2   -3798.7483787686      1.63e-03  
    3   -3798.7808539147      1.66e-03  
    4   -3799.3347723689      5.78e-04  
    5   -3799.4083669437      1.83e-04  
    6   -3799.4153685117      6.86e-05  
    7   -3799.4164236981      1.93e-05  
    8   -3799.4165066536      6.21e-06  
    9   -3799.4165159908      2.44e-06  
   10   -3799.4165176361      8.70e-07  
   11   -3799.4165178991      3.05e-07  
   12   -3799.4165179311      1.13e-07  
   13   -3799.4165179356      4.70e-08  
   14   -3799.4165179363      1.64e-08  
   15   -3799.4165179364      9.21e-09  Convergence criterion met
 ---------------------------------------
 SCF time:   CPU 11977.12s  wall 1503.00s 
 SCF   energy in the final basis set =    -3799.4165179364
 Total energy in the final basis set =    -3799.4165179364
 
 Direct TDDFT/TDA calculation will be performed
 Exchange:     0.4200 Hartree-Fock + 0.5800 PBEh-3c
 Correlation:  1.0000 PBEh-3c
 Using SG-1 standard quadrature grid
 Dispersion:   Grimme D3
 Singlet excitation energies requested
 CIS energy converged when residual is below 10e- 6
 ---------------------------------------------------
 Iter    Rts Conv    Rts Left    Ttl Dev     Max Dev
 ---------------------------------------------------
   1         0           2      0.000014    0.000007
   2         0           2      0.000005    0.000003
   3         2           0      0.000002    0.000001    Roots Converged
 ---------------------------------------------------
 
 ---------------------------------------------------
         TDDFT/TDA Excitation Energies              
 ---------------------------------------------------

 Excited state   1: excitation energy (eV) =    1.8386
 Total energy for state  1:                 -3799.34894968 au
    Multiplicity: Singlet
    Trans. Mom.: -0.0405 X  -0.0145 Y   0.0276 Z
    Strength   :     0.0001177757
    D(276) --> V(  1) amplitude =  0.9986

 Excited state   2: excitation energy (eV) =    2.4992
 Total energy for state  2:                 -3799.32467369 au
    Multiplicity: Singlet
    Trans. Mom.: -0.0075 X   0.0001 Y   0.0028 Z
    Strength   :     0.0000039619
    D(275) --> V(  1) amplitude =  0.9983
 
 ---------------------------------------------------
 Calculating Relaxed Density
 ---------------------------------------------------
 Iter    Rts Conv    Rts Left    Ttl Dev     Max Dev
 ---------------------------------------------------
   1         0           2      0.000359    0.000181
   2         0           2      0.000114    0.000057
   3         0           2      0.000052    0.000027
   4         0           2      0.000014    0.000007
   5         0           2      0.000007    0.000003
   6         1           1      0.000001    0.000001
   7         2           0      0.000000    0.000000    Roots Converged
 ---------------------------------------------------
  SETman timing summary (seconds)
  CPU time             11727.24s
  System time              0.00s
  Wall time             1761.38s
 
 --------------------------------------------------------------
 
                    Orbital Energies (a.u.)
 --------------------------------------------------------------
 
 Alpha MOs
 -- Occupied --
-89.592 -89.591 -14.682 -14.682 -10.502 -10.502 -10.501 -10.500
-10.490 -10.489 -10.480 -10.479 -10.478 -10.478 -10.473 -10.473
-10.473 -10.473 -10.473 -10.472 -10.472 -10.472 -10.472 -10.471
-10.470 -10.470 -10.470 -10.470 -10.470 -10.469 -10.469 -10.468
-10.467 -10.466 -10.466 -10.466 -10.465 -10.465 -10.465 -10.464
-10.463 -10.462 -10.462 -10.461 -10.455 -10.455 -10.452 -10.452
-10.450 -10.450 -10.450 -10.449 -10.449 -10.449 -10.448 -10.448
-10.447 -10.446 -10.445 -10.445 -10.445 -10.444 -10.444 -10.444
-10.444 -10.444 -10.443 -10.443 -10.443 -10.442 -10.440 -10.439
-10.438 -10.438 -10.437 -10.436 -10.428 -10.427  -8.232  -8.232
 -6.956  -6.956  -6.124  -6.123  -6.120  -6.120  -6.115  -6.114
 -1.098  -1.090  -1.023  -1.023  -0.978  -0.977  -0.969  -0.967
 -0.967  -0.965  -0.955  -0.953  -0.941  -0.941  -0.917  -0.907
 -0.903  -0.900  -0.893  -0.893  -0.871  -0.864  -0.864  -0.860
 -0.859  -0.857  -0.854  -0.854  -0.843  -0.843  -0.832  -0.824
 -0.822  -0.821  -0.820  -0.812  -0.812  -0.811  -0.778  -0.777
 -0.765  -0.761  -0.744  -0.740  -0.735  -0.728  -0.723  -0.722
 -0.720  -0.717  -0.715  -0.710  -0.697  -0.688  -0.687  -0.680
 -0.677  -0.675  -0.661  -0.655  -0.653  -0.653  -0.648  -0.646
 -0.634  -0.629  -0.622  -0.617  -0.605  -0.603  -0.600  -0.597
 -0.592  -0.591  -0.591  -0.584  -0.584  -0.565  -0.564  -0.561
 -0.555  -0.552  -0.546  -0.545  -0.539  -0.537  -0.536  -0.533
 -0.529  -0.528  -0.525  -0.521  -0.517  -0.516  -0.512  -0.509
 -0.505  -0.502  -0.501  -0.500  -0.499  -0.498  -0.498  -0.497
 -0.497  -0.492  -0.491  -0.491  -0.488  -0.487  -0.484  -0.483
 -0.481  -0.479  -0.479  -0.478  -0.477  -0.475  -0.475  -0.472
 -0.466  -0.463  -0.457  -0.453  -0.450  -0.449  -0.447  -0.445
 -0.441  -0.440  -0.438  -0.434  -0.432  -0.430  -0.430  -0.430
 -0.427  -0.427  -0.423  -0.418  -0.417  -0.417  -0.406  -0.405
 -0.404  -0.403  -0.402  -0.402  -0.401  -0.401  -0.399  -0.398
 -0.393  -0.392  -0.391  -0.389  -0.387  -0.381  -0.380  -0.376
 -0.373  -0.370  -0.366  -0.361  -0.360  -0.357  -0.347  -0.344
 -0.329  -0.323  -0.307  -0.304  -0.303  -0.302  -0.300  -0.297
 -0.290  -0.288  -0.286  -0.285  -0.284  -0.269  -0.266  -0.264
 -0.262  -0.262  -0.222  -0.197
 -- Virtual --
 -0.105  -0.068  -0.045  -0.039  -0.012  -0.006  -0.002  -0.001
  0.005   0.007   0.008   0.011   0.013   0.014   0.020   0.025
  0.030   0.035   0.042   0.063   0.064   0.076   0.080   0.082
  0.083   0.084   0.112   0.114   0.115   0.119   0.133   0.136
  0.140   0.142   0.146   0.147   0.152   0.153   0.156   0.158
  0.162   0.164   0.166   0.168   0.173   0.173   0.175   0.178
  0.180   0.183   0.187   0.188   0.188   0.190   0.191   0.192
  0.193   0.193   0.195   0.196   0.199   0.202   0.203   0.205
  0.207   0.208   0.209   0.212   0.213   0.214   0.215   0.216
  0.217   0.219   0.221   0.221   0.223   0.224   0.225   0.227
  0.233   0.236   0.237   0.238   0.239   0.242   0.244   0.244
  0.246   0.246   0.248   0.250   0.252   0.254   0.256   0.258
  0.260   0.262   0.264   0.265   0.268   0.274   0.274   0.274
  0.276   0.278   0.280   0.283   0.286   0.288   0.290   0.295
  0.298   0.299   0.301   0.303   0.305   0.309   0.312   0.315
  0.317   0.319   0.320   0.321   0.321   0.325   0.326   0.327
  0.334   0.335   0.337   0.338   0.342   0.346   0.349   0.352
  0.358   0.368   0.370   0.373   0.374   0.380   0.384   0.387
  0.390   0.396   0.398   0.403   0.410   0.410   0.412   0.413
  0.418   0.425   0.426   0.432   0.437   0.437   0.441   0.446
  0.449   0.452   0.455   0.461   0.462   0.466   0.468   0.475
  0.480   0.481   0.483   0.487   0.490   0.492   0.494   0.496
  0.499   0.501   0.506   0.514   0.516   0.518   0.520   0.520
  0.521   0.521   0.523   0.524   0.526   0.528   0.529   0.530
  0.531   0.533   0.535   0.536   0.539   0.540   0.544   0.545
  0.547   0.549   0.550   0.553   0.554   0.556   0.557   0.558
  0.559   0.561   0.563   0.565   0.569   0.570   0.574   0.575
  0.576   0.577   0.578   0.579   0.581   0.581   0.582   0.583
  0.584   0.586   0.587   0.589   0.592   0.593   0.593   0.593
  0.597   0.598   0.600   0.602   0.604   0.606   0.606   0.609
  0.610   0.610   0.612   0.613   0.614   0.614   0.616   0.617
  0.618   0.619   0.621   0.623   0.623   0.625   0.626   0.628
  0.629   0.633   0.634   0.636   0.638   0.639   0.641   0.642
  0.643   0.644   0.646   0.648   0.648   0.649   0.651   0.652
  0.654   0.655   0.657   0.659   0.663   0.664   0.668   0.671
  0.673   0.676   0.682   0.684   0.686   0.687   0.690   0.692
  0.694   0.695   0.697   0.700   0.701   0.705   0.707   0.709
  0.713   0.715   0.717   0.720   0.721   0.722   0.725   0.727
  0.727   0.731   0.733   0.737   0.742   0.745   0.746   0.748
  0.751   0.752   0.754   0.757   0.758   0.762   0.765   0.769
  0.771   0.772   0.775   0.776   0.779   0.785   0.787   0.788
  0.792   0.793   0.794   0.799   0.802   0.805   0.808   0.816
  0.818   0.820   0.822   0.825   0.826   0.834   0.836   0.839
  0.844   0.845   0.848   0.851   0.859   0.861   0.866   0.871
  0.871   0.876   0.882   0.886   0.887   0.891   0.894   0.900
  0.901   0.904   0.909   0.910   0.912   0.917   0.921   0.924
  0.927   0.928   0.935   0.937   0.938   0.939   0.939   0.941
  0.945   0.947   0.953   0.955   0.960   0.961   0.964   0.968
  0.970   0.973   0.975   0.977   0.978   0.979   0.980   0.982
  0.984   0.988   0.989   0.991   0.995   0.996   0.997   1.000
  1.002   1.002   1.003   1.005   1.008   1.011   1.012   1.013
  1.018   1.019   1.021   1.023   1.026   1.028   1.028   1.031
  1.034   1.037   1.037   1.040   1.042   1.043   1.047   1.050
  1.052   1.055   1.061   1.062   1.063   1.065   1.066   1.068
  1.070   1.070   1.074   1.077   1.080   1.080   1.083   1.087
  1.088   1.091   1.094   1.097   1.099   1.104   1.107   1.111
  1.111   1.117   1.118   1.120   1.124   1.126   1.129   1.132
  1.134   1.137   1.141   1.142   1.144   1.146   1.148   1.149
  1.153   1.157   1.158   1.160   1.161   1.165   1.171   1.179
  1.182   1.185   1.185   1.191   1.192   1.194   1.200   1.211
  1.212   1.212   1.213   1.220   1.223   1.226   1.231   1.235
  1.242   1.249   1.250   1.252   1.256   1.261   1.262   1.264
  1.270   1.273   1.277   1.278   1.287   1.289   1.289   1.292
  1.292   1.293   1.297   1.300   1.301   1.304   1.306   1.310
  1.313   1.315   1.323   1.325   1.327   1.330   1.333   1.335
  1.339   1.340   1.342   1.345   1.354   1.357   1.361   1.363
  1.364   1.367   1.368   1.371   1.374   1.376   1.379   1.386
  1.388   1.396   1.402   1.403   1.405   1.409   1.414   1.425
  1.429   1.433   1.434   1.435   1.436   1.439   1.449   1.450
  1.451   1.457   1.462   1.471   1.473   1.486   1.488   1.489
  1.494   1.501   1.504   1.504   1.507   1.509   1.510   1.510
  1.513   1.518   1.523   1.524   1.524   1.526   1.529   1.533
  1.534   1.536   1.539   1.540   1.541   1.543   1.545   1.546
  1.553   1.556   1.557   1.559   1.559   1.561   1.563   1.566
  1.568   1.572   1.577   1.578   1.582   1.584   1.591   1.593
  1.595   1.602   1.605   1.612   1.617   1.622   1.630   1.633
  1.634   1.642   1.648   1.650   1.657   1.660   1.661   1.663
  1.670   1.677   1.680   1.691   1.700   1.712   1.735   1.744
  1.750   1.753   1.757   1.759   1.764   1.777   1.782   1.794
  1.798   1.799   1.801   1.801   1.803   1.805   1.806   1.807
  1.809   1.810   1.814   1.821   1.823   1.838   1.845   1.847
  1.850   1.856   1.858   1.862   1.872   1.875   1.885   1.888
  1.894   1.898   1.899   1.910   1.913   1.914   1.914   1.922
  1.923   1.927   1.931   1.937   1.939   1.944   1.950   1.955
  1.960   1.963   1.966   1.967   1.972   1.975   1.975   1.976
  1.978   1.980   1.982   1.986   1.988   1.989   1.998   2.005
  2.012   2.014   2.019   2.022   2.026   2.028   2.034   2.036
  2.039   2.040   2.041   2.043   2.057   2.063   2.064   2.065
  2.068   2.072   2.079   2.085   2.091   2.095   2.103   2.104
  2.104   2.105   2.110   2.115   2.119   2.130   2.132   2.135
  2.137   2.145   2.146   2.151   2.152   2.154   2.158   2.159
  2.167   2.174   2.176   2.181   2.193   2.194   2.196   2.198
  2.199   2.200   2.200   2.204   2.206   2.210   2.210   2.213
  2.222   2.223   2.225   2.229   2.234   2.237   2.240   2.247
  2.250   2.251   2.255   2.258   2.261   2.263   2.264   2.265
  2.269   2.271   2.275   2.279   2.285   2.289   2.291   2.296
  2.300   2.304   2.307   2.312   2.314   2.314   2.318   2.322
  2.328   2.332   2.337   2.340   2.342   2.344   2.346   2.350
  2.351   2.352   2.353   2.358   2.359   2.361   2.372   2.375
  2.376   2.378   2.379   2.380   2.381   2.382   2.387   2.390
  2.392   2.395   2.396   2.402   2.406   2.409   2.411   2.414
  2.419   2.422   2.431   2.439   2.440   2.447   2.454   2.456
  2.468   2.472   2.478   2.480   2.486   2.488   2.491   2.493
  2.495   2.498   2.505   2.508   2.513   2.523   2.528   2.532
  2.546   2.554   2.559   2.567   2.583   2.597   2.600   2.609
  2.618   2.624   2.628   2.632   2.632   2.636   2.637   2.645
  2.651   2.664   2.675   2.680   2.683   2.687   2.690   2.696
  2.700   2.707   2.708   2.720   2.724   2.725   2.726   2.730
  2.732   2.734   2.736   2.741   2.748   2.754   2.757   2.758
  2.767   2.768   2.771   2.773   2.775   2.778   2.779   2.783
  2.783   2.784   2.799   2.799   2.801   2.802   2.803   2.804
  2.805   2.812   2.813   2.815   2.819   2.823   2.824   2.826
  2.833   2.837   2.841   2.854   2.859   2.861   2.866   2.869
  2.875   2.885   2.886   2.889   2.895   2.904   2.922   2.932
  2.936   2.943   2.948   2.972   2.981   2.987   2.993   2.995
  2.999   3.001   3.004   3.006   3.008   3.020   3.043   3.051
  3.071   3.075   3.081   3.093   3.121   3.186   3.195   3.220
  3.226   3.230   3.249   3.251   3.308   3.375   3.395   3.435
  3.442   3.473   3.479   3.482   3.484   3.485   3.503   3.523
  3.541   3.548   3.657   3.667   9.587   9.736  13.135  13.169
 13.243  13.260  13.263  13.267  13.467  13.492  13.502  13.517
 13.540  13.565  13.674  13.679  13.681  13.683  13.687  13.694
 13.698  13.730  13.732  13.736  13.747  13.780  13.787  13.791
 13.819  13.829  13.854  13.894  13.907  13.911  13.937  13.998
 14.013  14.018  14.024  14.026  14.037  14.041  14.129  14.144
 14.148  14.149  14.152  14.155  14.156  14.185  14.187  14.193
 14.195  14.201  14.208  14.221  14.239  14.261  14.279  14.282
 14.305  14.310  14.326  14.330  14.502  14.507  14.551  14.558
 14.566  14.568  14.573  14.574  14.577  14.579  14.603  14.611
 19.606  19.644
 --------------------------------------------------------------
 
          Ground-State Mulliken Net Atomic Charges

     Atom                 Charge (a.u.)
  ----------------------------------------
      1 S                     0.144581
      2 C                    -0.192465
      3 C                    -0.246529
      4 H                     0.231638
      5 C                    -0.232422
      6 H                     0.218663
      7 C                    -0.221605
      8 H                     0.216493
      9 C                    -0.298712
     10 H                     0.252791
     11 C                     0.425633
     12 N                    -0.710937
     13 C                     0.423667
     14 C                    -0.296216
     15 H                     0.252787
     16 C                    -0.223273
     17 H                     0.216417
     18 C                    -0.231937
     19 H                     0.218646
     20 C                    -0.246323
     21 H                     0.231903
     22 C                    -0.191245
     23 C                     0.217967
     24 C                    -0.298429
     25 H                     0.226059
     26 C                    -0.325010
     27 H                     0.238453
     28 C                     0.040801
     29 C                     0.060460
     30 C                    -0.216825
     31 C                    -0.759837
     32 H                     0.241562
     33 H                     0.246607
     34 H                     0.248194
     35 C                    -0.548023
     36 H                     0.251608
     37 H                     0.236870
     38 C                    -0.641691
     39 H                     0.233807
     40 H                     0.223398
     41 H                     0.220537
     42 B                     0.679939
     43 C                    -0.145250
     44 C                    -0.396812
     45 H                     0.231341
     46 C                     0.096195
     47 C                     0.114307
     48 C                    -0.385076
     49 H                     0.228429
     50 C                    -0.147762
     51 C                     0.198170
     52 C                    -0.377107
     53 H                     0.219735
     54 C                    -0.067504
     55 C                     0.252077
     56 C                     0.199891
     57 C                    -0.381374
     58 H                     0.219008
     59 C                    -0.204489
     60 H                     0.229498
     61 C                    -0.330414
     62 H                     0.223995
     63 C                    -0.202537
     64 H                     0.229226
     65 C                    -0.333607
     66 H                     0.224143
     67 B                     0.667387
     68 C                    -0.142169
     69 C                    -0.402401
     70 H                     0.229919
     71 C                     0.115275
     72 C                     0.094970
     73 C                    -0.381855
     74 H                     0.228081
     75 C                    -0.156076
     76 C                     0.195091
     77 C                    -0.373203
     78 H                     0.220895
     79 C                    -0.065986
     80 C                     0.253192
     81 C                     0.199313
     82 C                    -0.382799
     83 H                     0.218697
     84 C                    -0.206096
     85 H                     0.229760
     86 C                    -0.329993
     87 H                     0.223739
     88 C                    -0.202314
     89 H                     0.229327
     90 C                    -0.335128
     91 H                     0.223990
     92 C                    -0.205058
     93 C                     0.059180
     94 C                    -0.282570
     95 H                     0.230422
     96 C                     0.145670
     97 C                    -0.281650
     98 H                     0.232763
     99 C                     0.030590
    100 N                    -0.715769
    101 C                     0.445007
    102 C                     0.440367
    103 C                    -0.305463
    104 H                     0.255851
    105 C                    -0.222847
    106 H                     0.213457
    107 C                    -0.236461
    108 H                     0.216490
    109 C                    -0.239340
    110 H                     0.228639
    111 C                    -0.211091
    112 C                    -0.301575
    113 H                     0.256318
    114 C                    -0.222076
    115 H                     0.209061
    116 C                    -0.235992
    117 H                     0.216080
    118 C                    -0.239711
    119 H                     0.228809
    120 C                    -0.209147
    121 C                    -0.760138
    122 H                     0.242203
    123 H                     0.248995
    124 H                     0.248350
    125 C                    -0.548694
    126 H                     0.253146
    127 H                     0.234864
    128 C                    -0.649272
    129 H                     0.244123
    130 H                     0.222839
    131 H                     0.219649
    132 S                     0.180281
  ----------------------------------------
  Sum of atomic charges =    -0.000000

 -----------------------------------------------------------------
                    Cartesian Multipole Moments
 -----------------------------------------------------------------
    Charge (ESU x 10^10)
                -0.0000
    Dipole Moment (Debye)
         X       0.5584      Y       0.6924      Z      -0.4273
       Tot       0.9868
    Quadrupole Moments (Debye-Ang)
        XX    -487.5557     XY     -29.4573     YY    -476.7770
        XZ      59.5422     YZ     -17.4632     ZZ    -443.9792
    Octopole Moments (Debye-Ang^2)
       XXX   12386.1154    XXY    1440.4460    XYY    4170.8566
       YYY    2796.1946    XXZ   -3474.8808    XYZ     -93.1129
       YYZ   -2392.4571    XZZ    4380.0399    YZZ     673.0127
       ZZZ   -6954.9120
    Hexadecapole Moments (Debye-Ang^3)
      XXXX -285424.6507   XXXY  -38780.1683   XXYY  -54467.1466
      XYYY  -30999.2846   YYYY  -25710.8463   XXXZ   90490.2761
      XXYZ   11316.1434   XYYZ   25071.0012   YYYZ   25117.7411
      XXZZ  -75870.7125   XYZZ  -10191.3490   YYZZ  -22722.6963
      XZZZ   76718.5419   YZZZ   20212.9634   ZZZZ -115901.0627
 -----------------------------------------------------------------
 Calculating analytic gradient of the CIS energy
 -7.877854263893790E-004 -7.878155647255723E-004
 -7.877646661120686E-004 -7.878363306872198E-004
 -7.877982870910287E-004 -7.878026886709841E-004
 -7.878264406700138E-004 -7.877745612596337E-004
 -7.877950501780051E-004 -7.878060164514181E-004
 -7.877715238462855E-004 -7.878294697017363E-004
 -7.877840677718446E-004 -7.878169249692918E-004
 -7.877956194667217E-004 -7.878054479427849E-004
 -7.878189271629715E-004 -7.877820524169857E-004
 -7.878064739683148E-004 -7.877945174832505E-004
 -7.878028706776759E-004 -7.877981709155370E-004
 -7.877862330745658E-004 -7.878147602528002E-004
 -7.878044602490324E-004 -7.877965585923024E-004
 -7.878044721239102E-004 -7.877966054512560E-004
 -7.877729081499392E-004 -7.878280820655025E-004
 -7.877991286405749E-004 -7.878019046916794E-004
 -7.877993432975728E-004 -7.878016911925736E-004
 -7.878085196697599E-004 -7.877924707423454E-004
 -7.877791391080656E-004 -7.878218507837140E-004
 -7.877964092666477E-004 -7.878046660114993E-004
 -7.878345147586506E-004 -7.877664727818501E-004
 -7.877891685294456E-004 -7.878118099693623E-004
 -7.878087442992171E-004 -7.877922702451350E-004
 -7.877948003967278E-004 -7.878061865931096E-004
 -7.877873947094203E-004 -7.878136080649889E-004
 -7.878036223863887E-004 -7.877974641898135E-004
 -7.877991369311922E-004 -7.878018424869380E-004
 -7.877770659794325E-004 -7.878239292333308E-004
 -7.878113588497400E-004 -7.877896983771057E-004
 -7.878202299343404E-004 -7.877807522335471E-004
 -7.877785747110200E-004 -7.878224265017282E-004
 -7.877926743608078E-004 -7.878084091677446E-004
 -7.878279074967277E-004 -7.877730949456743E-004
 -7.877985135523879E-004 -7.878025001159412E-004
 -7.877902816520534E-004 -7.878107821547834E-004
 -7.877987392053153E-004 -7.878022703655382E-004
 -7.877689985880790E-004 -7.878320208717587E-004
 -7.877989243140695E-004 -7.878021309710804E-004
 -7.878112747670406E-004 -7.877897429531133E-004
 -7.878000404994029E-004 -7.878009595061239E-004
 -7.878005113910459E-004 -7.878005481048350E-004
 -7.878121128244211E-004 -7.877888983230543E-004
 -7.877812776517001E-004 -7.878197055715071E-004
 -7.878163712403903E-004 -7.877846769987347E-004
 -7.878224463562473E-004 -7.877785562319558E-004
 -7.877645335580564E-004 -7.878364648457786E-004
 -7.878103590949756E-004 -7.877906866340735E-004
 -7.878115018369324E-004 -7.877895107561461E-004
 -7.878043422884547E-004 -7.877966568323533E-004
 -7.878032917961333E-004 -7.877976980547745E-004
 -7.878167642807094E-004 -7.877842343637305E-004
 -7.878246984865290E-004 -7.877763226155327E-004
 -7.877923846267056E-004 -7.878086606108679E-004
 -7.878023897523813E-004 -7.877986242586220E-004
 -7.877926698985086E-004 -7.878083341979805E-004
 -7.878036114444491E-004 -7.877974134982284E-004
 -7.878001566745148E-004 -7.878008633562086E-004
 -7.877783120431059E-004 -7.878226788997075E-004
 -7.877985153948527E-004 -7.878025338996191E-004
 -7.878101563175282E-004 -7.877908502411740E-004
 -7.878157974498444E-004 -7.877851859770408E-004
 -7.877974236855939E-004 -7.878036153970016E-004
 -7.877976102128463E-004 -7.878033966645539E-004
 -7.878314674908052E-004 -7.877695514034647E-004
 -7.877918575582510E-004 -7.878091792552637E-004
 -7.877792031745090E-004 -7.878218024124720E-004
 -7.877600133220330E-004 -7.878409766921927E-004
 -7.877794755102111E-004 -7.878215373727169E-004
 -7.878220857416544E-004 -7.877789047893528E-004
 -7.878218547881002E-004 -7.877791614576425E-004
 -7.878051655827201E-004 -7.877957874673612E-004
 -7.877827574735984E-004 -7.878182466879794E-004
 -7.877889325110379E-004 -7.878120805318154E-004
 -7.877909349450126E-004 -7.878100197134490E-004
 -7.877999090874893E-004 -7.878010868157492E-004
 -7.878250226103668E-004 -7.877759957130413E-004
 -7.878180500776501E-004 -7.877829292817611E-004
 -7.877939368848575E-004 -7.878070474565778E-004
 -7.877926069819501E-004 -7.878084037189593E-004
 -7.878052725292741E-004 -7.877957085257887E-004
 -7.878090381164170E-004 -7.877919427492548E-004
 -7.877623228585085E-004 -7.878386864153144E-004
 -7.878088188661717E-004 -7.877921663720912E-004
 -7.878320742449146E-004 -7.877689262387422E-004
 -7.877714941470186E-004 -7.878295026292756E-004
 -7.877648574049397E-004 -7.878361280224652E-004
 -7.878010359768374E-004 -7.877999667276926E-004
 -7.878228682771123E-004 -7.877781397587236E-004
 -7.878125444434381E-004 -7.877884578675755E-004
 -7.877912683178710E-004 -7.878097279072780E-004
 -7.877963801003336E-004 -7.878046353744947E-004
 -7.877805343092500E-004 -7.878204345314899E-004
 -7.877944500419045E-004 -7.878065457988234E-004
 -7.877905497255376E-004 -7.878104691394877E-004
 -7.877895611437079E-004 -7.878114049405981E-004
 -7.878016880492755E-004 -7.877993090962728E-004
 -7.878022212424084E-004 -7.877987785395493E-004
 -7.877879859321059E-004 -7.878130163370803E-004
 -7.878086450832687E-004 -7.877923467173724E-004
 -7.877883184345360E-004 -7.878126932174277E-004
 -7.877978057139891E-004 -7.878031870092933E-004
 -7.877908966818504E-004 -7.878100989407911E-004
 -7.878114584512385E-004 -7.877895286388744E-004
 -7.878142191995089E-004 -7.877867917519568E-004
 -7.878025221634163E-004 -7.877984689525385E-004
 -7.877770082752310E-004 -7.878239980396447E-004
 -7.878002659129705E-004 -7.878007512121832E-004
 -7.877987387031473E-004 -7.878022786474073E-004
 -7.877888329025099E-004 -7.878121658887329E-004
 -7.878086981601195E-004 -7.877922954631057E-004
 -7.878034032062082E-004 -7.877975846624351E-004
 -7.877766570680919E-004 -7.878243131369096E-004
 -7.877973528940524E-004 -7.878036540704649E-004
 -7.878114898322016E-004 -7.877895216767938E-004
 -7.878043920518577E-004 -7.877966022109339E-004
 -7.878093470328635E-004 -7.877916438384108E-004
 -7.878088324757437E-004 -7.877921507143212E-004
 -7.877891631313691E-004 -7.878118220431973E-004
 -7.878268572814208E-004 -7.877741643549362E-004
 -7.878130000203166E-004 -7.877879860993486E-004
 -7.878102607880632E-004 -7.877907309455327E-004
 -7.878145571481732E-004 -7.877864471379424E-004
 -7.878134972996519E-004 -7.877875166569696E-004
 -7.877989251033123E-004 -7.878020774937275E-004
 -7.878060423354734E-004 -7.877950369941383E-004
 -7.877977772613134E-004 -7.878032392563083E-004
 -7.878247958172379E-004 -7.877762072527251E-004
 -7.878065212361859E-004 -7.877945874745787E-004
 -7.877956292350019E-004 -7.878053912391980E-004
 -7.877909670036554E-004 -7.878100418717209E-004
 -7.878086635744590E-004 -7.877924482785954E-004
 -7.877949467094291E-004 -7.878060600816317E-004
 -7.878194049986039E-004 -7.877815971381309E-004
 -7.878089252748584E-004 -7.877921368067731E-004
 -7.877856470938405E-004 -7.878153653706911E-004
 -7.878094291378720E-004 -7.877915681703229E-004
 -7.878152320874959E-004 -7.877858771749786E-004
 -7.877771534141482E-004 -7.878238643278288E-004
 -7.877697003613602E-004 -7.878313054799877E-004
 -7.878030375741979E-004 -7.877980693523618E-004
 -7.877906097578830E-004 -7.878104024694801E-004
 -7.878015215928075E-004 -7.877994683378966E-004
 -7.878024370703275E-004 -7.877986772960806E-004
 -7.877885128014405E-004 -7.878125072385988E-004
 -7.877831654064688E-004 -7.878178292884602E-004
 -7.877973629910117E-004 -7.878037064061326E-004
 -7.877993654105581E-004 -7.878016606919126E-004
 -7.877760634646150E-004 -7.878249421489656E-004
 -7.877908425303748E-004 -7.878102629828068E-004
 -7.878107297002967E-004 -7.877902870998724E-004
 -7.877975497399893E-004 -7.878034402210495E-004
 -7.878126783544163E-004 -7.877884257703600E-004
 -7.877822866582533E-004 -7.878187316413024E-004
 -7.878077452754105E-004 -7.877932441508680E-004
 -7.878175590887618E-004 -7.877835425070383E-004
 -7.877678204376973E-004 -7.878332058967016E-004
 -7.878000021130776E-004 -7.878009868358720E-004
 -7.878049774696327E-004 -7.877960628296428E-004
 -7.877849093038430E-004 -7.878161040110935E-004
 -7.877908606749841E-004 -7.878101614746806E-004
 -7.878069898471573E-004 -7.877941177214157E-004
 -7.877868106687540E-004 -7.878142156977410E-004
 -7.878161167525953E-004 -7.877848594702886E-004
 -7.877889791174042E-004 -7.878121020889151E-004
 -7.878216437736475E-004 -7.877793766996013E-004
 -7.877863070387231E-004 -7.878146753239375E-004
 -7.878036477103970E-004 -7.877974585748260E-004
 -7.877896220976447E-004 -7.878114059491672E-004
 -7.877655510260788E-004 -7.878354609862542E-004
 -7.878076486413412E-004 -7.877934510192871E-004
 -7.877889668424836E-004 -7.878120454479358E-004
 -7.877944503659940E-004 -7.878065590052791E-004
 -7.878087886047032E-004 -7.877922536912214E-004
 -7.877942684802484E-004 -7.878067323217756E-004
 -7.878202391310920E-004 -7.877807376142346E-004
 -7.877946772758040E-004 -7.878064031240885E-004
 -7.878094470307628E-004 -7.877915672492025E-004
 -7.877983951686919E-004 -7.878025747642350E-004
 -7.878027966485185E-004 -7.877982224945992E-004
 -7.877894352738450E-004 -7.878115580522122E-004
 -7.877887490194574E-004 -7.878122235063931E-004
 -7.878059363189703E-004 -7.877951514827756E-004
 -7.877863889948928E-004 -7.878146362197514E-004
 -7.878101615306393E-004 -7.877908365739121E-004
 -7.877923905650794E-004 -7.878086485330328E-004
 -7.878148550899416E-004 -7.877861465033900E-004
 -7.878054818696800E-004 -7.877954817270624E-004
 -7.877917148711278E-004 -7.878093734781736E-004
 -7.878216763182539E-004 -7.877793549761421E-004
 -7.877923295922421E-004 -7.878086358481222E-004
 -7.878037975252360E-004 -7.877972285824914E-004
 -7.877978186077750E-004 -7.878031806279276E-004
 -7.877930996416392E-004 -7.878079182679329E-004
 -7.878077448624257E-004 -7.877933341255459E-004
 -7.877836548384492E-004 -7.878173339620531E-004
 -7.878102481130238E-004 -7.877907689441481E-004
 -7.877924930100850E-004 -7.878085423796015E-004
 -7.878158211000449E-004 -7.877851593031143E-004
 -7.878037814464371E-004 -7.877972231151732E-004
 -7.877930825767983E-004 -7.878079995781254E-004
 -7.878019901700035E-004 -7.877990257805196E-004
 -7.877772855067524E-004 -7.878237167663567E-004
 -7.877937391837369E-004 -7.878073722627357E-004
 -7.878084191540337E-004 -7.877925980453209E-004
 -7.878084167282567E-004 -7.877925900412302E-004
 -7.877957046223419E-004 -7.878054124003737E-004
 -7.878114132331052E-004 -7.877895914612196E-004
 -7.877823751073226E-004 -7.878186256688224E-004
 -7.877945964151171E-004 -7.878064655801393E-004
 -7.878173270011078E-004 -7.877836823769506E-004
 -7.877928249087450E-004 -7.878081706288686E-004
 -7.877903974783527E-004 -7.878107160263832E-004
 -7.878251821442829E-004 -7.877758372410228E-004
 -7.878290357277309E-004 -7.877719700277451E-004
 -7.877996117820401E-004 -7.878014984953648E-004
 -7.878089536790574E-004 -7.877920566854343E-004
 -7.878030505269498E-004 -7.877979435535128E-004
 -7.877982740727003E-004 -7.878028449928104E-004
 -7.878103077866937E-004 -7.877907080720590E-004
 -7.878203896119488E-004 -7.877806060591104E-004
 -7.878003592704635E-004 -7.878007105104006E-004
 -7.877980424561487E-004 -7.878029791656660E-004
 -7.878259522210372E-004 -7.877750582731441E-004
 -7.878062160212982E-004 -7.877948949252717E-004
 -7.877919321478899E-004 -7.878090786325392E-004
 -7.878154228875099E-004 -7.877855578157046E-004
 -7.877988199171477E-004 -7.878022883636154E-004
 -7.878085440222875E-004 -7.877924775348029E-004
 -7.878355384196731E-004 -7.877654758426416E-004
 -7.877931640328716E-004 -7.878079387529461E-004
 -7.878148000339109E-004 -7.877862038772851E-004
 -7.878100279659822E-004 -7.877909804640237E-004
 -7.877923521970844E-004 -7.878086894669423E-004
 -7.878048856724331E-004 -7.877961112287959E-004
 -7.878083764799511E-004 -7.877926458279377E-004
 -7.877964668918089E-004 -7.878046417851299E-004
 -7.878159047299233E-004 -7.877851158400237E-004
 -7.877868422432166E-004 -7.878141371472591E-004
 -7.878120160417739E-004 -7.877890636041794E-004
 -7.877740487692823E-004 -7.878269656827740E-004
 -7.877996402889971E-004 -7.878013453950335E-004
 -7.877943506079313E-004 -7.878067531013197E-004
 -7.878164598143204E-004 -7.877845532845426E-004
 -7.877961241731193E-004 -7.878048617476541E-004
 -7.877859754606699E-004 -7.878151285179356E-004
 -7.878339853408307E-004 -7.877670340305838E-004
 -7.877996067238174E-004 -7.878013794539099E-004
 -7.877944515958152E-004 -7.878065889138699E-004
 -7.878109154143678E-004 -7.877900941940431E-004
 -7.877996464508657E-004 -7.878013169146677E-004
 -7.878088134379760E-004 -7.877922765625527E-004
 -7.877760671724485E-004 -7.878249590112109E-004
 -7.878082470593426E-004 -7.877927179923610E-004
 -7.877960201197663E-004 -7.878050049771956E-004
 -7.878058558502069E-004 -7.877951412479095E-004
 -7.878043952242580E-004 -7.877966247378240E-004
 -7.877936078966096E-004 -7.878074742164572E-004
 -7.878195351771140E-004 -7.877814463968974E-004
 -7.877922780164817E-004 -7.878087439297760E-004
 -7.878069806024334E-004 -7.877940573372313E-004
 -7.877848734502507E-004 -7.878160984755176E-004
 -7.877807043871488E-004 -7.878202718522215E-004
 -7.878061718217651E-004 -7.877949090836610E-004
 -7.877854115325745E-004 -7.878156036773383E-004
 -7.878037476770741E-004 -7.877972297263451E-004
 -7.877963061293096E-004 -7.878047146588986E-004
 -7.878105954477217E-004 -7.877903959166371E-004
 -7.878123238694649E-004 -7.877886510973471E-004
 -7.877953414360694E-004 -7.878057432340431E-004
 -7.878163732590392E-004 -7.877846362677894E-004
 -7.877925331247086E-004 -7.878084695824443E-004
 -7.878071452895283E-004 -7.877938958032459E-004
 -7.877843730782242E-004 -7.878166167728677E-004
 -7.877777476074404E-004 -7.878232600175276E-004
 -7.877888967362379E-004 -7.878121092612804E-004
 -7.878096205633525E-004 -7.877913751658080E-004
 -7.878312045156609E-004 -7.877697989578913E-004
 -7.878368660374687E-004 -7.877641199043212E-004
 -7.877977018579454E-004 -7.878033041648613E-004
 -7.877794896836633E-004 -7.878215200502518E-004
 -7.877996249925848E-004 -7.878013289668119E-004
 -7.878238912113600E-004 -7.877771184587732E-004
 -7.878112691582175E-004 -7.877897357314963E-004
 -7.878100180874168E-004 -7.877909357291636E-004
 -7.878057576794954E-004 -7.877952430426837E-004
 -7.878390469418770E-004 -7.877619400350906E-004
 -7.878166897489219E-004 -7.877843185258737E-004
 -7.877723858387404E-004 -7.878286112818091E-004
 -7.877754817538201E-004 -7.878255383618868E-004
 -7.877831495287452E-004 -7.878178228258272E-004
 -7.878071906046931E-004 -7.877937896583568E-004
 -7.878093773242091E-004 -7.877916375825806E-004
 -7.877971547763040E-004 -7.878038208212417E-004
 -7.877927518281879E-004 -7.878082261484805E-004
 -7.878345875043873E-004 -7.877664236160895E-004
 -7.877880812190747E-004 -7.878129000378234E-004
 -7.877679936436285E-004 -7.878330012089358E-004
 -7.878069111870804E-004 -7.877940980338377E-004
 -7.878000376682842E-004 -7.878010165259383E-004
 -7.877997650358578E-004 -7.878012679122933E-004
 -7.878231050871646E-004 -7.877779030027168E-004
 -7.878146256163653E-004 -7.877864399357887E-004
 -7.877746120950719E-004 -7.878264257901213E-004
 -7.878291880998848E-004 -7.877718260058476E-004
 -7.878113576441438E-004 -7.877897070431481E-004
 -7.877830857024530E-004 -7.878179447603734E-004
 -7.878127322537866E-004 -7.877882762192887E-004
 -7.877990403440322E-004 -7.878020246510040E-004
 -7.877976905225349E-004 -7.878033356724790E-004
 -7.878237380446180E-004 -7.877772634510778E-004
 -7.878099400659454E-004 -7.877911058738538E-004
 -7.877818103397200E-004 -7.878191950314353E-004
 -7.878203577692983E-004 -7.877806339200096E-004
 -7.878213650453884E-004 -7.877796902804128E-004
 -7.877672053458801E-004 -7.878338176667214E-004
 -7.878106023539447E-004 -7.877903757166486E-004
 -7.878008948354711E-004 -7.878001116440212E-004
 -7.878051025401975E-004 -7.877958987855003E-004
 -7.877940601495171E-004 -7.878069560951364E-004
 -7.877866215227169E-004 -7.878144309173328E-004
 -7.878236450010761E-004 -7.877773828602292E-004
 -7.878006535610072E-004 -7.878003793944559E-004
 -7.878067249489347E-004 -7.877942956001110E-004
 -7.877931640727132E-004 -7.878078419109969E-004
 -7.878144668384514E-004 -7.877865285181272E-004
 -7.878095103637624E-004 -7.877915321781657E-004
 -7.877857777478136E-004 -7.878152297924911E-004
 -7.877951029935391E-004 -7.878058927198852E-004
 -7.877934149576005E-004 -7.878076141349010E-004
 -7.878134927033995E-004 -7.877875094857085E-004
 -7.877724054469722E-004 -7.878285961328817E-004
 -7.877871891798729E-004 -7.878138621120531E-004
 -7.878261376165175E-004 -7.877748845402665E-004
 -7.878037224838271E-004 -7.877972700453003E-004
 -7.878009594502225E-004 -7.878001157553386E-004
 -7.877959448618050E-004 -7.878050868520876E-004
 -7.878202964094335E-004 -7.877806837473645E-004
 -7.878032033065493E-004 -7.877978538339737E-004
 -7.877842092401421E-004 -7.878168098796133E-004
 -7.878383248426583E-004 -7.877626685039879E-004
 -7.878041358222935E-004 -7.877969254504714E-004
 -7.877838064702206E-004 -7.878172196978250E-004
 -7.877980372856237E-004 -7.878029581919512E-004
 -7.877990051982392E-004 -7.878020063915741E-004
 -7.877888902707478E-004 -7.878121101810253E-004
 -7.877791905173253E-004 -7.878218137205670E-004
 -7.877993200142484E-004 -7.878017398575188E-004
 -7.878058629550877E-004 -7.877951671458438E-004
 -7.878106792015405E-004 -7.877903127513129E-004
 -7.877991008241773E-004 -7.878019283970478E-004
 -7.878013259728590E-004 -7.877996986277931E-004
 -7.878153418832274E-004 -7.877856538507939E-004
 -7.878119041018274E-004 -7.877891519989592E-004
 -7.877843364316056E-004 -7.878166803090580E-004
 -7.877844978348561E-004 -7.878164939908037E-004
 -7.877991815967493E-004 -7.878018566311554E-004
 -7.878068753821654E-004 -7.877941360699828E-004
 -7.877768345054487E-004 -7.878241652291820E-004
 -7.877883602906953E-004 -7.878126923007002E-004
 -7.878248958519763E-004 -7.877761262937187E-004
 -7.878059545412095E-004 -7.877950632153975E-004
 -7.878174955866581E-004 -7.877834640795871E-004
 -7.878103324623094E-004 -7.877906688949050E-004
 -7.878121775008587E-004 -7.877888431129174E-004
 -7.878119761355413E-004 -7.877889896594892E-004
 -7.878033604259104E-004 -7.877976368578450E-004
 -7.878002973722736E-004 -7.878007021441205E-004
 -7.878121265371867E-004 -7.877888723224178E-004
 -7.877976125957377E-004 -7.878033913824845E-004
 -7.878150082724946E-004 -7.877860011361162E-004
 -7.878001986745992E-004 -7.878007936972677E-004
 -7.878109632753638E-004 -7.877900356896020E-004
 -7.877934212141606E-004 -7.878075732184846E-004
 -7.877906317271255E-004 -7.878103675783701E-004
 -7.877929928138035E-004 -7.878079908969195E-004
 -7.878182821203766E-004 -7.877827235452055E-004
 -7.877946120296624E-004 -7.878063987058693E-004
 -7.878071745966402E-004 -7.877938329849229E-004
 -7.878115470572354E-004 -7.877894592092842E-004
 -7.877921355278743E-004 -7.878088517554544E-004
 -7.877971188680013E-004 -7.878038679248364E-004
 -7.878238491907182E-004 -7.877771306063772E-004
 -7.878017600993410E-004 -7.877992482778103E-004
 -7.877985614631577E-004 -7.878024409335623E-004
 -7.877973145511973E-004 -7.878036924544249E-004
 -7.877905114653737E-004 -7.878104766043886E-004
 -7.877859349198191E-004 -7.878150482512903E-004
 -7.878078609574086E-004 -7.877931277714912E-004
 -7.877712106339120E-004 -7.878298014985561E-004
 -7.877894385933041E-004 -7.878115421641532E-004
 -7.877958174978515E-004 -7.878051745397691E-004
 -7.877899991373893E-004 -7.878110024685548E-004
 -7.877839540979010E-004 -7.878170557845102E-004
 -7.877977718550102E-004 -7.878032006696260E-004
 -7.878073104683334E-004 -7.877937087206400E-004
 -7.877973953552877E-004 -7.878036020752666E-004
 CIS relaxed dipole moment
            1
    1 -10.8502067
    2  -3.1247108
    3   6.6110599
	Magnitude:	13.084 au	33.257 Debye
 CIS 1 State Energy is -3799.3489496790
 Gradient of the state energy (including CIS Excitation Energy)
            1           2           3           4           5           6
    1   0.0009488  -0.0002767  -0.0004894   0.0001713   0.0001612   0.0001176
    2  -0.0001548   0.0002848   0.0001304  -0.0000106   0.0000372  -0.0000039
    3   0.0001436  -0.0006960  -0.0003279   0.0000111   0.0000723   0.0000136
            7           8           9          10          11          12
    1   0.0002245   0.0001166   0.0002116   0.0002130  -0.0017370   0.0002453
    2  -0.0001208  -0.0000259   0.0000331  -0.0000063   0.0001872   0.0000265
    3  -0.0001128   0.0000057  -0.0003153   0.0000768  -0.0006039   0.0000645
           13          14          15          16          17          18
    1  -0.0022935   0.0000295   0.0002556   0.0002603   0.0001671   0.0003890
    2  -0.0002972  -0.0000277   0.0000909   0.0000221   0.0000035   0.0000288
    3  -0.0005209  -0.0000966  -0.0000173   0.0000088   0.0000302   0.0000023
           19          20          21          22          23          24
    1   0.0001528  -0.0000581   0.0001939   0.0003387  -0.0005586  -0.0004682
    2   0.0000330   0.0000043   0.0000256   0.0001479  -0.0005898  -0.0003837
    3   0.0000374   0.0000577   0.0000275   0.0001399   0.0001329   0.0006436
           25          26          27          28          29          30
    1   0.0003280   0.0000292   0.0002841   0.0001811  -0.0000669  -0.0008387
    2   0.0000198  -0.0004377   0.0002486  -0.0005404  -0.0000133  -0.0000193
    3   0.0000009   0.0003068   0.0000652   0.0001222   0.0003089   0.0001117
           31          32          33          34          35          36
    1   0.0004617   0.0001983   0.0001585   0.0000667   0.0005684   0.0001269
    2   0.0003251  -0.0000345   0.0000431   0.0002439  -0.0001410  -0.0000877
    3   0.0000833  -0.0001310  -0.0000187   0.0000875   0.0001062  -0.0000638
           37          38          39          40          41          42
    1   0.0000553   0.0002441   0.0002962   0.0000201   0.0001630   0.0006018
    2   0.0000124   0.0001586   0.0001610   0.0000664  -0.0000307   0.0000903
    3   0.0000244   0.0000244  -0.0000919  -0.0000509  -0.0001037  -0.0001770
           43          44          45          46          47          48
    1  -0.0006578  -0.0000949   0.0005844  -0.0021584  -0.0024010  -0.0002842
    2  -0.0000975   0.0000427  -0.0000364  -0.0002729   0.0001332  -0.0000245
    3  -0.0004049  -0.0001300   0.0000267  -0.0011333  -0.0010108  -0.0000666
           49          50          51          52          53          54
    1   0.0005120  -0.0003440  -0.0004120   0.0007498   0.0004947  -0.0028969
    2  -0.0000692   0.0003425   0.0000226   0.0000071   0.0000618  -0.0002313
    3   0.0000718  -0.0002846  -0.0004701   0.0003365   0.0001274  -0.0013973
           55          56          57          58          59          60
    1  -0.0000500   0.0001338   0.0006935   0.0004553   0.0007936   0.0003082
    2  -0.0001116  -0.0002398   0.0001733   0.0000490   0.0001261   0.0000479
    3   0.0000833   0.0000874   0.0004700   0.0001953   0.0003261   0.0000769
           61          62          63          64          65          66
    1   0.0005866   0.0003405   0.0004430   0.0002801   0.0006346   0.0003413
    2   0.0000356   0.0000151   0.0000498  -0.0000037   0.0001806   0.0000113
    3   0.0004680   0.0000777   0.0004155   0.0000767   0.0002250   0.0001094
           67          68          69          70          71          72
    1   0.0002878  -0.0004511   0.0001588   0.0003063  -0.0015988  -0.0026928
    2  -0.0003681   0.0001892   0.0000573  -0.0000211  -0.0001298   0.0001019
    3   0.0000734  -0.0001477  -0.0000538  -0.0001719  -0.0011213  -0.0009689
           73          74          75          76          77          78
    1   0.0000056   0.0005205  -0.0002934  -0.0000725   0.0007669   0.0004375
    2   0.0000380   0.0001401   0.0001655  -0.0002413  -0.0000541   0.0000308
    3   0.0003094   0.0000287   0.0003460  -0.0004346   0.0000931   0.0000812
           79          80          81          82          83          84
    1  -0.0031567   0.0002822  -0.0007751   0.0008101   0.0004050   0.0009507
    2  -0.0000558  -0.0000067   0.0001435   0.0000754  -0.0000515   0.0000075
    3  -0.0012610   0.0005036   0.0002063   0.0003592   0.0001463   0.0003021
           85          86          87          88          89          90
    1   0.0002635   0.0007333   0.0003042   0.0003030   0.0002658   0.0009826
    2   0.0000268   0.0000562   0.0000093   0.0000174  -0.0000120   0.0001111
    3   0.0000944   0.0003568   0.0001238   0.0003748   0.0001214   0.0002500
           91          92          93          94          95          96
    1   0.0003204  -0.0006473  -0.0006248  -0.0005122   0.0003045  -0.0019936
    2   0.0000362   0.0000426  -0.0006117  -0.0004120   0.0001493  -0.0009176
    3   0.0001464   0.0008867   0.0000124   0.0003626  -0.0000322   0.0002759
           97          98          99         100         101         102
    1  -0.0002400   0.0003999   0.0002064   0.0004800  -0.0020022  -0.0021868
    2  -0.0002063   0.0000405   0.0001455   0.0001396  -0.0002668  -0.0001866
    3   0.0005244   0.0000185   0.0003679  -0.0000189  -0.0009136  -0.0005887
          103         104         105         106         107         108
    1  -0.0000182   0.0004094   0.0002092   0.0001958   0.0001627   0.0001598
    2   0.0000845   0.0001266   0.0000629   0.0000349   0.0000714   0.0000141
    3   0.0000154   0.0000232   0.0000221   0.0000415   0.0000893   0.0000475
          109         110         111         112         113         114
    1  -0.0001609   0.0002445   0.0006477   0.0001961   0.0006038   0.0002892
    2  -0.0000716   0.0000365   0.0001290   0.0000963   0.0000680   0.0000419
    3  -0.0000635   0.0000716   0.0000923  -0.0000019  -0.0000205   0.0000928
          115         116         117         118         119         120
    1   0.0002347   0.0002970   0.0001782   0.0000025   0.0002497   0.0002216
    2   0.0000286   0.0000212  -0.0000105   0.0000339   0.0000227   0.0002080
    3   0.0000323   0.0000572   0.0000247  -0.0000186   0.0000643   0.0000682
          121         122         123         124         125         126
    1   0.0004068   0.0000960   0.0002784   0.0002646   0.0004819   0.0002237
    2  -0.0000856   0.0001626   0.0001010   0.0001248   0.0002224  -0.0000051
    3  -0.0000618   0.0000177   0.0001104   0.0000829   0.0001649   0.0001265
          127         128         129         130         131         132
    1   0.0001298   0.0004645   0.0002873   0.0000908   0.0001142   0.0015467
    2  -0.0000699   0.0000740   0.0001105   0.0001001   0.0000674   0.0003065
    3  -0.0000086   0.0001089   0.0000416  -0.0000209   0.0000065   0.0004841
 Gradient time:  CPU 6636.94 s  wall 1029.67 s
 Geometry Optimization Parameters
   NAtoms,    NIC,     NZ,  NCons,   NDum,   NFix, NCnnct, MaxDiis
      132    1060     132       0       0       0       0       0


** GEOMETRY OPTIMIZATION IN DELOCALIZED INTERNAL COORDINATES **
   Searching for a Minimum

   Optimization Cycle:   1

                       Coordinates (Angstroms)
     ATOM                X               Y               Z
      1  S         0.0000000000    0.0000000000    0.0000000000
      2  C         0.0000000000    0.0000000000    1.7569860000
      3  C         1.2095447200    0.0000000000    2.4324910128
      4  H         2.1258218407    0.1216959230    1.8683861592
      5  C         1.2500430424   -0.1845524741    3.8053762857
      6  H         2.1985178606   -0.2058000908    4.3245933001
      7  C         0.0599816053   -0.3508636331    4.4912186067
      8  H         0.0657864152   -0.5081545115    5.5618142122
      9  C        -1.1564476601   -0.3051299086    3.8272586155
     10  H        -2.0674935555   -0.4303589615    4.3937284093
     11  C        -1.2117424800   -0.1201256039    2.4458371728
     12  N        -2.4280483220   -0.0643724841    1.7532120746
     13  C        -2.5709841158    0.7155392832    0.5969221753
     14  C        -3.7806091071    1.3224466226    0.2606709970
     15  H        -4.6486816851    1.1807740352    0.8876691336
     16  C        -3.8909580428    2.1006924617   -0.8815501329
     17  H        -4.8463289730    2.5503428198   -1.1177899880
     18  C        -2.7974619735    2.3168894253   -1.7017003058
     19  H        -2.8792538336    2.9356619147   -2.5848589135
     20  C        -1.5893463027    1.7206174174   -1.3779493780
     21  H        -0.7192405370    1.8680287357   -2.0054806222
     22  C        -1.4828621498    0.9072706460   -0.2617435252
     23  C        -3.6135021735   -0.4528025450    2.4460543276
     24  C        -4.1389418841   -1.7091657057    2.2276855039
     25  H        -3.6313436208   -2.3776547669    1.5407408530
     26  C        -4.2498487988    0.4171414138    3.3216372240
     27  H        -3.8304605548    1.4038979654    3.4883437413
     28  C        -5.4166233210    0.0352747412    3.9678780646
     29  C        -5.3111253915   -2.1084997118    2.8670978766
     30  C        -5.9696288374   -1.2367589077    3.7400352618
     31  C        -6.0915120406    0.9931612616    4.9083406398
     32  H        -5.5690299951    1.9490050220    4.9485244911
     33  H        -6.1311234784    0.5890848883    5.9217180248
     34  H        -7.1223665416    1.1869507318    4.6056603415
     35  C        -5.8162498542   -3.5055510919    2.6166937189
     36  H        -6.8789426320   -3.5712035413    2.8590290948
     37  H        -5.7322480999   -3.7372940017    1.5510739501
     38  C        -5.0447041772   -4.5478004610    3.4223970533
     39  H        -5.1531572704   -4.3728022744    4.4926305147
     40  H        -5.4082984664   -5.5542247320    3.2111293684
     41  H        -3.9798055720   -4.5215306393    3.1863753715
     42  B        -7.3297439339   -1.6378959345    4.4465592620
     43  C        -7.3294642407   -2.2774881982    5.8385965996
     44  C        -6.1159907216   -2.5577871306    6.4879315688
     45  H        -5.1811587743   -2.3028952138    5.9978579110
     46  C        -6.1018007324   -3.1528289402    7.7262066186
     47  C        -7.3269032639   -3.4876058198    8.3740998714
     48  C        -8.5233621727   -3.2142236250    7.7563557762
     49  H        -9.4513969592   -3.4731772835    8.2554827811
     50  C        -8.5627819645   -2.6053982263    6.4856077210
     51  C        -5.0009194599   -3.5576333619    8.5908415622
     52  C        -3.6293905576   -3.5068607150    8.5178298648
     53  H        -3.1181414099   -3.0861404762    7.6606654125
     54  C        -5.5910481423   -4.1234367087    9.7393697142
     55  C        -4.8700333478   -4.6361192953   10.8152547989
     56  C        -6.9986703642   -4.1020228814    9.6582727193
     57  C        -7.7117820219   -4.6149119612   10.7142453207
     58  H        -8.7948092400   -4.6206787807   10.7169705367
     59  C        -2.8748089021   -4.0222449075    9.5947136264
     60  H        -1.7944225680   -3.9819291210    9.5336566712
     61  C        -3.4588939267   -4.5714105947   10.7133268380
     62  H        -2.8382018994   -4.9539719543   11.5144262582
     63  C        -7.0084347958   -5.1399557364   11.8208471551
     64  H        -7.5737669826   -5.5423082792   12.6521296541
     65  C        -5.6337938354   -5.1592863282   11.8850884099
     66  H        -5.1368246426   -5.5728930001   12.7542153885
     67  B        -9.8909992034   -2.2914295643    5.7898371542
     68  C        -9.9098880713   -1.6754379657    4.3891425916
     69  C       -11.1166736417   -1.4167026666    3.7058123679
     70  H       -12.0611679772   -1.6461498278    4.1900107342
     71  C       -11.1139342250   -0.8821635128    2.4379330147
     72  C        -9.8732315524   -0.5771917090    1.8071957465
     73  C        -8.6858892686   -0.8134610154    2.4564528016
     74  H        -7.7443995662   -0.5810224148    1.9688661454
     75  C        -8.6697475391   -1.3650310046    3.7464924939
     76  C       -10.1478311084   -0.0413430569    0.4840745292
     77  C        -9.3772529925    0.4031666813   -0.5621545675
     78  H        -8.2951507905    0.4101614846   -0.5114516446
     79  C       -11.5500798141   -0.0308517717    0.3459002600
     80  C       -12.2148223350    0.4063078252   -0.7955461318
     81  C       -12.1830512542   -0.5320806495    1.5030828870
     82  C       -13.5541794363   -0.5938915644    1.5093475019
     83  H       -14.1016756499   -0.9733300788    2.3630995593
     84  C       -10.0277668443    0.8549518406   -1.7309870574
     85  H        -9.4217003090    1.2050318563   -2.5571087587
     86  C       -11.3982829936    0.8636032324   -1.8591518247
     87  H       -11.8515717134    1.2179192901   -2.7767501956
     88  C       -14.2590767263   -0.1532575092    0.3663475039
     89  H       -15.3405002242   -0.2039663062    0.3754501750
     90  C       -13.6274331469    0.3331508678   -0.7558015796
     91  H       -14.2117170698    0.6566838339   -1.6084336857
     92  C       -11.2424094020   -2.6554478367    6.5508156329
     93  C       -11.7641664360   -1.8159459525    7.5452397764
     94  C       -12.8912133260   -2.2020554417    8.2664099196
     95  H       -13.2818913037   -1.5658590736    9.0526470019
     96  C       -13.4879096451   -3.4142648027    7.9869629400
     97  C       -13.0059301060   -4.2539732221    7.0025284388
     98  H       -13.4859977201   -5.2072032202    6.8129060119
     99  C       -11.8781887296   -3.8773387129    6.2810478927
    100  N       -14.6105020441   -3.8464541339    8.7830453717
    101  C       -15.8638851462   -3.4548586327    8.3838766053
    102  C       -14.3293829417   -4.6251294570    9.8794200418
    103  C       -16.0165278515   -2.6714773784    7.2243394902
    104  H       -15.1458598800   -2.3898535968    6.6529268164
    105  C       -17.2599083992   -2.2624853397    6.8179378436
    106  H       -17.3464542918   -1.6609781293    5.9245980647
    107  C       -18.4074237424   -2.6106727296    7.5386816801
    108  H       -19.3815786320   -2.2807017488    7.2091140179
    109  C       -18.2873751525   -3.3788004519    8.6689699335
    110  H       -19.1651837948   -3.6602200168    9.2361347488
    111  C       -17.0281205495   -3.8055836082    9.0980329149
    112  C       -12.9939439531   -4.9642111521   10.1754606799
    113  H       -12.1959471914   -4.6079218834    9.5438143582
    114  C       -12.6952391960   -5.7483999737   11.2589117005
    115  H       -11.6616136236   -5.9933281626   11.4571836125
    116  C       -13.7014094803   -6.2316669634   12.1023942707
    117  H       -13.4526993423   -6.8502350544   12.9522900875
    118  C       -15.0094913559   -5.9112836634   11.8421966270
    119  H       -15.7999469478   -6.2731202488   12.4869270506
    120  C       -15.3326188454   -5.1134019522   10.7412908066
    121  C       -11.3195746683   -4.7999480162    5.2366714461
    122  H       -11.8766517348   -5.7349926018    5.1801455291
    123  H       -11.3349471004   -4.3349629287    4.2505290935
    124  H       -10.2762459363   -5.0371200044    5.4497176600
    125  C       -11.1169238827   -0.4918382106    7.8532298964
    126  H       -10.0320504729   -0.6009250537    7.8120091918
    127  H       -11.3579793521   -0.1961764494    8.8779174762
    128  C       -11.5514810082    0.6105775942    6.8897934003
    129  H       -11.2599925669    0.3776453104    5.8667480391
    130  H       -11.0847718379    1.5586390019    7.1574963441
    131  H       -12.6330654557    0.7536374208    6.9092458210
    132  S       -17.0005297816   -4.7662121391   10.5228891615
   Point Group: c1    Number of degrees of freedom:   390


   Energy is  -3799.348949679


 Attempting to Generate Delocalized Internal Coordinates

390 Hessian modes will be used to form the next step
  Hessian Eigenvalues:
     0.005579    0.005651    0.006442    0.007604    0.008316    0.008429
     0.008849    0.009003    0.010026    0.011984    0.012079    0.012751
     0.014240    0.014446    0.016371    0.016431    0.016782    0.016868
     0.017200    0.017441    0.017489    0.017499    0.017573    0.017615
     0.017789    0.017828    0.018020    0.018148    0.018277    0.018617
     0.018902    0.019096    0.019231    0.019394    0.019435    0.019494
     0.019526    0.020156    0.020258    0.020276    0.020473    0.020476
     0.020571    0.020655    0.020715    0.020735    0.020977    0.020993
     0.021023    0.021116    0.021226    0.021232    0.021300    0.021432
     0.021490    0.021648    0.021685    0.021693    0.022258    0.022280
     0.022324    0.022416    0.022514    0.022527    0.022664    0.022676
     0.023154    0.023155    0.023181    0.023181    0.023189    0.023255
     0.023335    0.023381    0.023411    0.023462    0.023498    0.023505
     0.023523    0.023573    0.023601    0.023628    0.023744    0.023777
     0.023802    0.023839    0.023948    0.023966    0.023992    0.024029
     0.024066    0.024088    0.024096    0.024112    0.024176    0.024226
     0.024258    0.024316    0.024320    0.024336    0.024347    0.024350
     0.024392    0.024394    0.024399    0.024403    0.024446    0.024461
     0.024507    0.024570    0.024617    0.024658    0.024679    0.024820
     0.024949    0.025197    0.025214    0.042386    0.042742    0.055535
     0.055691    0.055831    0.056233    0.056521    0.056938    0.071488
     0.071896    0.072845    0.073664    0.093820    0.094595    0.128443
     0.128884    0.159937    0.159945    0.159961    0.159965    0.159978
     0.159984    0.159988    0.159990    0.159992    0.159993    0.159994
     0.159995    0.159998    0.159998    0.159998    0.159998    0.159999
     0.159999    0.159999    0.159999    0.160000    0.160000    0.160000
     0.160000    0.160000    0.160000    0.160000    0.160000    0.160000
     0.160000    0.160000    0.160000    0.160000    0.160000    0.160000
     0.160000    0.160000    0.160000    0.160000    0.160000    0.160000
     0.160000    0.160000    0.160000    0.160000    0.160000    0.160000
     0.160000    0.219113    0.219298    0.219961    0.219968    0.219999
     0.219999    0.220608    0.220609    0.222131    0.222132    0.225240
     0.225402    0.225490    0.225914    0.229883    0.231277    0.231525
     0.231853    0.233782    0.233786    0.234650    0.234723    0.234920
     0.234953    0.237387    0.237387    0.239788    0.240067    0.240560
     0.242900    0.244778    0.245032    0.245289    0.245689    0.247097
     0.248977    0.249025    0.249291    0.249356    0.249700    0.249714
     0.249725    0.249771    0.249883    0.249888    0.249906    0.249913
     0.249933    0.249953    0.249957    0.249966    0.249974    0.249982
     0.249983    0.249983    0.249987    0.249988    0.249990    0.249993
     0.249995    0.249996    0.249998    0.249998    0.284081    0.287981
     0.288481    0.291211    0.291261    0.293319    0.296826    0.297330
     0.317027    0.317897    0.321170    0.322386    0.330941    0.332553
     0.335647    0.336615    0.343819    0.344235    0.345343    0.345593
     0.345884    0.346158    0.346184    0.346769    0.346832    0.346908
     0.347030    0.347267    0.347690    0.348019    0.348052    0.348265
     0.348293    0.349325    0.352916    0.352976    0.353454    0.353856
     0.353892    0.354404    0.354886    0.355146    0.355971    0.356045
     0.356077    0.356220    0.356258    0.356283    0.356288    0.356492
     0.356497    0.356509    0.356509    0.356547    0.356640    0.356760
     0.357151    0.357152    0.357413    0.357535    0.358137    0.358195
     0.359227    0.359409    0.359716    0.359749    0.359845    0.359902
     0.361353    0.362012    0.366608    0.372819    0.374425    0.382678
     0.386066    0.390169    0.392472    0.397184    0.400622    0.407129
     0.407601    0.407910    0.409963    0.410284    0.414295    0.416771
     0.417228    0.417466    0.417857    0.420014    0.421620    0.422793
     0.423772    0.423857    0.426413    0.427142    0.428526    0.430119
     0.431453    0.431707    0.433154    0.433424    0.435079    0.441415
     0.442223    0.444139    0.447277    0.447735    0.451753    0.453155
     0.454830    0.455425    0.456670    0.457895    0.461525    0.465764
     0.469595    0.470349    0.473325    0.473473    0.473994    0.477429
     0.480130    0.480304    0.480998    0.481319    0.482356    0.482438
     0.483716    0.483797    0.484453    0.485907    0.485983    0.486091
     0.488064    0.491263    0.491443    0.494493    0.494961    0.495752
     0.496288    0.496441    0.497618    0.499492    0.502399    0.502763

 Minimum Search - Taking Simple RFO Step
 Searching for Lamda that Minimizes Along All modes
 Value Taken    Lamda =  -0.00430768
 Calculated Step too Large.  Step scaled by  0.878249
 Step Taken.  Stepsize is  0.300000

                             Maximum     Tolerance    Cnvgd?
         Gradient           0.012180      0.000300      NO
         Displacement       0.133330      0.001200      NO
         Energy change     *********      0.000001      NO


 New Cartesian Coordinates Obtained by Inverse Iteration

 Displacement from previous Coordinates is:  4.911055
 Adding empirical dispersion correction 
 ----------------------------------------------------------------
 Doing -D3(BJ) with
 s6 =   1.00000
 s8 =   0.00000
 a1 =   0.48600
 a2 =   4.50000
 -D3 energy including 3body term =     -0.1318010884 hartrees
[...]
  0.207   0.208   0.209   0.213   0.213   0.214   0.216   0.216
  0.217   0.218   0.220   0.222   0.222   0.224   0.225   0.227
  0.233   0.234   0.237   0.237   0.239   0.242   0.244   0.244
  0.245   0.246   0.248   0.249   0.252   0.253   0.256   0.257
  0.260   0.261   0.264   0.266   0.270   0.272   0.274   0.275
  0.277   0.279   0.280   0.282   0.286   0.287   0.288   0.295
  0.299   0.300   0.301   0.303   0.306   0.309   0.312   0.315
  0.317   0.319   0.321   0.321   0.322   0.325   0.325   0.327
  0.334   0.335   0.336   0.339   0.343   0.345   0.349   0.353
  0.358   0.366   0.370   0.373   0.374   0.381   0.384   0.388
  0.388   0.395   0.397   0.402   0.407   0.410   0.411   0.413
  0.418   0.424   0.427   0.431   0.436   0.437   0.441   0.446
  0.448   0.451   0.458   0.459   0.464   0.465   0.468   0.475
  0.481   0.482   0.484   0.488   0.491   0.492   0.496   0.497
  0.499   0.502   0.505   0.513   0.515   0.516   0.519   0.521
  0.522   0.524   0.524   0.525   0.526   0.528   0.529   0.529
  0.531   0.532   0.536   0.536   0.539   0.540   0.542   0.545
  0.548   0.549   0.551   0.553   0.554   0.554   0.556   0.557
  0.562   0.563   0.563   0.567   0.569   0.571   0.573   0.574
  0.575   0.577   0.578   0.580   0.580   0.582   0.583   0.584
  0.585   0.586   0.587   0.588   0.592   0.593   0.593   0.595
  0.596   0.598   0.599   0.602   0.604   0.605   0.605   0.609
  0.610   0.610   0.611   0.612   0.613   0.615   0.616   0.618
  0.620   0.621   0.621   0.623   0.624   0.625   0.626   0.628
  0.631   0.633   0.635   0.636   0.638   0.639   0.641   0.641
  0.643   0.645   0.645   0.647   0.649   0.649   0.651   0.652
  0.653   0.654   0.657   0.661   0.664   0.665   0.670   0.670
  0.674   0.675   0.682   0.685   0.686   0.688   0.689   0.692
  0.694   0.695   0.698   0.700   0.701   0.704   0.705   0.711
  0.711   0.716   0.718   0.718   0.720   0.723   0.723   0.727
  0.728   0.733   0.734   0.739   0.741   0.743   0.745   0.747
  0.750   0.752   0.753   0.755   0.760   0.760   0.761   0.769
  0.772   0.773   0.775   0.777   0.780   0.783   0.785   0.791
  0.792   0.793   0.797   0.799   0.802   0.805   0.807   0.810
  0.817   0.817   0.819   0.826   0.828   0.832   0.832   0.836
  0.842   0.843   0.850   0.853   0.860   0.861   0.866   0.870
  0.873   0.877   0.880   0.884   0.885   0.889   0.895   0.902
  0.903   0.905   0.908   0.911   0.916   0.918   0.921   0.923
  0.926   0.928   0.935   0.936   0.937   0.939   0.940   0.943
  0.946   0.946   0.953   0.956   0.960   0.961   0.965   0.968
  0.971   0.972   0.974   0.978   0.979   0.979   0.980   0.981
  0.983   0.986   0.988   0.992   0.995   0.997   0.998   1.002
  1.002   1.003   1.004   1.004   1.007   1.012   1.013   1.015
  1.018   1.019   1.019   1.023   1.024   1.027   1.028   1.030
  1.032   1.035   1.038   1.041   1.043   1.043   1.047   1.048
  1.053   1.055   1.061   1.063   1.064   1.065   1.067   1.069
  1.072   1.072   1.074   1.076   1.079   1.081   1.084   1.086
  1.090   1.092   1.094   1.095   1.099   1.105   1.106   1.107
  1.113   1.116   1.117   1.122   1.124   1.125   1.126   1.132
  1.133   1.135   1.143   1.144   1.146   1.147   1.150   1.152
  1.155   1.156   1.157   1.159   1.164   1.166   1.171   1.176
  1.181   1.183   1.187   1.189   1.191   1.192   1.197   1.209
  1.211   1.213   1.216   1.221   1.222   1.224   1.231   1.234
  1.243   1.244   1.248   1.252   1.255   1.257   1.260   1.263
  1.266   1.273   1.274   1.275   1.281   1.283   1.286   1.288
  1.291   1.291   1.292   1.296   1.297   1.302   1.305   1.307
  1.313   1.313   1.317   1.324   1.326   1.327   1.328   1.329
  1.334   1.335   1.339   1.342   1.350   1.350   1.354   1.360
  1.364   1.368   1.370   1.371   1.376   1.379   1.385   1.387
  1.391   1.392   1.398   1.401   1.404   1.409   1.418   1.420
  1.428   1.429   1.433   1.436   1.437   1.440   1.441   1.448
  1.453   1.458   1.469   1.474   1.485   1.487   1.489   1.491
  1.496   1.501   1.502   1.504   1.508   1.510   1.510   1.510
  1.517   1.519   1.519   1.523   1.525   1.525   1.528   1.532
  1.537   1.538   1.540   1.540   1.541   1.543   1.545   1.548
  1.552   1.556   1.558   1.558   1.559   1.562   1.563   1.564
  1.567   1.572   1.573   1.577   1.584   1.585   1.588   1.594
  1.597   1.601   1.606   1.612   1.614   1.623   1.626   1.632
  1.635   1.640   1.648   1.649   1.656   1.657   1.660   1.663
  1.669   1.674   1.681   1.684   1.698   1.703   1.737   1.744
  1.749   1.754   1.757   1.760   1.768   1.774   1.783   1.790
  1.797   1.798   1.800   1.801   1.802   1.803   1.806   1.809
  1.811   1.815   1.817   1.820   1.821   1.838   1.843   1.847
  1.850   1.856   1.857   1.862   1.873   1.874   1.886   1.888
  1.894   1.896   1.897   1.911   1.913   1.915   1.917   1.921
  1.924   1.927   1.931   1.936   1.937   1.944   1.947   1.957
  1.958   1.964   1.967   1.969   1.972   1.974   1.975   1.976
  1.977   1.979   1.982   1.987   1.988   1.988   1.998   2.005
  2.009   2.014   2.018   2.022   2.023   2.025   2.031   2.036
  2.039   2.040   2.041   2.046   2.057   2.062   2.064   2.067
  2.068   2.074   2.077   2.089   2.094   2.095   2.101   2.102
  2.104   2.104   2.110   2.116   2.118   2.129   2.131   2.136
  2.137   2.143   2.147   2.150   2.153   2.154   2.158   2.159
  2.167   2.174   2.175   2.182   2.193   2.194   2.196   2.198
  2.199   2.200   2.200   2.204   2.207   2.209   2.210   2.212
  2.222   2.223   2.224   2.228   2.235   2.237   2.239   2.246
  2.250   2.253   2.255   2.256   2.261   2.263   2.264   2.265
  2.268   2.270   2.275   2.280   2.285   2.289   2.290   2.298
  2.300   2.303   2.309   2.311   2.314   2.315   2.316   2.325
  2.328   2.332   2.335   2.337   2.340   2.342   2.343   2.347
  2.349   2.351   2.352   2.357   2.359   2.360   2.372   2.373
  2.375   2.377   2.378   2.380   2.381   2.386   2.388   2.390
  2.392   2.394   2.398   2.402   2.406   2.408   2.411   2.412
  2.421   2.422   2.430   2.433   2.438   2.446   2.455   2.457
  2.470   2.472   2.477   2.481   2.484   2.489   2.491   2.493
  2.495   2.498   2.503   2.507   2.510   2.525   2.528   2.532
  2.548   2.554   2.559   2.564   2.581   2.601   2.603   2.611
  2.620   2.623   2.629   2.632   2.632   2.635   2.637   2.645
  2.651   2.662   2.675   2.681   2.685   2.687   2.691   2.697
  2.700   2.707   2.708   2.720   2.723   2.724   2.727   2.729
  2.732   2.734   2.736   2.740   2.748   2.753   2.755   2.756
  2.766   2.768   2.772   2.774   2.775   2.778   2.779   2.782
  2.783   2.784   2.798   2.798   2.800   2.801   2.803   2.805
  2.805   2.811   2.812   2.814   2.818   2.821   2.825   2.826
  2.832   2.837   2.842   2.848   2.856   2.860   2.867   2.869
  2.874   2.883   2.886   2.890   2.895   2.903   2.921   2.931
  2.934   2.943   2.948   2.971   2.981   2.987   2.991   2.994
  2.997   2.999   3.003   3.007   3.008   3.020   3.042   3.047
  3.069   3.072   3.080   3.091   3.119   3.184   3.193   3.218
  3.227   3.229   3.247   3.249   3.312   3.374   3.392   3.432
  3.441   3.472   3.479   3.481   3.483   3.484   3.506   3.522
  3.541   3.548   3.655   3.666   9.587   9.736  13.135  13.168
 13.243  13.260  13.262  13.268  13.468  13.490  13.502  13.516
 13.537  13.568  13.674  13.679  13.680  13.682  13.688  13.692
 13.699  13.729  13.731  13.737  13.746  13.778  13.785  13.788
 13.824  13.829  13.853  13.894  13.905  13.910  13.937  13.996
 14.008  14.020  14.020  14.029  14.037  14.043  14.125  14.145
 14.147  14.149  14.151  14.154  14.155  14.185  14.187  14.191
 14.194  14.202  14.210  14.219  14.238  14.261  14.277  14.283
 14.304  14.309  14.322  14.327  14.501  14.506  14.549  14.554
 14.565  14.569  14.571  14.574  14.577  14.578  14.604  14.610
 19.607  19.642
 --------------------------------------------------------------
 
          Ground-State Mulliken Net Atomic Charges

     Atom                 Charge (a.u.)
  ----------------------------------------
      1 S                     0.143802
      2 C                    -0.194696
      3 C                    -0.246407
      4 H                     0.231849
      5 C                    -0.232971
      6 H                     0.218651
      7 C                    -0.222483
      8 H                     0.217644
      9 C                    -0.301884
     10 H                     0.253756
     11 C                     0.429139
     12 N                    -0.712322
     13 C                     0.424348
     14 C                    -0.296231
     15 H                     0.254279
     16 C                    -0.223380
     17 H                     0.217359
     18 C                    -0.232142
     19 H                     0.218566
     20 C                    -0.248232
     21 H                     0.231226
     22 C                    -0.187821
     23 C                     0.214601
     24 C                    -0.297653
     25 H                     0.226364
     26 C                    -0.325351
     27 H                     0.238288
     28 C                     0.039529
     29 C                     0.059170
     30 C                    -0.211466
     31 C                    -0.763186
     32 H                     0.242581
     33 H                     0.247882
     34 H                     0.248741
     35 C                    -0.547590
     36 H                     0.250517
     37 H                     0.236037
     38 C                    -0.645821
     39 H                     0.240116
     40 H                     0.223310
     41 H                     0.219387
     42 B                     0.682753
     43 C                    -0.146653
     44 C                    -0.396180
     45 H                     0.237009
     46 C                     0.105058
     47 C                     0.101306
     48 C                    -0.385167
     49 H                     0.225594
     50 C                    -0.148834
     51 C                     0.190928
     52 C                    -0.378645
     53 H                     0.222126
     54 C                    -0.063400
     55 C                     0.250497
     56 C                     0.192565
     57 C                    -0.373260
     58 H                     0.218427
     59 C                    -0.204204
     60 H                     0.230122
     61 C                    -0.331971
     62 H                     0.223950
     63 C                    -0.204366
     64 H                     0.229426
     65 C                    -0.331032
     66 H                     0.223832
     67 B                     0.666853
     68 C                    -0.135992
     69 C                    -0.396295
     70 H                     0.235149
     71 C                     0.100156
     72 C                     0.108023
     73 C                    -0.390629
     74 H                     0.226655
     75 C                    -0.153061
     76 C                     0.197096
     77 C                    -0.379030
     78 H                     0.220521
     79 C                    -0.066358
     80 C                     0.250216
     81 C                     0.199627
     82 C                    -0.379624
     83 H                     0.218609
     84 C                    -0.203663
     85 H                     0.229569
     86 C                    -0.331365
     87 H                     0.224179
     88 C                    -0.203391
     89 H                     0.229682
     90 C                    -0.331039
     91 H                     0.224181
     92 C                    -0.213165
     93 C                     0.054258
     94 C                    -0.280592
     95 H                     0.230931
     96 C                     0.148149
     97 C                    -0.276553
     98 H                     0.232259
     99 C                     0.032910
    100 N                    -0.716412
    101 C                     0.438563
    102 C                     0.443882
    103 C                    -0.302042
    104 H                     0.255301
    105 C                    -0.222054
    106 H                     0.209760
    107 C                    -0.235947
    108 H                     0.216235
    109 C                    -0.238788
    110 H                     0.228944
    111 C                    -0.208724
    112 C                    -0.305983
    113 H                     0.254908
    114 C                    -0.222499
    115 H                     0.212862
    116 C                    -0.236265
    117 H                     0.216533
    118 C                    -0.238937
    119 H                     0.228586
    120 C                    -0.209943
    121 C                    -0.757036
    122 H                     0.241792
    123 H                     0.248432
    124 H                     0.247270
    125 C                    -0.553898
    126 H                     0.254280
    127 H                     0.237272
    128 C                    -0.648422
    129 H                     0.243619
    130 H                     0.222783
    131 H                     0.219952
    132 S                     0.180325
  ----------------------------------------
  Sum of atomic charges =    -0.000000

 -----------------------------------------------------------------
                    Cartesian Multipole Moments
 -----------------------------------------------------------------
    Charge (ESU x 10^10)
                -0.0000
    Dipole Moment (Debye)
         X       0.5876      Y      -0.6983      Z      -0.6661
       Tot       1.1298
    Quadrupole Moments (Debye-Ang)
        XX    -492.0721     XY     -16.7385     YY    -467.7816
        XZ      60.0675     YZ     -24.8818     ZZ    -447.1864
    Octopole Moments (Debye-Ang^2)
       XXX   12530.4434    XXY    1244.8807    XYY    4112.9903
       YYY    2684.6384    XXZ   -3511.0318    XYZ     -27.3674
       YYZ   -2278.5304    XZZ    4339.4646    YZZ     581.1166
       ZZZ   -7046.4628
    Hexadecapole Moments (Debye-Ang^3)
      XXXX -292631.6072   XXXY  -35385.0752   XXYY  -54298.9571
      XYYY  -30086.5663   YYYY  -24793.4422   XXXZ   91165.8204
      XXYZ    9961.8182   XYYZ   24012.2769   YYYZ   23106.7967
      XXZZ  -75192.2009   XYZZ   -9075.8909   YYZZ  -20946.2327
      XZZZ   75294.0905   YZZZ   18756.2671   ZZZZ -113879.7727
 -----------------------------------------------------------------
Archival summary:
1\1\ctcp011\OPT\ProcedureUnspecified\BasisUnspecified\2274252\mewes\FriOct2614:41:512018FriOct2614:41:512018\0\\#,OPT,ProcedureUnspecified,BasisUnspecified,\\0,1\S\C,1,1.75784\C,2,1.38575,1,119.357\H,3,1.08272,2,119.07,1,-6.88006,0\C,3,1.38609,2,120.571,1,171.58,0\H,5,1.08151,3,120.208,2,-178.464,0\C,5,1.38387,3,118.93,2,1.12667,0\H,7,1.08217,5,120.283,3,-179.522,0\C,7,1.38604,5,120.76,3,0.960198,0\H,9,1.08037,7,119.097,5,179.703,0\C,9,1.3954,7,120.864,5,-1.43263,0\N,11,1.40044,9,121.482,7,-179.301,0\C,12,1.40086,11,121.703,9,-149.554,0\C,13,1.39479,12,121.874,11,150.062,0\H,14,1.08031,13,120.071,12,1.31854,0\C,14,1.38625,13,120.813,12,-179.573,0\H,16,1.08205,14,118.874,13,-179.327,0\C,16,1.38376,14,120.843,13,1.3334,0\H,18,1.08132,16,120.889,14,179.129,0\C,18,1.38594,16,118.893,14,-1.39486,0\H,20,1.0827,18,120.478,16,-179.272,0\C,20,1.38552,18,120.547,16,-0.778756,0\C,12,1.4263,11,117.428,9,12.6021,0\C,23,1.38033,12,119.066,11,93.8222,0\H,24,1.08446,23,119.011,12,-0.0867482,0\C,23,1.38889,12,121.12,11,-84.6376,0\H,26,1.08455,23,119.378,12,0.218644,0\C,26,1.38751,23,120.35,12,-179.712,0\C,24,1.39422,23,120.6,12,-179.639,0\C,29,1.39875,24,120.038,23,-0.807873,0\C,28,1.50268,26,120.001,23,179.28,0\H,31,1.09013,28,111.709,26,5.83738,0\H,31,1.09163,28,111.217,26,126.499,0\H,31,1.09189,28,111.131,26,-114.712,0\C,29,1.50791,24,118.6,23,-179.31,0\H,35,1.09217,29,110.052,24,-155.323,0\H,35,1.09372,29,109.146,24,-39.3079,0\C,35,1.5269,29,112.882,24,82.3376,0\H,38,1.08959,35,111.154,29,62.8785,0\H,38,1.09084,35,110.876,29,-177.408,0\H,38,1.09087,35,111.317,29,-57.4031,0\B,30,1.58333,29,122.095,24,-176.606,0\C,42,1.53688,30,121.167,29,-86.4506,0\C,43,1.40662,42,120.806,30,5.85326,0\H,44,1.08523,43,119.232,42,-2.09047,0\C,44,1.37551,43,120.833,42,176.417,0\C,46,1.42658,44,119.954,43,1.27214,0\C,47,1.372,46,120.021,44,0.140034,0\H,48,1.08589,47,119.376,46,179.849,0\C,48,1.40741,47,120.941,46,-1.39988,0\C,46,1.45943,44,132.142,43,-176.432,0\C,51,1.37446,46,135.653,44,-0.529789,0\H,52,1.0827,51,121.741,46,-1.37756,0\C,51,1.41051,46,106.356,44,177.696,0\C,54,1.39422,51,124.421,46,-178.258,0\C,54,1.40899,51,111.407,46,0.207569,0\C,56,1.37484,54,118.139,51,-178.671,0\H,57,1.08343,56,121.587,54,179.057,0\C,57,1.41226,56,118.91,54,-0.172811,0\H,59,1.0831,57,118.672,56,179.809,0\C,59,1.37611,57,122.497,56,0.276585,0\H,61,1.08337,59,120.034,57,179.564,0\C,52,1.41325,51,118.793,46,178.118,0\H,63,1.08269,52,118.403,51,-179.846,0\C,63,1.37596,52,122.743,51,-0.2256,0\H,65,1.08329,63,120.098,52,-179.587,0\B,50,1.52671,48,120.847,47,-175.887,0\C,67,1.52732,50,120.319,48,172.725,0\C,68,1.40669,67,121.026,50,-170.733,0\H,69,1.08587,68,119.478,67,-2.56267,0\C,69,1.37389,68,120.8,67,174.757,0\C,71,1.42437,69,120.187,68,2.57877,0\C,72,1.3767,71,119.804,69,-0.838853,0\H,73,1.08533,72,120.001,71,-179.102,0\C,73,1.40686,72,120.911,71,-1.94943,0\C,71,1.45686,69,131.46,68,-172.217,0\C,76,1.37269,71,135.051,69,-0.574841,0\H,77,1.0832,76,121.637,71,-3.56524,0\C,76,1.4097,71,106.3,69,175.154,0\C,79,1.39137,76,124.128,71,-175.726,0\C,79,1.41067,76,111.253,71,0.442221,0\C,81,1.37243,79,118.249,76,-177.209,0\H,82,1.08297,81,121.746,79,178.862,0\C,77,1.41173,76,118.547,71,175.291,0\H,84,1.08288,77,118.636,76,-179.645,0\C,84,1.37645,77,122.526,76,-0.427559,0\H,86,1.08308,84,119.862,77,-179.017,0\C,82,1.41269,81,118.485,79,0.0589765,0\H,88,1.08254,82,118.347,81,179.653,0\C,88,1.3764,82,122.783,81,0.511211,0\H,90,1.083,88,119.927,82,178.991,0\C,67,1.59203,50,118.7,48,-5.12652,0\C,92,1.40054,67,120.667,50,-93.0737,0\C,93,1.39306,92,120.339,67,177.085,0\H,94,1.08463,93,120.449,92,-178.994,0\C,94,1.37815,93,119.149,92,-0.48443,0\C,96,1.38191,94,121.86,93,1.1067,0\H,97,1.08424,96,120.186,94,-179.666,0\C,97,1.38954,96,119.286,94,-0.542794,0\N,96,1.44586,94,119.572,93,-175.605,0\C,100,1.37277,96,117.944,94,-94.4877,0\C,100,1.37474,96,116.76,94,87.1859,0\C,101,1.40716,100,119.852,96,2.02661,0\H,103,1.07839,101,119.477,100,0.360354,0\C,103,1.37073,101,120.659,100,-179.381,0\H,105,1.08036,103,118.973,101,179.95,0\C,105,1.3991,103,121.174,101,-0.0458248,0\H,107,1.08015,105,120.482,103,179.992,0\C,107,1.37151,105,119.408,103,-0.0308326,0\H,109,1.08254,107,120.395,105,179.993,0\C,109,1.397,107,120.237,105,0.0605198,0\C,102,1.40882,100,120.114,96,-1.41272,0\H,112,1.07785,102,119.847,100,0.0289797,0\C,112,1.3711,102,120.756,100,179.961,0\H,114,1.08046,112,118.898,102,179.966,0\C,114,1.39878,112,121.258,102,-0.0433624,0\H,116,1.08018,114,120.515,112,179.916,0\C,116,1.37119,114,119.308,112,-0.244825,0\H,118,1.08258,116,120.384,114,-179.655,0\C,118,1.39723,116,120.205,114,0.0905651,0\C,99,1.50057,97,119.642,96,-179.206,0\H,121,1.09013,99,111.918,97,-6.28729,0\H,121,1.09025,99,111.033,97,-127.35,0\H,121,1.09104,99,110.858,97,114.447,0\C,93,1.5042,92,121.212,67,0.848531,0\H,125,1.0904,93,109.779,92,-28.6249,0\H,125,1.09359,93,109.696,92,-145.318,0\C,125,1.52796,93,111.572,92,93.0715,0\H,128,1.08929,125,111.029,93,-59.8925,0\H,128,1.08993,125,110.785,93,-179.512,0\H,128,1.09188,125,111.44,93,60.5889,0\S,120,1.71709,118,115.718,116,-178.874,0\\\@

 Total job time:  59026.80s(wall), 410501.65s(cpu) 
 Fri Oct 26 14:41:51 2018

        *************************************************************
        *                                                           *
        *  Thank you very much for using Q-Chem.  Have a nice day.  *
        *                                                           *
        *************************************************************


0 sent ACK to 0 
now end server 0 ... 
