mFile = /cm/shared/apps/q-chem/intel/QCHEM_5.0.1_Trunk/bin/mpi/machines
Process 0 of 1 is on big005 - thread support 0
initial socket setup ...start
initial socket setup ...done 
now start server 0 ... 
big005.cm.cluster 10.141.1
Q-Chem Developer Version! Running on 10.141.1.*
                  Welcome to Q-Chem
     A Quantum Leap Into The Future Of Chemistry


 Q-Chem 5.0, Q-Chem, Inc., Pleasanton, CA (2017)

 Yihan Shao,  Zhengting Gan,  E. Epifanovsky,  A. T. B. Gilbert,  M. Wormit,  
 J. Kussmann,  A. W. Lange,  A. Behn,  Jia Deng,  Xintian Feng,  D. Ghosh,  
 M. Goldey,  P. R. Horn,  L. D. Jacobson,  I. Kaliman,  T. Kus,  A. Landau,  
 Jie Liu,  E. I. Proynov,  R. M. Richard,  R. P. Steele,  E. J. Sundstrom,  
 H. L. Woodcock III,  P. M. Zimmerman,  D. Zuev,  B. Albrecht,  E. Alguire,  
 S. A. Baeppler,  Z. Benda,  Y. A. Bernard,  E. J. Berquist,  K. B. Bravaya,  
 D. Casanova,  Chun-Min Chang,  Yunqing Chen,  A. Chien,  K. D. Closser,  
 M. P. Coons,  S. Dasgupta,  M. Diedenhofen,  Hainam Do,  R. G. Edgar,  
 Po-Tung Fang,  S. Fatehi,  Qingguo Feng,  Qinghui Ge,  A. Ghysels,  
 J. Gomes,  J. Gonthier,  A. Gunina,  M. W. D. Hanson-Heine,  
 P. H. P. Harbach,  A. W. Hauser,  J. E. Herr,  E. G. Hohenstein,  
 Z. C. Holden,  Kerwin Hui,  T.-C. Jagau,  Hyunjun Ji,  B. Kaduk,  
 K. Khistyaev,  Jaehoon Kim,  P. Klunzinger,  K. Koh,  D. Kosenkov,  
 T. Kowalczyk,  C. M. Krauter,  A. Kunitsa,  Ka Un Lao,  A. Laurent,  
 K. V. Lawler,  Joonho Lee,  D. Lefrancois,  S. Lehtola,  D. S. Levine,  
 Yi-Pei Li,  You-Sheng Lin,  Fenglai Liu,  E. Livshits,  A. Luenser,  
 P. Manohar,  E. Mansoor,  S. F. Manzer,  Shan-Ping Mao,  Yuezhi Mao,  
 N. Mardirossian,  A. V. Marenich,  L. A. Martinez-Martinez,  S. A. Maurer,  
 N. J. Mayhall,  S. C. McKenzie,  J.-M. Mewes,  A. F. Morrison,  K. Nanda,  
 T. S. Nguyen-Beck,  R. Olivares-Amaya,  J. A. Parkhill,  T. M. Perrine,  
 F. Plasser,  S. Prager,  A. Prociuk,  D. R. Rehn,  F. Rob,  M. Schneider,  
 N. Sergueev,  S. M. Sharada,  S. Sharma,  D. W. Small,  T. Stauch,  
 T. Stein,  Yu-Chuan Su,  A. J. W. Thom,  T. Tsuchimochi,  L. Vogt,  
 O. Vydrov,  M. A. Watson,  J. Wenzel,  M. de Wergifosse,  T. A. Wesolowski,  
 A. White,  J. Witte,  A. Yamada,  Jun Yang,  K. Yao,  S. Yeganeh,  
 S. R. Yost,  Zhi-Qiang You,  A. Zech,  Igor Ying Zhang,  Xing Zhang,  
 Yan Zhao,  Ying Zhu,  B. R. Brooks,  G. K. L. Chan,  C. J. Cramer,  
 M. S. Gordon,  W. J. Hehre,  A. Klamt,  M. W. Schmidt,  C. D. Sherrill,  
 D. G. Truhlar,  A. Aspuru-Guzik,  R. Baer,  A. T. Bell,  N. A. Besley,  
 Jeng-Da Chai,  A. Dreuw,  B. D. Dunietz,  T. R. Furlani,  Chao-Ping Hsu,  
 Yousung Jung,  Jing Kong,  D. S. Lambrecht,  WanZhen Liang,  C. Ochsenfeld,  
 V. A. Rassolov,  L. V. Slipchenko,  J. E. Subotnik,  T. Van Voorhis,  
 J. M. Herbert,  A. I. Krylov,  P. M. W. Gill,  M. Head-Gordon

 Contributors to earlier versions of Q-Chem not listed above: 
 R. D. Adamson,  B. Austin,  J. Baker,  G. J. O. Beran,  K. Brandhorst,  
 S. T. Brown,  E. F. C. Byrd,  A. K. Chakraborty,  C.-L. Cheng,  
 Siu Hung Chien,  D. M. Chipman,  D. L. Crittenden,  H. Dachsel,  
 R. A. DiStasio Jr.,  R. J. Doerksen,  A. D. Dutoi,  L. Fusti-Molnar,  
 W. A. Goddard III,  A. Golubeva-Zadorozhnaya,  S. R. Gwaltney,  G. Hawkins,  
 A. Heyden,  S. Hirata,  G. Kedziora,  F. J. Keil,  C. Kelley,  Jihan Kim,  
 R. A. King,  R. Z. Khaliullin,  P. P. Korambath,  W. Kurlancheek,  
 A. M. Lee,  M. S. Lee,  S. V. Levchenko,  Ching Yeh Lin,  D. Liotard,  
 R. C. Lochan,  I. Lotan,  P. E. Maslen,  N. Nair,  D. P. O'Neill,  
 D. Neuhauser,  E. Neuscamman,  C. M. Oana,  R. Olson,  B. Peters,  
 R. Peverati,  P. A. Pieniazek,  Y. M. Rhee,  J. Ritchie,  M. A. Rohrdanz,  
 E. Rosta,  N. J. Russ,  H. F. Schaefer III,  N. E. Schultz,  N. Shenvi,  
 A. C. Simmonett,  A. Sodt,  D. Stuck,  K. S. Thanthiriwatte,  V. Vanovschi,  
 Tao Wang,  A. Warshel,  C. F. Williams,  Q. Wu,  X. Xu,  W. Zhang

 Please cite Q-Chem as follows:
 Y. Shao et al., Mol. Phys. 113, 184-215 (2015)
 DOI: 10.1080/00268976.2014.952696

 Q-Chem 5.0.1 for Intel X86 EM64T Linux

 Parts of Q-Chem use Armadillo 5.200.1 (Boston Tea Smuggler).
 http://arma.sourceforge.net/

 Q-Chem begins on Thu Oct 18 23:07:14 2018  

Host: big005
0

     Scratch files written to /scratch/mewes/137889/qchem11443//
 Parallel job on  1  processors
The previous job contains 0 fragments, simply inherited here

Checking the input file for inconsistencies... 	...done.

--------------------------------------------------------------
User input:
--------------------------------------------------------------
$rem
threads 8
jobtype	opt
method PBEh-3c
basis def2-mSVP
mem_static	1024
mem_total	10000
sym_ignore	true
cis_n_roots             2
cis_singlets            false
cis_triplets		true
rpa                     false
cis_state_deriv         1
$end

$molecule 
read incoords.mol
$end


--------------------------------------------------------------
 Adding empirical dispersion correction 
 ----------------------------------------------------------------
 Doing -D3(BJ) with
 s6 =   1.00000
 s8 =   0.00000
 a1 =   0.48600
 a2 =   4.50000
 -D3 energy including 3body term =     -0.1302721003 hartrees
 ----------------------------------------------------------------
 Adding gCP correction 
 ----------------------------------------------------------------
 gCP energy =      0.1741461225 hartrees
 ----------------------------------------------------------------
             Standard Nuclear Orientation (Angstroms)
    I     Atom           X                Y                Z
 ----------------------------------------------------------------
    1      C      -5.0012700000    -0.0018800000     4.4001000000
    2      C      -5.6031900000    -0.5498700000     3.2595000000
    3      C      -4.7914400000    -0.9833000000     2.1746400000
    4      C      -3.3736700000    -0.8548400000     2.2654000000
    5      C      -2.8090700000    -0.3069000000     3.4285500000
    6      C      -3.6108600000     0.1223400000     4.4925300000
    7      N      -3.0102500000     0.6857700000     5.6714600000
    8      C      -7.1081800000    -0.7001200000     3.2422900000
    9      C      -2.4283500000    -1.2685300000     1.1446000000
   10      C      -2.1428900000    -0.1581300000     6.4753900000
   11      C      -1.4971800000     0.3060300000     7.6485600000
   12      C      -4.1210000000     2.8558600000     5.1340800000
   13      C      -3.2986700000     2.0719700000     5.9973300000
   14      C      -4.4114600000     4.1892500000     5.4161300000
   15      C      -3.8915800000     4.7899400000     6.5508000000
   16      C      -3.0704000000     4.0618600000     7.4018100000
   17      C      -2.7626400000     2.7168900000     7.1398700000
   18      C      -1.9399500000    -1.5246800000     6.1187700000
   19      C      -1.1178100000    -2.3605400000     6.8719500000
   20      C      -0.4813000000    -1.8760200000     8.0027800000
   21      C      -0.6737300000    -0.5564100000     8.3903900000
   22      C      -6.9288800000    -1.3351000000    -1.2657400000
   23      C      -6.3235900000    -0.7491300000    -0.1110700000
   24      B      -5.4735200000    -1.6389500000     0.8918600000
   25      C      -5.3076300000    -3.1889000000     0.5962800000
   26      C      -5.9164300000    -3.7768800000    -0.5558900000
   27      B      -6.7649700000    -2.8865900000    -1.5615600000
   28      C      -4.5831100000    -4.0013500000     1.5013200000
   29      C      -4.4749900000    -5.3585600000     1.2362600000
   30      C      -5.0674100000    -5.9288000000     0.1232700000
   31      C      -5.7958100000    -5.1694800000    -0.7809000000
   32      C      -7.6474600000    -0.5190700000    -2.1728500000
   33      C      -7.7574800000     0.8372100000    -1.9042600000
   34      C      -7.1720100000     1.4040700000    -0.7861200000
   35      C      -6.4471800000     0.6425200000     0.1186200000
   36      C      -3.0511700000    -6.4556500000     3.1493700000
   37      C      -2.5337100000    -7.7023900000     3.5819200000
   38      C      -2.7753400000    -8.8875100000     2.8334700000
   39      C      -3.5370600000    -8.8191100000     1.6504700000
   40      C      -4.0176600000    -7.5826200000     1.2724700000
   41      C      -3.8006300000    -6.4286200000     1.9723800000
   42      C      -3.8453100000    -9.9175600000     0.8242200000
   43      C      -4.6261700000    -9.7168100000    -0.3475400000
   44      C      -5.0960800000    -8.4243200000    -0.6910000000
   45      C      -4.7697000000    -7.3614500000     0.1524500000
   46      C      -7.6200300000     5.1897500000    -0.3040400000
   47      C      -7.1506200000     3.8965500000     0.0373700000
   48      C      -7.4710000000     2.8364500000    -0.8118300000
   49      C      -8.2168300000     3.0608400000    -1.9353100000
   50      C      -8.6966300000     4.2981300000    -2.3115900000
   51      C      -8.3943800000     5.3939000000    -1.4795600000
   52      C      -8.4286000000     1.9091300000    -2.6405500000
   53      C      -9.1713400000     1.9394900000    -3.8216900000
   54      C      -9.6876500000     3.1872100000    -4.2527700000
   55      C      -9.4516300000     4.3699300000    -3.4987000000
   56      C      -9.4122700000    -4.1598400000    -4.1479300000
   57      C      -8.8568900000    -3.6319600000    -2.9712600000
   58      C      -7.4377000000    -3.5347200000    -2.8544200000
   59      C      -6.6162500000    -3.9848600000    -3.9263400000
   60      C      -7.2103900000    -4.5173400000    -5.0784500000
   61      C      -8.6006700000    -4.6043400000    -5.1967000000
   62      N      -9.1925700000    -5.1397700000    -6.3906000000
   63      C      -9.8141400000    -3.2063400000    -1.8647000000
   64      C      -5.1087200000    -3.8640800000    -3.8869700000
   65      C      -9.9723900000    -4.2485600000    -7.2300300000
   66      C     -10.0969800000    -2.8696200000    -6.8870300000
   67      C      -9.5142300000    -7.1623500000    -7.8531100000
   68      C      -8.9749800000    -6.5410800000    -6.6994800000
   69      C      -9.2780200000    -8.5250200000    -8.0966900000
   70      C      -8.5246700000    -9.2918900000    -7.2169500000
   71      C      -8.0012600000    -8.7118600000    -6.0726900000
   72      C      -8.2215800000    -7.3613700000    -5.8087400000
   73      C     -10.6042900000    -4.6791000000    -8.4227300000
   74      C     -11.3373200000    -3.7689200000    -9.2015000000
   75      C     -11.4526100000    -2.4353600000    -8.8298800000
   76      C     -10.8298400000    -1.9858500000    -7.6767600000
   77      H      -5.6138200000     0.3213900000     5.2335100000
   78      H      -1.7340300000    -0.1972100000     3.5088300000
   79      H      -7.3750600000    -1.7715000000     3.1244700000
   80      H      -7.5582300000    -0.1205900000     2.4145600000
   81      H      -7.5703600000    -0.3376000000     4.1849800000
   82      H      -2.5803000000    -2.3306000000     0.8713800000
   83      H      -1.3731200000    -1.1777700000     1.4834100000
   84      C      -2.5544500000    -0.3747700000    -0.0906900000
   85      H      -4.5427300000     2.4550800000     4.2272600000
   86      H      -5.0413100000     4.7591500000     4.7448100000
   87      H      -4.1159800000     5.8264600000     6.7675400000
   88      H      -2.6601700000     4.5507400000     8.2771600000
   89      H      -2.4183300000    -1.9687000000     5.2615600000
   90      H      -0.9792100000    -3.3926200000     6.5757100000
   91      H       0.1552100000    -2.5269000000     8.5883600000
   92      H      -0.1804700000    -0.1973100000     9.2855400000
   93      H      -4.1200700000    -3.5927600000     2.3897400000
   94      H      -6.2577800000    -5.6512600000    -1.6325500000
   95      H      -8.1059000000    -0.9240300000    -3.0651000000
   96      H      -5.9893700000     1.1222000000     0.9736500000
   97      H      -2.8698800000    -5.5513100000     3.7153300000
   98      H      -1.9488400000    -7.7528000000     4.4909500000
   99      H      -2.3744900000    -9.8336500000     3.1748000000
  100      H      -3.4925100000   -10.9099400000     1.0753900000
  101      H      -4.8640800000   -10.5593400000    -0.9835400000
  102      H      -5.6903200000    -8.2666400000    -1.5814900000
  103      H      -7.3867800000     6.0301700000     0.3364300000
  104      H      -6.5613800000     3.7362200000     0.9307200000
  105      H      -8.7468800000     6.3867900000    -1.7291000000
  106      H      -9.3484200000     1.0369400000    -4.3918700000
  107      H     -10.2673600000     3.2402200000    -5.1649500000
  108      H      -9.8515800000     5.3168400000    -3.8389200000
  109      H     -10.4878100000    -4.2416800000    -4.2512000000
  110      H      -6.5918400000    -4.8524300000    -5.9027000000
  111      H     -10.8649900000    -3.2772600000    -2.2213600000
  112      H      -9.6510600000    -2.1495300000    -1.5807700000
  113      C      -9.7225000000    -4.1089700000    -0.6328900000
  114      H      -4.6405200000    -4.2323000000    -4.8244800000
  115      H      -4.6787000000    -4.4543900000    -3.0571700000
  116      H      -4.8229200000    -2.7984000000    -3.7623500000
  117      H      -9.6238300000    -2.4547000000    -6.0116800000
  118      H      -9.6911700000    -8.9968000000    -8.9799900000
  119      H      -8.3550900000   -10.3415800000    -7.4196400000
  120      H      -7.4234900000    -9.3109300000    -5.3803100000
  121      H      -7.8008400000    -6.9739000000    -4.8950100000
  122      H     -11.8202900000    -4.1016200000   -10.1122800000
  123      H     -12.0195600000    -1.7474400000    -9.4439000000
  124      H     -10.9094500000    -0.9444400000    -7.3916000000
  125      H      -9.9407400000    -5.1606700000    -0.9162300000
  126      H     -10.4722200000    -3.7824900000     0.1182700000
  127      H      -8.7274500000    -4.0687800000    -0.1528500000
  128      H      -1.8109400000    -0.6930400000    -0.8514700000
  129      H      -2.3496900000     0.6820900000     0.1833200000
  130      H      -3.5551900000    -0.4343600000    -0.5558700000
  131      S     -10.5301100000    -6.3386200000    -9.0593100000
  132      S      -1.6655000000     1.9483700000     8.3093400000
 ----------------------------------------------------------------
 Nuclear Repulsion Energy = 12343.1854831350 hartrees
 There are      276 alpha and      276 beta electrons
 Requested basis set is def2-mSVP
 There are 666 shells and 1310 basis functions

 Total QAlloc Memory Limit  10000 MB
 Mega-Array Size      1001 MB
 MEM_STATIC part      1024 MB
 A cutoff of  1.0D-11 yielded  58955 shell pairs
 There are    235093 function pairs (    259036 Cartesian)
 
 -------------------------------------------------------
 OpenMP Integral Computing Module                       
 Release: version 1.0, May 2013, Q-Chem Inc. Pittsburgh 
 -------------------------------------------------------
 Integral Job Info:
 Integral job number is                      11
 Integral operator is                         1
 short-range coefficients                     0
 long-range coefficients              100000000
 Omega coefficients                           0
 if combine SR and LR in K                    0
 Integral screening is                        0
 Integral computing path is                   2
 max size of driver memory is            800000
 size of driver memory is                593474
 size of scratch memory is              7590872
 max col of scratch BK array               1296
 max len of scratch array in speh3          155
 max len of scratch index in speh4           18
 max int batch size is                      520
 min int batch size is                       52
 fixed nKL is                                52
 max L of basis functions is                  2
 order of int derivative is                   0
 number of shells is                        666
 number of basis is                        1390
 number of cartesian basis is              1390
 number of contracted shell pairs         58955
 number of primitive shell pairs         122568
 maxK2 (contraction) of shell pair           25
 max number of K2 of shell pair               1
 max number of CS2 of shell pair          14127
 max number of PS2 of shell pair          21240
 mem total for path MDJ                  618584
 -------------------------------------------------------
 Smallest overlap matrix eigenvalue = 1.76E-04

 Scale SEOQF with 1.000000e-02/1.000000e-02/1.000000e-02

 Standard Electronic Orientation quadrupole field applied
 Nucleus-field energy     =     0.0000000325 hartrees
 Guess from superposition of atomic densities
 Warning:  Energy on first SCF cycle will be non-variational
 A restricted hybrid HF-DFT SCF calculation will be
 performed using Pulay DIIS extrapolation
 Exchange:     0.4200 Hartree-Fock + 0.5800 PBEh-3c
 Correlation:  1.0000 PBEh-3c
 Using SG-1 standard quadrature grid
 Dispersion:   Grimme D3
 SCF converges when DIIS error is below 1.0E-08
 using 8 threads for integral computing
 -------------------------------------------------------
 OpenMP Integral computing Module                
 Release: version 1.0, May 2013, Q-Chem Inc. Pittsburgh 
 -------------------------------------------------------
 ---------------------------------------
  Cycle       Energy         DIIS Error
 ---------------------------------------
    1   -3825.2869806249      2.27E-02
    2   -3798.6789774476      1.65E-03
    3   -3798.6530734272      1.75E-03
    4   -3799.2802947990      5.67E-04
    5   -3799.3514731060      1.82E-04
    6   -3799.3583963545      6.82E-05
    7   -3799.3594376377      2.06E-05
    8   -3799.3595317504      6.51E-06
    9   -3799.3595418468      2.65E-06
   10   -3799.3595438370      9.26E-07
   11   -3799.3595441633      3.22E-07
   12   -3799.3595442013      1.26E-07
   13   -3799.3595442029      5.24E-08
   14   -3799.3595441974      1.61E-08
   15   -3799.3595441409      7.95E-09 Convergence criterion met
 ---------------------------------------
 SCF time:  CPU 5707.68 s  wall 1355.31 s
 SCF   energy in the final basis set = -3799.35954414
 Total energy in the final basis set = -3799.35954414
 
 Direct TDDFT/TDA calculation will be performed
 Exchange:     0.4200 Hartree-Fock + 0.5800 PBEh-3c
 Correlation:  1.0000 PBEh-3c
 Using SG-1 standard quadrature grid
 Dispersion:   Grimme D3
 Triplet excitation energies requested
 CIS energy converged when residual is below 10e- 6
 ---------------------------------------------------
 Iter    Rts Conv    Rts Left    Ttl Dev     Max Dev
 ---------------------------------------------------
   1         0           2      0.000022    0.000011
   2         0           2      0.000011    0.000006
   3         0           2      0.000006    0.000004
   4         0           2      0.000005    0.000003
   5         0           2      0.000011    0.000009
   6         0           2      0.000018    0.000016
   7         0           2      0.000009    0.000007
   8         1           1      0.000003    0.000002
   9         2           0      0.000001    0.000001    Roots Converged
 ---------------------------------------------------
 
 ---------------------------------------------------
         TDDFT/TDA Excitation Energies              
 ---------------------------------------------------

 Excited state   1: excitation energy (eV) =    2.2854
 Total energy for state  1:                 -3799.27555740 au
    Multiplicity: Triplet
    Trans. Mom.:  0.0000 X   0.0000 Y   0.0000 Z
    Strength   :     0.0000000000
    D(271) --> V(  1) amplitude = -0.2645
    D(273) --> V(  1) amplitude = -0.5876
    D(273) --> V(  4) amplitude = -0.2346
    D(274) --> V(  2) amplitude = -0.5596
    D(276) --> V(  1) amplitude =  0.3194

 Excited state   2: excitation energy (eV) =    2.3614
 Total energy for state  2:                 -3799.27276404 au
    Multiplicity: Triplet
    Trans. Mom.:  0.0000 X   0.0000 Y   0.0000 Z
    Strength   :     0.0000000000
    D(275) --> V(  1) amplitude =  0.7362
    D(276) --> V(  1) amplitude =  0.6305
 
 ---------------------------------------------------
 Calculating Relaxed Density
 ---------------------------------------------------
 Iter    Rts Conv    Rts Left    Ttl Dev     Max Dev
 ---------------------------------------------------
   1         0           2      0.000184    0.000150
   2         0           2      0.000068    0.000050
   3         0           2      0.000027    0.000022
   4         0           2      0.000008    0.000006
   5         1           1      0.000003    0.000003
   6         2           0      0.000000    0.000000    Roots Converged
 ---------------------------------------------------
  SETman timing summary (seconds)
  CPU time             13476.47s
  System time              0.02s
  Wall time             1969.51s
 
 --------------------------------------------------------------
 
                    Orbital Energies (a.u.)
 --------------------------------------------------------------
 
 Alpha MOs
 -- Occupied --
-89.602 -89.601 -14.690 -14.689 -10.516 -10.516 -10.516 -10.516
-10.496 -10.495 -10.493 -10.493 -10.493 -10.493 -10.474 -10.474
-10.474 -10.474 -10.472 -10.472 -10.472 -10.472 -10.472 -10.472
-10.472 -10.472 -10.470 -10.469 -10.469 -10.469 -10.468 -10.468
-10.465 -10.465 -10.464 -10.464 -10.464 -10.464 -10.464 -10.464
-10.463 -10.463 -10.463 -10.463 -10.457 -10.457 -10.457 -10.457
-10.454 -10.454 -10.454 -10.454 -10.451 -10.451 -10.451 -10.451
-10.451 -10.451 -10.451 -10.451 -10.448 -10.448 -10.448 -10.448
-10.447 -10.447 -10.447 -10.447 -10.447 -10.447 -10.445 -10.445
-10.445 -10.444 -10.442 -10.442 -10.433 -10.432  -8.240  -8.240
 -6.968  -6.968  -6.132  -6.132  -6.128  -6.128  -6.123  -6.122
 -1.068  -1.067  -1.029  -1.029  -0.969  -0.969  -0.965  -0.964
 -0.962  -0.962  -0.947  -0.947  -0.933  -0.933  -0.913  -0.906
 -0.897  -0.897  -0.887  -0.887  -0.863  -0.857  -0.856  -0.853
 -0.853  -0.852  -0.852  -0.851  -0.845  -0.845  -0.828  -0.821
 -0.821  -0.813  -0.811  -0.810  -0.807  -0.805  -0.772  -0.772
 -0.766  -0.766  -0.740  -0.735  -0.733  -0.726  -0.719  -0.718
 -0.710  -0.710  -0.704  -0.704  -0.696  -0.687  -0.682  -0.681
 -0.681  -0.668  -0.661  -0.656  -0.653  -0.652  -0.643  -0.643
 -0.632  -0.631  -0.612  -0.612  -0.603  -0.602  -0.598  -0.593
 -0.586  -0.586  -0.585  -0.579  -0.576  -0.559  -0.555  -0.554
 -0.553  -0.549  -0.543  -0.543  -0.540  -0.537  -0.534  -0.532
 -0.528  -0.528  -0.525  -0.521  -0.517  -0.517  -0.507  -0.505
 -0.504  -0.501  -0.500  -0.499  -0.498  -0.498  -0.497  -0.496
 -0.494  -0.492  -0.492  -0.491  -0.489  -0.485  -0.483  -0.480
 -0.479  -0.477  -0.475  -0.475  -0.474  -0.471  -0.470  -0.467
 -0.464  -0.461  -0.453  -0.452  -0.446  -0.446  -0.442  -0.440
 -0.439  -0.438  -0.433  -0.431  -0.430  -0.430  -0.429  -0.427
 -0.425  -0.425  -0.422  -0.419  -0.418  -0.417  -0.406  -0.405
 -0.404  -0.403  -0.402  -0.398  -0.397  -0.396  -0.395  -0.395
 -0.392  -0.391  -0.391  -0.389  -0.388  -0.380  -0.379  -0.373
 -0.373  -0.370  -0.363  -0.360  -0.360  -0.356  -0.350  -0.349
 -0.320  -0.314  -0.306  -0.306  -0.303  -0.303  -0.302  -0.301
 -0.291  -0.285  -0.284  -0.284  -0.284  -0.264  -0.263  -0.262
 -0.259  -0.255  -0.211  -0.211
 -- Virtual --
 -0.098  -0.067  -0.046  -0.042  -0.012  -0.007  -0.006  -0.006
 -0.003   0.000   0.006   0.006   0.009   0.015   0.017   0.022
  0.023   0.037   0.051   0.052   0.062   0.062   0.062   0.073
  0.077   0.081   0.102   0.103   0.108   0.118   0.131   0.133
  0.136   0.140   0.141   0.148   0.149   0.151   0.152   0.157
  0.159   0.163   0.165   0.167   0.168   0.173   0.173   0.175
  0.175   0.176   0.181   0.182   0.183   0.185   0.186   0.188
  0.188   0.190   0.192   0.194   0.198   0.199   0.201   0.201
  0.203   0.205   0.206   0.208   0.208   0.210   0.210   0.212
  0.213   0.214   0.217   0.218   0.221   0.221   0.222   0.228
  0.231   0.232   0.234   0.234   0.237   0.240   0.242   0.243
  0.248   0.249   0.250   0.250   0.251   0.252   0.254   0.256
  0.257   0.259   0.260   0.261   0.262   0.263   0.264   0.268
  0.270   0.273   0.277   0.277   0.278   0.282   0.286   0.287
  0.289   0.292   0.294   0.295   0.297   0.303   0.304   0.306
  0.308   0.309   0.315   0.315   0.317   0.319   0.321   0.323
  0.328   0.331   0.333   0.336   0.337   0.339   0.342   0.348
  0.357   0.363   0.365   0.368   0.370   0.372   0.375   0.378
  0.381   0.390   0.393   0.402   0.402   0.407   0.410   0.411
  0.413   0.417   0.423   0.426   0.430   0.431   0.431   0.433
  0.438   0.447   0.449   0.450   0.456   0.458   0.459   0.474
  0.479   0.487   0.488   0.490   0.492   0.493   0.494   0.496
  0.497   0.502   0.510   0.512   0.515   0.518   0.520   0.521
  0.521   0.522   0.522   0.524   0.525   0.525   0.527   0.528
  0.530   0.532   0.532   0.532   0.536   0.540   0.542   0.545
  0.549   0.552   0.553   0.557   0.558   0.558   0.559   0.560
  0.560   0.562   0.564   0.564   0.565   0.566   0.568   0.570
  0.570   0.571   0.574   0.574   0.578   0.580   0.583   0.583
  0.584   0.584   0.584   0.585   0.587   0.587   0.588   0.590
  0.591   0.592   0.598   0.599   0.601   0.603   0.604   0.605
  0.605   0.606   0.607   0.611   0.612   0.612   0.613   0.614
  0.614   0.617   0.618   0.620   0.621   0.622   0.623   0.623
  0.624   0.628   0.628   0.629   0.632   0.634   0.637   0.643
  0.644   0.646   0.647   0.647   0.648   0.650   0.651   0.652
  0.653   0.655   0.659   0.661   0.664   0.664   0.665   0.666
  0.672   0.672   0.674   0.675   0.680   0.681   0.682   0.682
  0.686   0.687   0.688   0.691   0.694   0.699   0.700   0.701
  0.705   0.707   0.708   0.708   0.709   0.710   0.714   0.715
  0.716   0.719   0.724   0.728   0.730   0.734   0.735   0.741
  0.742   0.746   0.748   0.753   0.754   0.754   0.756   0.758
  0.766   0.768   0.772   0.773   0.775   0.775   0.780   0.780
  0.782   0.783   0.789   0.790   0.798   0.800   0.802   0.802
  0.809   0.813   0.821   0.826   0.829   0.832   0.838   0.841
  0.843   0.846   0.852   0.853   0.857   0.861   0.863   0.864
  0.868   0.874   0.879   0.881   0.884   0.886   0.889   0.892
  0.893   0.899   0.902   0.904   0.907   0.909   0.912   0.913
  0.919   0.921   0.927   0.931   0.933   0.934   0.937   0.938
  0.942   0.942   0.945   0.947   0.953   0.955   0.957   0.959
  0.959   0.962   0.965   0.967   0.969   0.971   0.977   0.981
  0.981   0.982   0.986   0.989   0.990   0.991   0.992   0.993
  0.996   0.998   0.998   1.001   1.005   1.011   1.012   1.015
  1.016   1.019   1.020   1.023   1.025   1.025   1.026   1.027
  1.028   1.029   1.031   1.033   1.036   1.038   1.042   1.048
  1.049   1.050   1.053   1.054   1.054   1.057   1.059   1.060
  1.062   1.063   1.066   1.070   1.072   1.073   1.074   1.076
  1.083   1.085   1.088   1.091   1.095   1.097   1.097   1.106
  1.106   1.108   1.108   1.112   1.114   1.116   1.116   1.123
  1.124   1.130   1.131   1.140   1.143   1.144   1.146   1.148
  1.148   1.150   1.152   1.155   1.157   1.162   1.163   1.168
  1.169   1.178   1.182   1.189   1.195   1.198   1.201   1.204
  1.205   1.206   1.210   1.213   1.215   1.225   1.227   1.234
  1.240   1.243   1.252   1.253   1.254   1.258   1.261   1.261
  1.266   1.272   1.274   1.277   1.283   1.288   1.293   1.295
  1.297   1.298   1.298   1.299   1.299   1.305   1.307   1.311
  1.312   1.314   1.317   1.319   1.321   1.326   1.328   1.334
  1.337   1.341   1.341   1.343   1.349   1.357   1.359   1.365
  1.365   1.366   1.368   1.371   1.372   1.377   1.377   1.379
  1.381   1.389   1.402   1.403   1.404   1.409   1.413   1.413
  1.425   1.433   1.435   1.438   1.438   1.439   1.441   1.447
  1.449   1.453   1.455   1.458   1.460   1.467   1.477   1.481
  1.484   1.487   1.488   1.492   1.503   1.504   1.505   1.506
  1.507   1.508   1.513   1.519   1.520   1.520   1.521   1.529
  1.530   1.530   1.534   1.535   1.538   1.539   1.539   1.545
  1.552   1.552   1.553   1.553   1.556   1.556   1.560   1.561
  1.567   1.568   1.570   1.575   1.576   1.577   1.586   1.599
  1.600   1.601   1.603   1.603   1.613   1.613   1.616   1.623
  1.633   1.635   1.635   1.642   1.644   1.645   1.647   1.648
  1.660   1.671   1.681   1.688   1.698   1.700   1.719   1.721
  1.739   1.744   1.747   1.748   1.761   1.771   1.772   1.786
  1.787   1.794   1.805   1.808   1.809   1.811   1.812   1.815
  1.817   1.821   1.821   1.825   1.828   1.830   1.832   1.833
  1.834   1.837   1.838   1.846   1.863   1.867   1.868   1.870
  1.887   1.890   1.897   1.898   1.899   1.907   1.909   1.916
  1.920   1.921   1.925   1.925   1.926   1.928   1.932   1.934
  1.943   1.945   1.951   1.953   1.957   1.961   1.961   1.961
  1.966   1.967   1.969   1.976   1.976   1.977   1.984   1.989
  1.990   1.991   1.993   1.994   2.006   2.008   2.011   2.023
  2.031   2.036   2.042   2.043   2.045   2.046   2.047   2.058
  2.069   2.071   2.071   2.071   2.073   2.085   2.094   2.094
  2.097   2.103   2.103   2.105   2.106   2.112   2.114   2.123
  2.123   2.132   2.142   2.144   2.145   2.150   2.152   2.155
  2.156   2.161   2.168   2.170   2.171   2.175   2.178   2.179
  2.181   2.183   2.184   2.190   2.191   2.191   2.192   2.200
  2.206   2.207   2.207   2.215   2.224   2.224   2.226   2.230
  2.230   2.239   2.243   2.243   2.246   2.246   2.251   2.252
  2.253   2.262   2.265   2.269   2.274   2.275   2.282   2.286
  2.287   2.290   2.295   2.300   2.301   2.309   2.311   2.313
  2.313   2.319   2.323   2.328   2.330   2.330   2.331   2.331
  2.332   2.338   2.341   2.343   2.345   2.345   2.347   2.350
  2.355   2.356   2.360   2.360   2.361   2.362   2.371   2.372
  2.372   2.372   2.380   2.385   2.392   2.396   2.401   2.404
  2.405   2.407   2.412   2.416   2.418   2.420   2.429   2.431
  2.438   2.440   2.445   2.445   2.455   2.460   2.461   2.464
  2.479   2.481   2.485   2.489   2.499   2.506   2.508   2.523
  2.529   2.533   2.544   2.548   2.558   2.560   2.569   2.577
  2.588   2.601   2.614   2.615   2.624   2.624   2.631   2.635
  2.636   2.638   2.656   2.661   2.675   2.676   2.677   2.679
  2.690   2.692   2.692   2.694   2.703   2.704   2.708   2.709
  2.714   2.719   2.721   2.724   2.730   2.732   2.738   2.739
  2.741   2.743   2.745   2.747   2.763   2.766   2.769   2.771
  2.778   2.778   2.780   2.781   2.784   2.786   2.786   2.787
  2.792   2.792   2.796   2.796   2.799   2.804   2.810   2.812
  2.819   2.820   2.824   2.837   2.841   2.845   2.846   2.849
  2.861   2.864   2.865   2.868   2.876   2.884   2.889   2.893
  2.903   2.910   2.913   2.925   2.937   2.959   2.977   2.981
  2.982   2.982   2.990   2.991   2.994   3.000   3.000   3.012
  3.055   3.063   3.066   3.071   3.084   3.118   3.122   3.185
  3.222   3.223   3.230   3.232   3.265   3.267   3.396   3.404
  3.409   3.419   3.434   3.466   3.466   3.470   3.481   3.489
  3.516   3.516   3.659   3.671   9.494   9.652  13.133  13.166
 13.239  13.239  13.247  13.247  13.420  13.476  13.496  13.511
 13.522  13.546  13.639  13.639  13.667  13.667  13.674  13.681
 13.692  13.693  13.718  13.726  13.726  13.766  13.791  13.793
 13.818  13.825  13.843  13.864  13.873  13.898  13.919  13.962
 13.976  13.984  13.996  14.003  14.016  14.027  14.108  14.109
 14.111  14.113  14.127  14.131  14.132  14.141  14.143  14.171
 14.176  14.177  14.182  14.185  14.192  14.222  14.235  14.244
 14.321  14.326  14.326  14.344  14.460  14.466  14.511  14.512
 14.534  14.535  14.535  14.542  14.552  14.556  14.609  14.609
 19.571  19.575
 --------------------------------------------------------------
 
          Ground-State Mulliken Net Atomic Charges

     Atom                 Charge (a.u.)
  ----------------------------------------
      1 C                    -0.325250
      2 C                     0.036530
      3 C                    -0.210870
      4 C                     0.070140
      5 C                    -0.337907
      6 C                     0.268710
      7 N                    -0.757082
      8 C                    -0.742194
      9 C                    -0.531508
     10 C                     0.402991
     11 C                    -0.187159
     12 C                    -0.306980
     13 C                     0.403371
     14 C                    -0.211012
     15 C                    -0.228444
     16 C                    -0.236152
     17 C                    -0.187383
     18 C                    -0.306559
     19 C                    -0.210763
     20 C                    -0.228411
     21 C                    -0.236222
     22 C                    -0.179083
     23 C                    -0.177081
     24 B                     0.690999
     25 C                    -0.178860
     26 C                    -0.177466
     27 B                     0.691568
     28 C                    -0.381006
     29 C                     0.101408
     30 C                     0.103458
     31 C                    -0.388817
     32 C                    -0.381922
     33 C                     0.101512
     34 C                     0.104036
     35 C                    -0.387209
     36 C                    -0.352523
     37 C                    -0.224824
     38 C                    -0.340794
     39 C                     0.242234
     40 C                     0.068900
     41 C                     0.130942
     42 C                    -0.340736
     43 C                    -0.224946
     44 C                    -0.353130
     45 C                     0.130653
     46 C                    -0.224948
     47 C                    -0.352976
     48 C                     0.130733
     49 C                     0.068828
     50 C                     0.242237
     51 C                    -0.340779
     52 C                     0.130981
     53 C                    -0.352381
     54 C                    -0.224729
     55 C                    -0.340830
     56 C                    -0.330810
     57 C                     0.068528
     58 C                    -0.209498
     59 C                     0.033530
     60 C                    -0.318373
     61 C                     0.258557
     62 N                    -0.754809
     63 C                    -0.531231
     64 C                    -0.741529
     65 C                     0.403340
     66 C                    -0.304412
     67 C                    -0.187398
     68 C                     0.404445
     69 C                    -0.236382
     70 C                    -0.228641
     71 C                    -0.211418
     72 C                    -0.305989
     73 C                    -0.186615
     74 C                    -0.236654
     75 C                    -0.228479
     76 C                    -0.210849
     77 H                     0.242556
     78 H                     0.242131
     79 H                     0.241052
     80 H                     0.249005
     81 H                     0.236741
     82 H                     0.248822
     83 H                     0.230118
     84 C                    -0.645890
     85 H                     0.256263
     86 H                     0.218190
     87 H                     0.220530
     88 H                     0.232083
     89 H                     0.256351
     90 H                     0.217662
     91 H                     0.220475
     92 H                     0.232094
     93 H                     0.232090
     94 H                     0.232268
     95 H                     0.232758
     96 H                     0.231764
     97 H                     0.217226
     98 H                     0.229509
     99 H                     0.224513
    100 H                     0.224571
    101 H                     0.229566
    102 H                     0.217323
    103 H                     0.229567
    104 H                     0.217252
    105 H                     0.224564
    106 H                     0.216740
    107 H                     0.229330
    108 H                     0.224510
    109 H                     0.240125
    110 H                     0.241051
    111 H                     0.230361
    112 H                     0.249883
    113 C                    -0.645379
    114 H                     0.236766
    115 H                     0.249667
    116 H                     0.240835
    117 H                     0.255089
    118 H                     0.231987
    119 H                     0.220424
    120 H                     0.218203
    121 H                     0.255449
    122 H                     0.232019
    123 H                     0.220356
    124 H                     0.216912
    125 H                     0.219716
    126 H                     0.220032
    127 H                     0.244231
    128 H                     0.219802
    129 H                     0.219665
    130 H                     0.245213
    131 S                     0.164441
    132 S                     0.164808
  ----------------------------------------
  Sum of atomic charges =    -0.000000

 -----------------------------------------------------------------
                    Cartesian Multipole Moments
 -----------------------------------------------------------------
    Charge (ESU x 10^10)
                -0.0000
    Dipole Moment (Debye)
         X       0.0198      Y      -0.0326      Z       0.0601
       Tot       0.0712
    Quadrupole Moments (Debye-Ang)
        XX    -475.0461     XY     -39.3900     YY    -410.9364
        XZ       5.5254     YZ     -22.5048     ZZ    -494.2670
    Octopole Moments (Debye-Ang^2)
       XXX    8716.6936    XXY    1543.0586    XYY    2678.5277
       YYY    2752.7681    XXZ     106.7180    XYZ     134.5184
       YYZ     243.8121    XZZ    3016.6371    YZZ    1131.6392
       ZZZ     514.5177
    Hexadecapole Moments (Debye-Ang^3)
      XXXX -132472.5209   XXXY  -26411.3917   XXYY  -32086.4542
      XYYY  -20822.9136   YYYY  -53081.2479   XXXZ  -20649.7568
      XXYZ   -6180.7327   XYYZ   -6934.9665   YYYZ  -11558.6280
      XXZZ  -33199.6201   XYZZ   -8644.7956   YYZZ  -20910.4332
      XZZZ  -20149.3516   YZZZ  -13463.4628   ZZZZ  -70381.5326
 -----------------------------------------------------------------
 Calculating analytic gradient of the CIS energy
 -6.161422001261343E-004 -6.161353064414051E-004
 -6.161346775060213E-004 -6.161428917226173E-004
 -6.161703825005929E-004 -6.161071871895361E-004
 -6.161005427572290E-004 -6.161770027438849E-004
 -6.161076670010946E-004 -6.161698918206969E-004
 -6.161212716142539E-004 -6.161562680764663E-004
 -6.161415992072591E-004 -6.161359521179473E-004
 -6.161465993412087E-004 -6.161309516688504E-004
 -6.161608187811524E-004 -6.161167427640730E-004
 -6.161482301055158E-004 -6.161293163010726E-004
 -6.161352101738023E-004 -6.161423469703891E-004
 -6.160919604079682E-004 -6.161855864177733E-004
 -6.161542763177198E-004 -6.161232613581642E-004
 -6.161631462082463E-004 -6.161144163660923E-004
 -6.161516358040410E-004 -6.161259026118159E-004
 -6.161196877154684E-004 -6.161578676078397E-004
 -6.161199645345799E-004 -6.161575826811373E-004
 -6.160987956327882E-004 -6.161787529223696E-004
 -6.161373514324169E-004 -6.161402478948271E-004
 -6.161396100280584E-004 -6.161379335042000E-004
 -6.161377972915699E-004 -6.161398003638101E-004
 -6.161514542297865E-004 -6.161260900108495E-004
 -6.161233424937925E-004 -6.161542005309365E-004
 -6.161248991859872E-004 -6.161526395249098E-004
 -6.161223435076507E-004 -6.161551692669147E-004
 -6.161491160723777E-004 -6.161284332312127E-004
 -6.161326032500928E-004 -6.161449664211333E-004
 -6.161244909661937E-004 -6.161531170391840E-004
 -6.161213730430384E-004 -6.161561895084897E-004
 -6.161143429442059E-004 -6.161632351688309E-004
 -6.161542078138398E-004 -6.161233893103753E-004
 -6.161543628649560E-004 -6.161231749433991E-004
 -6.161698264095985E-004 -6.161077563636447E-004
 -6.161432990133219E-004 -6.161343158589527E-004
 -6.161308629679030E-004 -6.161466865033808E-004
 -6.161292237983982E-004 -6.161483582978833E-004
 -6.161249619123783E-004 -6.161526483170351E-004
 -6.161303203232188E-004 -6.161472292593069E-004
 -6.161073261011368E-004 -6.161702632564256E-004
 -6.161190189628296E-004 -6.161585876774441E-004
 -6.161401142180918E-004 -6.161374345822954E-004
 -6.161027357372423E-004 -6.161748315420853E-004
 -6.161540812207574E-004 -6.161235226975507E-004
 -6.161362577475225E-004 -6.161412787746587E-004
 -6.161589749305923E-004 -6.161186226636569E-004
 -6.161312581795806E-004 -6.161463303037157E-004
 -6.161310533835764E-004 -6.161465021960629E-004
 -6.161214236803467E-004 -6.161561308313417E-004
 -6.161564010147948E-004 -6.161211934539018E-004
 -6.161529332035294E-004 -6.161246081328167E-004
 -6.161694660375865E-004 -6.161081174148441E-004
 -6.161286329920042E-004 -6.161489856285334E-004
 -6.161406163633831E-004 -6.161369206671881E-004
 -6.161364505059348E-004 -6.161411391792922E-004
 -6.161294425056237E-004 -6.161481622916536E-004
 -6.161089551968201E-004 -6.161685924568091E-004
 -6.161149410534011E-004 -6.161626312200950E-004
 -6.161428275011107E-004 -6.161347777797112E-004
 -6.161578850108762E-004 -6.161196495756620E-004
 -6.161536400584220E-004 -6.161239559074750E-004
 -6.161297456224483E-004 -6.161478488366323E-004
 -6.161317214480953E-004 -6.161458298420525E-004
 -6.161222458447415E-004 -6.161553089968467E-004
 -6.161350252324256E-004 -6.161426063285222E-004
 -6.161299737151532E-004 -6.161475720004726E-004
 -6.161168382277573E-004 -6.161607531170918E-004
 -6.161501877062947E-004 -6.161274444133630E-004
 -6.161506653709896E-004 -6.161268761715635E-004
 -6.161570034456582E-004 -6.161205863053360E-004
 -6.161331098368424E-004 -6.161444973552725E-004
 -6.161368902687701E-004 -6.161406647700366E-004
 -6.161385383682810E-004 -6.161390396686667E-004
 -6.161424413121596E-004 -6.161351901741163E-004
 -6.161480251291808E-004 -6.161295207613949E-004
 -6.161604184337060E-004 -6.161171726489167E-004
 -6.161269922562351E-004 -6.161506397922801E-004
 -6.161272347918138E-004 -6.161503064393294E-004
 -6.161206852533670E-004 -6.161569043803435E-004
 -6.161440235073878E-004 -6.161335839014251E-004
 -6.161406100854559E-004 -6.161369451489235E-004
 -6.161392117715492E-004 -6.161383656601690E-004
 -6.161252354547418E-004 -6.161524136797747E-004
 -6.161479153851258E-004 -6.161296186813566E-004
 -6.161376399477410E-004 -6.161399473191063E-004
 -6.161335111598287E-004 -6.161441260827431E-004
 -6.161655430126152E-004 -6.161120079333643E-004
 -6.161529114286917E-004 -6.161246734961785E-004
 -6.161195353893074E-004 -6.161581067561563E-004
 -6.161486842560767E-004 -6.161288587161722E-004
 -6.161182755904083E-004 -6.161593163464877E-004
 -6.161333605512269E-004 -6.161442759946656E-004
 -6.161530957109695E-004 -6.161244488327004E-004
 -6.161381012834734E-004 -6.161394860218605E-004
 -6.161529081168107E-004 -6.161247417977636E-004
 -6.161297862943148E-004 -6.161477476112609E-004
 -6.161399498382980E-004 -6.161376366169843E-004
 -6.161445000539519E-004 -6.161331378908919E-004
 -6.161117893445974E-004 -6.161657611766596E-004
 -6.161244946852351E-004 -6.161530904573217E-004
 -6.161580567168312E-004 -6.161195859674701E-004
 -6.161289659753996E-004 -6.161485768063364E-004
 -6.161599064724715E-004 -6.161176858907188E-004
 -6.161435534602399E-004 -6.161340842295090E-004
 -6.161246145981081E-004 -6.161529301582597E-004
 -6.161390752211131E-004 -6.161385109374382E-004
 -6.161354661984662E-004 -6.161421642447229E-004
 -6.161730207365657E-004 -6.161045260416893E-004
 -6.161501076266218E-004 -6.161274689519976E-004
 -6.161501595809337E-004 -6.161274546366935E-004
 -6.161226754621554E-004 -6.161548762363251E-004
 -6.161513531039401E-004 -6.161262004015786E-004
 -6.161327182433055E-004 -6.161448902458244E-004
 -6.161542504564581E-004 -6.161233005281094E-004
 -6.161318150936577E-004 -6.161457513044193E-004
 -6.161501759154736E-004 -6.161274365872873E-004
 -6.161121306679025E-004 -6.161654243079728E-004
 -6.161458161226181E-004 -6.161317374551842E-004
 -6.161326850883566E-004 -6.161449593643871E-004
 -6.161533943849508E-004 -6.161241625112083E-004
 -6.161334361343010E-004 -6.161441611606286E-004
 -6.161337471891429E-004 -6.161438905012714E-004
 -6.161537706439709E-004 -6.161237777947944E-004
 -6.161430699033641E-004 -6.161345000142656E-004
 -6.161339933642115E-004 -6.161436290063817E-004
 -6.161561319028544E-004 -6.161213856352690E-004
 -6.161348386440656E-004 -6.161427447218830E-004
 -6.161420216980616E-004 -6.161355875255541E-004
 -6.161162864258946E-004 -6.161612813130996E-004
 -6.161371775841886E-004 -6.161403646991663E-004
 -6.161174867268364E-004 -6.161601518472159E-004
 -6.161553641035726E-004 -6.161221697034683E-004
 -6.161146329061202E-004 -6.161629491919153E-004
 -6.161286351487787E-004 -6.161489969975084E-004
 -6.161480900517833E-004 -6.161294666503761E-004
 -6.161290147539836E-004 -6.161485489115065E-004
 -6.161359940366259E-004 -6.161416165604728E-004
 -6.161607962955600E-004 -6.161167718006697E-004
 -6.161402811742100E-004 -6.161372600627375E-004
 -6.161603405389804E-004 -6.161172995677012E-004
 -6.161224470883477E-004 -6.161550867117822E-004
 -6.161631226407249E-004 -6.161144583814978E-004
 -6.161491215631526E-004 -6.161285115072802E-004
 -6.161285578989526E-004 -6.161489982839700E-004
 -6.161488237913044E-004 -6.161287398463349E-004
 -6.161452119161383E-004 -6.161324332592661E-004
 -6.161242088057026E-004 -6.161533478014874E-004
 -6.161440945190982E-004 -6.161335032086230E-004
 -6.161279635998336E-004 -6.161496502106753E-004
 -6.161648951734779E-004 -6.161126599590143E-004
 -6.161319432155363E-004 -6.161456094395071E-004
 -6.161439016076561E-004 -6.161337224923754E-004
 -6.161216615961367E-004 -6.161558551954166E-004
 -6.161428263790705E-004 -6.161347572941644E-004
 -6.161445608710821E-004 -6.161330781322175E-004
 -6.161235651269115E-004 -6.161539835347646E-004
 -6.161348208001567E-004 -6.161427494444788E-004
 -6.161418701632517E-004 -6.161357620438905E-004
 -6.161045876792361E-004 -6.161729584500176E-004
 -6.161271596651942E-004 -6.161504157629668E-004
 -6.161276718137430E-004 -6.161499438921841E-004
 -6.161547865930451E-004 -6.161227652734017E-004
 -6.161267852521331E-004 -6.161507674030977E-004
 -6.161448209300647E-004 -6.161327888132130E-004
 -6.161232660314377E-004 -6.161542854592876E-004
 -6.161453559592161E-004 -6.161322095900664E-004
 -6.161226377705406E-004 -6.161548980062926E-004
 -6.161158525648470E-004 -6.161617098439857E-004
 -6.161249406431599E-004 -6.161525990557627E-004
 -6.161277331383213E-004 -6.161498135248079E-004
 -6.161418912058176E-004 -6.161356659860899E-004
 -6.161851814967217E-004 -6.160923648740363E-004
 -6.161366897037318E-004 -6.161408613184582E-004
 -6.161308420712345E-004 -6.161467098114921E-004
 -6.161170239059289E-004 -6.161605374715648E-004
 -6.161771404716554E-004 -6.161004048666151E-004
 -6.161691303956270E-004 -6.161084298458908E-004
 -6.161567761607657E-004 -6.161207631069688E-004
 -6.161365218246547E-004 -6.161409829878743E-004
 -6.161422290347192E-004 -6.161353419934779E-004
 -6.161072212239967E-004 -6.161703483077653E-004
 -6.161568601993929E-004 -6.161206982750246E-004
 -6.161566601636064E-004 -6.161208863536504E-004
 -6.161793920277511E-004 -6.160981542946962E-004
 -6.161396372483291E-004 -6.161379702836816E-004
 -6.161387087782564E-004 -6.161388295228831E-004
 -6.161398780097102E-004 -6.161377164406001E-004
 -6.161548214539095E-004 -6.161226908241496E-004
 -6.161277547049593E-004 -6.161497939294394E-004
 -6.161450336624719E-004 -6.161325363195642E-004
 -6.161268106908550E-004 -6.161507316120470E-004
 -6.161549147940184E-004 -6.161226286708027E-004
 -6.161521659703490E-004 -6.161253730832482E-004
 -6.161530805347923E-004 -6.161245346966561E-004
 -6.161550454737805E-004 -6.161225132134424E-004
 -6.161642225506888E-004 -6.161133525210895E-004
 -6.161484800364901E-004 -6.161291465436802E-004
 -6.161368520995125E-004 -6.161406814656439E-004
 -6.161415992986946E-004 -6.161359861680635E-004
 -6.161211239297134E-004 -6.161564763407176E-004
 -6.161259394987194E-004 -6.161515986251014E-004
 -6.161072717466480E-004 -6.161703086060653E-004
 -6.161527132915103E-004 -6.161249029845099E-004
 -6.161462251587492E-004 -6.161313216138007E-004
 -6.161703343713068E-004 -6.161072519450925E-004
 -6.161466692038322E-004 -6.161309232241817E-004
 -6.161457012892745E-004 -6.161318528357781E-004
 -6.161562031401151E-004 -6.161213477236696E-004
 -6.161242929314231E-004 -6.161533169621620E-004
 -6.161424698507426E-004 -6.161350638317006E-004
 -6.161180061442664E-004 -6.161595891098605E-004
 -6.161574842385306E-004 -6.161201270449398E-004
 -6.161363808328847E-004 -6.161411649947121E-004
 -6.161754398282518E-004 -6.161021245269802E-004
 -6.161349667062690E-004 -6.161426543095207E-004
 -6.161472458581815E-004 -6.161302999494827E-004
 -6.161481159005946E-004 -6.161294637159909E-004
 -6.161231027668422E-004 -6.161545007506157E-004
 -6.161247480001308E-004 -6.161527850678276E-004
 -6.161075679498177E-004 -6.161700127257715E-004
 -6.161481783497663E-004 -6.161294206813871E-004
 -6.161445369357726E-004 -6.161330136206923E-004
 -6.161560926559962E-004 -6.161214601901293E-004
 -6.161341100978488E-004 -6.161435026103392E-004
 -6.161203197520271E-004 -6.161572098203184E-004
 -6.161239834400845E-004 -6.161536108794099E-004
 -6.161502079901208E-004 -6.161274042250703E-004
 -6.161675584075387E-004 -6.161099854532339E-004
 -6.161629583839217E-004 -6.161146106637323E-004
 -6.161280802191875E-004 -6.161494218892712E-004
 -6.161250179286960E-004 -6.161525455577973E-004
 -6.161403688354119E-004 -6.161371916545717E-004
 -6.161469170879957E-004 -6.161306123063672E-004
 -6.161470949217684E-004 -6.161304517211701E-004
 -6.161211488081245E-004 -6.161563913236394E-004
 -6.161436432545800E-004 -6.161339001576483E-004
 -6.161277716146879E-004 -6.161497745156481E-004
 -6.161373127415329E-004 -6.161402337032682E-004
 -6.161393119066747E-004 -6.161382391970081E-004
 -6.161432292221770E-004 -6.161343020191299E-004
 -6.161232874874743E-004 -6.161542623740637E-004
 -6.161396316555383E-004 -6.161378989070780E-004
 -6.161311212958959E-004 -6.161464383983998E-004
 -6.161283172750136E-004 -6.161492377002446E-004
 -6.161383430853663E-004 -6.161391996620199E-004
 -6.161244654752460E-004 -6.161530753676339E-004
 -6.161372563108201E-004 -6.161403025073421E-004
 -6.161353534604530E-004 -6.161421667576147E-004
 -6.161353224534004E-004 -6.161422345484033E-004
 -6.161333909813411E-004 -6.161441749066574E-004
 -6.161388298501879E-004 -6.161386950447609E-004
 -6.161280203164298E-004 -6.161495126247286E-004
 -6.161367718309390E-004 -6.161408099069701E-004
 -6.161326182066997E-004 -6.161449713644061E-004
 -6.161300767864256E-004 -6.161474855550335E-004
 -6.161115938687512E-004 -6.161659534886287E-004
 -6.161397059993806E-004 -6.161378573378918E-004
 -6.161311317345794E-004 -6.161463980432289E-004
 -6.161372555459901E-004 -6.161402900095897E-004
 -6.161326726964180E-004 -6.161448965282424E-004
 -6.161436821884967E-004 -6.161338703214645E-004
 -6.161332015613365E-004 -6.161443692263395E-004
 -6.161475943976622E-004 -6.161299767450475E-004
 -6.161388712073146E-004 -6.161386939852213E-004
 -6.161525249770883E-004 -6.161250090596783E-004
 -6.161217279946314E-004 -6.161558708959306E-004
 -6.161240513632093E-004 -6.161534895104599E-004
 -6.161232372746128E-004 -6.161543242878774E-004
 -6.161359132874230E-004 -6.161416442025992E-004
 -6.161435461356072E-004 -6.161339953733148E-004
 -6.161336752699997E-004 -6.161438691636297E-004
 -6.161414067350163E-004 -6.161361688766171E-004
 -6.161299900131331E-004 -6.161475444266997E-004
 -6.161353789228398E-004 -6.161422013425705E-004
 -6.161433991576796E-004 -6.161341741105606E-004
 -6.161506176225893E-004 -6.161269432400766E-004
 -6.161493834015560E-004 -6.161281543594710E-004
 -6.161360529597874E-004 -6.161415552299609E-004
 -6.161535865250663E-004 -6.161239673323556E-004
 -6.161552270873558E-004 -6.161223401956030E-004
 -6.161231143677430E-004 -6.161544894991735E-004
 -6.161349792027104E-004 -6.161425755840458E-004
 -6.161215295058962E-004 -6.161560322567620E-004
 -6.161420231158984E-004 -6.161355861497811E-004
 -6.161242350973201E-004 -6.161533187932782E-004
 -6.161226217164520E-004 -6.161549444767215E-004
 -6.161538498355220E-004 -6.161237548520289E-004
 -6.161426041956454E-004 -6.161349512319864E-004
 -6.161562219144285E-004 -6.161213391424772E-004
 -6.161350539941556E-004 -6.161425256807755E-004
 -6.161485622280473E-004 -6.161289899460857E-004
 -6.161407800752130E-004 -6.161367707883856E-004
 -6.161379552968964E-004 -6.161396075096335E-004
 -6.161483835450021E-004 -6.161291546264997E-004
 -6.161393060504288E-004 -6.161382285144604E-004
 -6.161461837527636E-004 -6.161313940422084E-004
 -6.161218872526477E-004 -6.161556412864644E-004
 -6.161430882134879E-004 -6.161344838889120E-004
 -6.161463650946736E-004 -6.161312204316239E-004
 -6.161221650734358E-004 -6.161553476736355E-004
 -6.161440839066762E-004 -6.161334975383769E-004
 -6.161338566168675E-004 -6.161437038042180E-004
 -6.161460046685972E-004 -6.161315408339568E-004
 -6.161332145700933E-004 -6.161443140740824E-004
 -6.161306347095424E-004 -6.161469540795152E-004
 -6.161463432648496E-004 -6.161311949308958E-004
 -6.161321166963513E-004 -6.161454419911667E-004
 -6.161440775011156E-004 -6.161334835492143E-004
 -6.161318018403185E-004 -6.161457431973074E-004
 -6.161443295849317E-004 -6.161331986463751E-004
 -6.161471780595206E-004 -6.161304121128185E-004
 -6.161305372953057E-004 -6.161470010351033E-004
 -6.161452742364029E-004 -6.161322834638431E-004
 -6.161313534079729E-004 -6.161462326921298E-004
 -6.161555147642878E-004 -6.161219976629025E-004
 -6.161334866726951E-004 -6.161440946219190E-004
 -6.161419188062408E-004 -6.161356622306985E-004
 -6.161289425227295E-004 -6.161486091677291E-004
 -6.161378900630220E-004 -6.161396600486959E-004
 -6.161390544469142E-004 -6.161385087703528E-004
 -6.161292451288687E-004 -6.161482933439685E-004
 -6.161381524768072E-004 -6.161393812886561E-004
 -6.161314280678420E-004 -6.161461505262621E-004
 -6.161557156371479E-004 -6.161218129420495E-004
 -6.161343045667637E-004 -6.161432671914499E-004
 -6.161293097006037E-004 -6.161482166801207E-004
 -6.161320025962953E-004 -6.161455440386946E-004
 -6.161550866664528E-004 -6.161224561431460E-004
 -6.161497957384353E-004 -6.161277056624490E-004
 -6.161518792283527E-004 -6.161256850551739E-004
 -6.161372315752408E-004 -6.161403285634109E-004
 -6.161417322047156E-004 -6.161357863715465E-004
 -6.161424282980569E-004 -6.161351287281454E-004
 -6.161434017937550E-004 -6.161341649476228E-004
 -6.161390460825227E-004 -6.161384970897334E-004
 -6.161528184953348E-004 -6.161247221103581E-004
 -6.161402625413641E-004 -6.161372970582227E-004
 -6.161392765631623E-004 -6.161382491588970E-004
 -6.161502307060837E-004 -6.161273023568200E-004
 -6.161401474846402E-004 -6.161374336492142E-004
 -6.161378339472175E-004 -6.161396954040798E-004
 -6.161469369104680E-004 -6.161306230861436E-004
 -6.161491743632975E-004 -6.161283808372587E-004
 -6.161375752326694E-004 -6.161399767838729E-004
 -6.161350577394526E-004 -6.161424736598583E-004
 -6.161536864151988E-004 -6.161238638422449E-004
 -6.161340958215077E-004 -6.161434463643661E-004
 -6.161504888981945E-004 -6.161270567488410E-004
 -6.161396687585964E-004 -6.161378777311198E-004
 -6.161569371267565E-004 -6.161206642970345E-004
 -6.161522414549558E-004 -6.161253004536267E-004
 -6.161548548776470E-004 -6.161227032386695E-004
 -6.161305138534824E-004 -6.161470584142866E-004
 -6.161393252225559E-004 -6.161382404962414E-004
 -6.161248408967430E-004 -6.161526909636006E-004
 -6.161444247790499E-004 -6.161331472664542E-004
 -6.161335719835980E-004 -6.161439794175175E-004
 -6.161444633432838E-004 -6.161331071274045E-004
 -6.161370610720617E-004 -6.161405039248000E-004
 -6.161464319681932E-004 -6.161310961093748E-004
 -6.161406998083833E-004 -6.161368448697519E-004
 -6.161446781166956E-004 -6.161329138001080E-004
 -6.161474293853250E-004 -6.161301322556104E-004
 -6.161663895655911E-004 -6.161111558588782E-004
 -6.161336802216312E-004 -6.161438942484417E-004
 -6.161272910724000E-004 -6.161502711886100E-004
 -6.161277896130189E-004 -6.161497467043115E-004
 -6.161368208601176E-004 -6.161407572389008E-004
 -6.161478201860912E-004 -6.161297122776415E-004
 -6.161419427064597E-004 -6.161356361979147E-004
 -6.161426673647879E-004 -6.161348951676165E-004
 -6.161339544611052E-004 -6.161435854774275E-004
 -6.161428687074407E-004 -6.161346744310289E-004
 -6.161578507368457E-004 -6.161196960772682E-004
 -6.161313974297421E-004 -6.161461331119707E-004
 -6.161369104046848E-004 -6.161406466024071E-004
 -6.161664101377935E-004 -6.161111259088204E-004
 -6.161457897140734E-004 -6.161317519800991E-004
 -6.161285386415609E-004 -6.161490125084363E-004
 -6.161591998841852E-004 -6.161183260248549E-004
 -6.161342519693587E-004 -6.161433021869008E-004
 -6.161433904650540E-004 -6.161341731116190E-004
 -6.161111159673303E-004 -6.161664191307896E-004
 -6.161319186050410E-004 -6.161456228896609E-004
 -6.161493947521034E-004 -6.161281565979692E-004
 -6.161196422172583E-004 -6.161579042541221E-004
 -6.161460878224344E-004 -6.161314425794328E-004
 -6.161405252992392E-004 -6.161370317753108E-004
 -6.161180532736237E-004 -6.161594717589052E-004
 -6.161430397224051E-004 -6.161345151206472E-004
 -6.161345393498937E-004 -6.161430249338369E-004
 -6.161384617092507E-004 -6.161391059259916E-004
 -6.161374710783691E-004 -6.161400315286209E-004
 -6.161412731880709E-004 -6.161362863007824E-004
 -6.161388382678062E-004 -6.161387236250312E-004
 -6.161391721944398E-004 -6.161383352798515E-004
 -6.161367869037526E-004 -6.161407737593987E-004
 CIS relaxed dipole moment
            1
    1   0.0507968
    2   0.0597219
    3   0.1070425
	Magnitude:	 0.133 au	 0.337 Debye
 CIS 1 State Energy is -3799.2755574007
 Gradient of the state energy (including CIS Excitation Energy)
            1           2           3           4           5           6
    1  -0.0087763  -0.0128256  -0.0034489   0.0045590   0.0121705  -0.0010793
    2   0.0061025  -0.0031425   0.0009308  -0.0003735  -0.0040263  -0.0008340
    3   0.0057168  -0.0021993  -0.0005262  -0.0121203   0.0019803  -0.0009503
            7           8           9          10          11          12
    1  -0.0085450   0.0028221  -0.0029302   0.0105422   0.0009670  -0.0105634
    2  -0.0081865   0.0022789  -0.0005558  -0.0020565   0.0044041   0.0006679
    3  -0.0169254  -0.0006170  -0.0024339   0.0097723   0.0040539  -0.0142927
           13          14          15          16          17          18
    1  -0.0006332  -0.0058830  -0.0017321   0.0023032   0.0036266  -0.0026245
    2   0.0108186   0.0090848   0.0011558   0.0088113  -0.0000481  -0.0131652
    3   0.0097241  -0.0045120  -0.0018801   0.0083514   0.0050749  -0.0115836
           19          20          21          22          23          24
    1   0.0038463   0.0002466   0.0072005   0.0006504  -0.0066073   0.0035659
    2  -0.0111368  -0.0025276  -0.0000461   0.0098991   0.0019291   0.0035667
    3   0.0002429  -0.0010751   0.0101699   0.0062385  -0.0096260   0.0095461
           25          26          27          28          29          30
    1  -0.0007904   0.0070452  -0.0039861   0.0090703  -0.0147878   0.0133273
    2  -0.0104140  -0.0022413  -0.0037037   0.0053894  -0.0147763   0.0138271
    3  -0.0061569   0.0090364  -0.0089165   0.0143072  -0.0276935   0.0254574
           31          32          33          34          35          36
    1  -0.0060453  -0.0090299   0.0142601  -0.0140348   0.0061631  -0.0051371
    2  -0.0101576  -0.0056412   0.0107319  -0.0166410   0.0104597   0.0178617
    3  -0.0138956  -0.0146045   0.0269781  -0.0274796   0.0140638  -0.0023754
           37          38          39          40          41          42
    1   0.0123400  -0.0049212  -0.0089223  -0.0088859  -0.0070611   0.0147233
    2   0.0008616  -0.0221528   0.0226372   0.0202788  -0.0367130  -0.0027732
    3   0.0198649  -0.0144954  -0.0073877  -0.0077181  -0.0227512   0.0224768
           43          44          45          46          47          48
    1  -0.0057660  -0.0075648   0.0243347   0.0050953   0.0077027  -0.0239969
    2  -0.0167665   0.0161296  -0.0076898   0.0179627  -0.0168276   0.0081336
    3  -0.0142942  -0.0068590   0.0360252   0.0137569   0.0067003  -0.0359459
           49          50          51          52          53          54
    1   0.0081327   0.0089656  -0.0139044   0.0059637   0.0061946  -0.0121848
    2  -0.0231408  -0.0223868   0.0034497   0.0371980  -0.0176175   0.0011768
    3   0.0062436   0.0073608  -0.0213197   0.0212637   0.0039776  -0.0193339
           55          56          57          58          59          60
    1   0.0047878  -0.0125092  -0.0053313   0.0030438   0.0124538   0.0077495
    2   0.0219244   0.0040406   0.0002842  -0.0007397   0.0027694  -0.0065029
    3   0.0144623  -0.0031128   0.0112777   0.0001401   0.0018312  -0.0062942
           61          62          63          64          65          66
    1   0.0004511   0.0090905   0.0031010  -0.0028808  -0.0102728   0.0028095
    2   0.0001144   0.0082222   0.0010881  -0.0021565   0.0017331   0.0128899
    3   0.0000654   0.0183145   0.0025682   0.0011911  -0.0108052   0.0112389
           67          68          69          70          71          72
    1  -0.0034102   0.0001156  -0.0027697   0.0015802   0.0053745   0.0099753
    2   0.0004378  -0.0117170  -0.0091528  -0.0013911  -0.0089839  -0.0013242
    3  -0.0048790  -0.0096544  -0.0086544   0.0017757   0.0050277   0.0143827
           73          74          75          76          77          78
    1  -0.0008822  -0.0068455  -0.0001475  -0.0027587   0.0002105  -0.0000012
    2  -0.0044737   0.0001518   0.0027332   0.0114501   0.0007639   0.0000896
    3  -0.0037858  -0.0106335   0.0008106  -0.0000399   0.0000425   0.0008865
           79          80          81          82          83          84
    1   0.0008541  -0.0021207  -0.0068657  -0.0004643   0.0132759  -0.0025461
    2  -0.0128908   0.0087959   0.0053040  -0.0097485   0.0038266  -0.0020863
    3   0.0008186  -0.0070892   0.0111091  -0.0014502  -0.0009124   0.0071637
           85          86          87          88          89          90
    1  -0.0021783  -0.0004652  -0.0007069  -0.0010595   0.0035099   0.0014574
    2   0.0056830   0.0021476   0.0008164   0.0024287  -0.0044410  -0.0011252
    3   0.0002505   0.0006683  -0.0010777  -0.0003441   0.0021506   0.0012827
           91          92          93          94          95          96
    1  -0.0000164   0.0012090   0.0011345   0.0024453  -0.0008911  -0.0022002
    2  -0.0014011  -0.0021667  -0.0034743  -0.0021259   0.0041222   0.0028183
    3  -0.0003453   0.0006883  -0.0000760   0.0020670   0.0006244  -0.0017018
           97          98          99         100         101         102
    1  -0.0008232   0.0004136   0.0000698   0.0003929  -0.0002107   0.0000340
    2   0.0012560   0.0003877  -0.0004003  -0.0001014  -0.0002002   0.0021233
    3  -0.0010911   0.0006682  -0.0000502   0.0005202  -0.0004452   0.0005511
          103         104         105         106         107         108
    1   0.0002752   0.0001375  -0.0002915   0.0010247  -0.0003025   0.0000319
    2   0.0005014  -0.0015725   0.0004512  -0.0007226  -0.0000978   0.0007261
    3   0.0006461  -0.0001496  -0.0002772   0.0014835  -0.0004517   0.0002884
          109         110         111         112         113         114
    1   0.0002323  -0.0000845  -0.0132690   0.0005683   0.0028108   0.0071295
    2   0.0000063  -0.0004237  -0.0033848   0.0097317   0.0024420  -0.0053774
    3  -0.0006000   0.0000945   0.0008485   0.0018378  -0.0067631  -0.0107871
          115         116         117         118         119         120
    1   0.0021225  -0.0004493  -0.0027602   0.0009040   0.0006751   0.0004037
    2  -0.0085236   0.0130563   0.0049209  -0.0023112  -0.0007324  -0.0020033
    3   0.0070399  -0.0006576  -0.0017533   0.0005126   0.0011633  -0.0005282
          121         122         123         124         125         126
    1   0.0020436  -0.0010128   0.0001489  -0.0012242  -0.0037182  -0.0091716
    2  -0.0053909   0.0023241   0.0015364   0.0013390  -0.0121608   0.0058345
    3   0.0002677  -0.0005862   0.0004373  -0.0011926  -0.0055292   0.0073171
          127         128         129         130         131         132
    1   0.0094058   0.0091357   0.0036672  -0.0091523  -0.0070321   0.0074184
    2   0.0020720  -0.0056405   0.0123524  -0.0020212  -0.0059948   0.0072592
    3   0.0040113  -0.0074110   0.0054983  -0.0037165  -0.0140943   0.0145007
 Gradient time:  CPU 5599.81 s  wall 909.00 s
 Geometry Optimization Parameters
   NAtoms,    NIC,     NZ,  NCons,   NDum,   NFix, NCnnct, MaxDiis
      132    1060       0       0       0       0       0       0


** GEOMETRY OPTIMIZATION IN DELOCALIZED INTERNAL COORDINATES **
   Searching for a Minimum

   Optimization Cycle:   1

                       Coordinates (Angstroms)
     ATOM                X               Y               Z
      1  C        -5.0012700000   -0.0018800000    4.4001000000
      2  C        -5.6031900000   -0.5498700000    3.2595000000
      3  C        -4.7914400000   -0.9833000000    2.1746400000
      4  C        -3.3736700000   -0.8548400000    2.2654000000
      5  C        -2.8090700000   -0.3069000000    3.4285500000
      6  C        -3.6108600000    0.1223400000    4.4925300000
      7  N        -3.0102500000    0.6857700000    5.6714600000
      8  C        -7.1081800000   -0.7001200000    3.2422900000
      9  C        -2.4283500000   -1.2685300000    1.1446000000
     10  C        -2.1428900000   -0.1581300000    6.4753900000
     11  C        -1.4971800000    0.3060300000    7.6485600000
     12  C        -4.1210000000    2.8558600000    5.1340800000
     13  C        -3.2986700000    2.0719700000    5.9973300000
     14  C        -4.4114600000    4.1892500000    5.4161300000
     15  C        -3.8915800000    4.7899400000    6.5508000000
     16  C        -3.0704000000    4.0618600000    7.4018100000
     17  C        -2.7626400000    2.7168900000    7.1398700000
     18  C        -1.9399500000   -1.5246800000    6.1187700000
     19  C        -1.1178100000   -2.3605400000    6.8719500000
     20  C        -0.4813000000   -1.8760200000    8.0027800000
     21  C        -0.6737300000   -0.5564100000    8.3903900000
     22  C        -6.9288800000   -1.3351000000   -1.2657400000
     23  C        -6.3235900000   -0.7491300000   -0.1110700000
     24  B        -5.4735200000   -1.6389500000    0.8918600000
     25  C        -5.3076300000   -3.1889000000    0.5962800000
     26  C        -5.9164300000   -3.7768800000   -0.5558900000
     27  B        -6.7649700000   -2.8865900000   -1.5615600000
     28  C        -4.5831100000   -4.0013500000    1.5013200000
     29  C        -4.4749900000   -5.3585600000    1.2362600000
     30  C        -5.0674100000   -5.9288000000    0.1232700000
     31  C        -5.7958100000   -5.1694800000   -0.7809000000
     32  C        -7.6474600000   -0.5190700000   -2.1728500000
     33  C        -7.7574800000    0.8372100000   -1.9042600000
     34  C        -7.1720100000    1.4040700000   -0.7861200000
     35  C        -6.4471800000    0.6425200000    0.1186200000
     36  C        -3.0511700000   -6.4556500000    3.1493700000
     37  C        -2.5337100000   -7.7023900000    3.5819200000
     38  C        -2.7753400000   -8.8875100000    2.8334700000
     39  C        -3.5370600000   -8.8191100000    1.6504700000
     40  C        -4.0176600000   -7.5826200000    1.2724700000
     41  C        -3.8006300000   -6.4286200000    1.9723800000
     42  C        -3.8453100000   -9.9175600000    0.8242200000
     43  C        -4.6261700000   -9.7168100000   -0.3475400000
     44  C        -5.0960800000   -8.4243200000   -0.6910000000
     45  C        -4.7697000000   -7.3614500000    0.1524500000
     46  C        -7.6200300000    5.1897500000   -0.3040400000
     47  C        -7.1506200000    3.8965500000    0.0373700000
     48  C        -7.4710000000    2.8364500000   -0.8118300000
     49  C        -8.2168300000    3.0608400000   -1.9353100000
     50  C        -8.6966300000    4.2981300000   -2.3115900000
     51  C        -8.3943800000    5.3939000000   -1.4795600000
     52  C        -8.4286000000    1.9091300000   -2.6405500000
     53  C        -9.1713400000    1.9394900000   -3.8216900000
     54  C        -9.6876500000    3.1872100000   -4.2527700000
     55  C        -9.4516300000    4.3699300000   -3.4987000000
     56  C        -9.4122700000   -4.1598400000   -4.1479300000
     57  C        -8.8568900000   -3.6319600000   -2.9712600000
     58  C        -7.4377000000   -3.5347200000   -2.8544200000
     59  C        -6.6162500000   -3.9848600000   -3.9263400000
     60  C        -7.2103900000   -4.5173400000   -5.0784500000
     61  C        -8.6006700000   -4.6043400000   -5.1967000000
     62  N        -9.1925700000   -5.1397700000   -6.3906000000
     63  C        -9.8141400000   -3.2063400000   -1.8647000000
     64  C        -5.1087200000   -3.8640800000   -3.8869700000
     65  C        -9.9723900000   -4.2485600000   -7.2300300000
     66  C       -10.0969800000   -2.8696200000   -6.8870300000
     67  C        -9.5142300000   -7.1623500000   -7.8531100000
     68  C        -8.9749800000   -6.5410800000   -6.6994800000
     69  C        -9.2780200000   -8.5250200000   -8.0966900000
     70  C        -8.5246700000   -9.2918900000   -7.2169500000
     71  C        -8.0012600000   -8.7118600000   -6.0726900000
     72  C        -8.2215800000   -7.3613700000   -5.8087400000
     73  C       -10.6042900000   -4.6791000000   -8.4227300000
     74  C       -11.3373200000   -3.7689200000   -9.2015000000
     75  C       -11.4526100000   -2.4353600000   -8.8298800000
     76  C       -10.8298400000   -1.9858500000   -7.6767600000
     77  H        -5.6138200000    0.3213900000    5.2335100000
     78  H        -1.7340300000   -0.1972100000    3.5088300000
     79  H        -7.3750600000   -1.7715000000    3.1244700000
     80  H        -7.5582300000   -0.1205900000    2.4145600000
     81  H        -7.5703600000   -0.3376000000    4.1849800000
     82  H        -2.5803000000   -2.3306000000    0.8713800000
     83  H        -1.3731200000   -1.1777700000    1.4834100000
     84  C        -2.5544500000   -0.3747700000   -0.0906900000
     85  H        -4.5427300000    2.4550800000    4.2272600000
     86  H        -5.0413100000    4.7591500000    4.7448100000
     87  H        -4.1159800000    5.8264600000    6.7675400000
     88  H        -2.6601700000    4.5507400000    8.2771600000
     89  H        -2.4183300000   -1.9687000000    5.2615600000
     90  H        -0.9792100000   -3.3926200000    6.5757100000
     91  H         0.1552100000   -2.5269000000    8.5883600000
     92  H        -0.1804700000   -0.1973100000    9.2855400000
     93  H        -4.1200700000   -3.5927600000    2.3897400000
     94  H        -6.2577800000   -5.6512600000   -1.6325500000
     95  H        -8.1059000000   -0.9240300000   -3.0651000000
     96  H        -5.9893700000    1.1222000000    0.9736500000
     97  H        -2.8698800000   -5.5513100000    3.7153300000
     98  H        -1.9488400000   -7.7528000000    4.4909500000
     99  H        -2.3744900000   -9.8336500000    3.1748000000
    100  H        -3.4925100000  -10.9099400000    1.0753900000
    101  H        -4.8640800000  -10.5593400000   -0.9835400000
    102  H        -5.6903200000   -8.2666400000   -1.5814900000
    103  H        -7.3867800000    6.0301700000    0.3364300000
    104  H        -6.5613800000    3.7362200000    0.9307200000
    105  H        -8.7468800000    6.3867900000   -1.7291000000
    106  H        -9.3484200000    1.0369400000   -4.3918700000
    107  H       -10.2673600000    3.2402200000   -5.1649500000
    108  H        -9.8515800000    5.3168400000   -3.8389200000
    109  H       -10.4878100000   -4.2416800000   -4.2512000000
    110  H        -6.5918400000   -4.8524300000   -5.9027000000
    111  H       -10.8649900000   -3.2772600000   -2.2213600000
    112  H        -9.6510600000   -2.1495300000   -1.5807700000
    113  C        -9.7225000000   -4.1089700000   -0.6328900000
    114  H        -4.6405200000   -4.2323000000   -4.8244800000
    115  H        -4.6787000000   -4.4543900000   -3.0571700000
    116  H        -4.8229200000   -2.7984000000   -3.7623500000
    117  H        -9.6238300000   -2.4547000000   -6.0116800000
    118  H        -9.6911700000   -8.9968000000   -8.9799900000
    119  H        -8.3550900000  -10.3415800000   -7.4196400000
    120  H        -7.4234900000   -9.3109300000   -5.3803100000
    121  H        -7.8008400000   -6.9739000000   -4.8950100000
    122  H       -11.8202900000   -4.1016200000  -10.1122800000
    123  H       -12.0195600000   -1.7474400000   -9.4439000000
    124  H       -10.9094500000   -0.9444400000   -7.3916000000
    125  H        -9.9407400000   -5.1606700000   -0.9162300000
    126  H       -10.4722200000   -3.7824900000    0.1182700000
    127  H        -8.7274500000   -4.0687800000   -0.1528500000
    128  H        -1.8109400000   -0.6930400000   -0.8514700000
    129  H        -2.3496900000    0.6820900000    0.1833200000
    130  H        -3.5551900000   -0.4343600000   -0.5558700000
    131  S       -10.5301100000   -6.3386200000   -9.0593100000
    132  S        -1.6655000000    1.9483700000    8.3093400000
   Point Group: c1    Number of degrees of freedom:   390


   Energy is  -3799.275557401


 Attempting to Generate Delocalized Internal Coordinates

390 Hessian modes will be used to form the next step
  Hessian Eigenvalues:
     0.005221    0.005228    0.006031    0.006074    0.006184    0.006329
     0.006465    0.006514    0.006823    0.006984    0.007170    0.007476
     0.007516    0.009022    0.009221    0.010609    0.010868    0.012271
     0.013288    0.013372    0.014076    0.014392    0.014446    0.014926
     0.015009    0.015234    0.015251    0.015336    0.015580    0.015641
     0.016076    0.016652    0.016697    0.016733    0.017150    0.017212
     0.017220    0.018036    0.018080    0.018312    0.018347    0.018682
     0.018743    0.018757    0.018798    0.019506    0.019519    0.019726
     0.019753    0.019755    0.019758    0.019759    0.019767    0.020212
     0.020213    0.020352    0.020353    0.020445    0.020447    0.020467
     0.020469    0.020761    0.020764    0.020863    0.020867    0.020897
     0.020900    0.020909    0.020914    0.021395    0.021403    0.021616
     0.021618    0.021654    0.021656    0.021886    0.021890    0.021896
     0.021903    0.021924    0.021927    0.022131    0.022161    0.022165
     0.022202    0.022230    0.022231    0.022332    0.022339    0.022371
     0.022389    0.022417    0.022432    0.022433    0.022544    0.022769
     0.022780    0.022793    0.022795    0.022855    0.022863    0.023472
     0.023479    0.023708    0.023713    0.023739    0.023741    0.023763
     0.023767    0.023796    0.023798    0.024099    0.024100    0.024146
     0.024149    0.025203    0.025206    0.041231    0.041308    0.055330
     0.055396    0.055913    0.055952    0.058602    0.058603    0.071544
     0.071714    0.073171    0.073271    0.092843    0.093061    0.128514
     0.128630    0.159970    0.159983    0.159984    0.159986    0.159989
     0.159989    0.159991    0.159991    0.159993    0.159993    0.159993
     0.159994    0.159997    0.159997    0.159997    0.159997    0.159998
     0.159998    0.159999    0.159999    0.159999    0.159999    0.159999
     0.159999    0.160000    0.160000    0.160000    0.160000    0.160000
     0.160000    0.160000    0.160000    0.160000    0.160000    0.160000
     0.160000    0.160000    0.160000    0.160000    0.160000    0.160000
     0.160000    0.160000    0.160000    0.160000    0.160000    0.160000
     0.160000    0.219318    0.219369    0.219995    0.219995    0.219997
     0.219997    0.220661    0.220661    0.222295    0.222295    0.225488
     0.225497    0.225900    0.225909    0.231526    0.231804    0.234171
     0.234172    0.234468    0.234482    0.234897    0.234900    0.237864
     0.237865    0.240116    0.240317    0.241510    0.242289    0.244609
     0.244626    0.244833    0.244854    0.246225    0.246783    0.247140
     0.247791    0.249077    0.249077    0.249655    0.249724    0.249737
     0.249737    0.249773    0.249822    0.249836    0.249843    0.249874
     0.249878    0.249888    0.249902    0.249918    0.249933    0.249935
     0.249939    0.249959    0.249972    0.249974    0.249977    0.249982
     0.249986    0.249987    0.249995    0.249996    0.249996    0.249998
     0.249999    0.250000    0.276599    0.276774    0.277317    0.277408
     0.294310    0.294357    0.300038    0.300348    0.310635    0.310936
     0.323894    0.323902    0.325104    0.325115    0.325228    0.325241
     0.325590    0.325614    0.325624    0.325626    0.329061    0.329872
     0.330126    0.330788    0.330899    0.331157    0.341191    0.341242
     0.349065    0.350231    0.355571    0.355580    0.355629    0.355650
     0.355978    0.355990    0.356013    0.356023    0.356627    0.356630
     0.356636    0.356641    0.356728    0.356740    0.356746    0.356781
     0.356995    0.357002    0.357004    0.357005    0.357352    0.357381
     0.357394    0.357409    0.357410    0.357413    0.357415    0.357433
     0.357476    0.357518    0.357583    0.357789    0.362267    0.362385
     0.363092    0.363096    0.367405    0.368071    0.369255    0.370055
     0.371093    0.371750    0.372383    0.387017    0.388032    0.388661
     0.394917    0.395018    0.395494    0.395874    0.398004    0.398505
     0.398601    0.401230    0.401888    0.401947    0.402777    0.402986
     0.403019    0.403512    0.405853    0.406243    0.407198    0.407598
     0.414037    0.414045    0.420939    0.422892    0.429967    0.430068
     0.430086    0.430402    0.432402    0.432416    0.432731    0.432930
     0.434259    0.434278    0.434376    0.434533    0.445380    0.446570
     0.451633    0.451674    0.455617    0.455632    0.456501    0.456501
     0.456516    0.457879    0.459569    0.459595    0.459654    0.459681
     0.462046    0.462337    0.462430    0.462764    0.463974    0.464261
     0.464353    0.464537    0.474671    0.474948    0.476155    0.476226
     0.476719    0.476795    0.488602    0.488648    0.492492    0.492663

 Minimum Search - Taking Simple RFO Step
 Searching for Lamda that Minimizes Along All modes
 Value Taken    Lamda =  -0.07914493
 Calculated Step too Large.  Step scaled by  0.649913
 Step Taken.  Stepsize is  0.300000

                             Maximum     Tolerance    Cnvgd?
         Gradient           0.083887      0.000300      NO
         Displacement       0.125812      0.001200      NO
         Energy change     *********      0.000001      NO


 New Cartesian Coordinates Obtained by Inverse Iteration

 Displacement from previous Coordinates is:  1.968410
 Adding empirical dispersion correction 
 ----------------------------------------------------------------
 Doing -D3(BJ) with
 s6 =   1.00000
 s8 =   0.00000
 a1 =   0.48600
 a2 =   4.50000
 -D3 energy including 3body term =     -0.1318688973 hartrees
 ----------------------------------------------------------------
 Adding gCP correction 
 ----------------------------------------------------------------
 gCP energy =      0.1774351887 hartrees
 ----------------------------------------------------------------
             Standard Nuclear Orientation (Angstroms)
    I     Atom           X                Y                Z
 ----------------------------------------------------------------
    1      C      -4.9982249785    -0.0395836143     4.3837990783
[...]
    114  H        -4.7521122546   -3.4086599058   -4.9741239832
    115  H        -4.5848109541   -3.8918546305   -3.2867572310
    116  H        -5.0531836741   -2.2499051174   -3.6790236753
    117  H        -9.1413150280   -2.4044561088   -5.9350967479
    118  H       -10.0778358265   -8.7528509099   -8.8143900758
    119  H        -8.9383171922  -10.2401124059   -7.2089388889
    120  H        -7.9168290131   -9.2444356263   -5.1647897111
    121  H        -8.0303435820   -6.8503797317   -4.7777594053
    122  H       -11.4147402156   -3.7131434230  -10.0872724964
    123  H       -11.2620192076   -1.3256261791   -9.4805147288
    124  H       -10.0969551358   -0.6934796168   -7.3702019443
    125  H        -9.7410478682   -6.0410344070   -1.2833364373
    126  H       -10.0794056828   -5.1135411850    0.1778780273
    127  H        -8.4181022217   -5.3122744153   -0.3750920259
    128  H        -2.0263893859    0.2320890755   -0.9945345238
    129  H        -2.4130771268    1.3647209370    0.2991338923
    130  H        -3.7005678069    0.4825203689   -0.5216200781
    131  S       -10.5772554690   -6.0546628266   -8.9208590188
    132  S        -1.6154721478    1.5232247450    8.2305779373
   Point Group: c1    Number of degrees of freedom:   390


   Energy is  -3799.345711888

 Hessian Updated using BFGS Update

377 Hessian modes will be used to form the next step
  Hessian Eigenvalues:
     0.001904    0.005226    0.005235    0.006123    0.006482    0.006648
     0.006876    0.007032    0.007422    0.007469    0.007514    0.009018
     0.009221    0.010206    0.010693    0.011711    0.012422    0.012562
     0.013296    0.013374    0.014479    0.014719    0.014982    0.015011
     0.015251    0.015606    0.015620    0.015916    0.016130    0.016510
     0.016684    0.017068    0.017173    0.017185    0.017335    0.018067
     0.018312    0.018347    0.018674    0.018736    0.018756    0.018916
     0.019484    0.019520    0.019735    0.019754    0.019756    0.019758
     0.019760    0.019922    0.020211    0.020213    0.020344    0.020352
     0.020356    0.020445    0.020447    0.020467    0.020469    0.020710
     0.020735    0.020863    0.020887    0.020894    0.020900    0.020912
     0.021072    0.021268    0.021587    0.021618    0.021635    0.021653
     0.021661    0.021879    0.021892    0.021903    0.021922    0.021929
     0.021933    0.022069    0.022153    0.022171    0.022219    0.022224
     0.022239    0.022256    0.022337    0.022356    0.022410    0.022431
     0.022444    0.022552    0.022704    0.022777    0.022778    0.022794
     0.022829    0.022855    0.022864    0.023461    0.023476    0.023709
     0.023720    0.023738    0.023744    0.023765    0.023770    0.023798
     0.023901    0.024099    0.024120    0.024148    0.024309    0.025201
     0.025211    0.027309    0.034343    0.044976    0.045947    0.055442
     0.055553    0.056197    0.056487    0.058681    0.058909    0.071574
     0.071756    0.073190    0.073277    0.093027    0.093376    0.129195
     0.129614    0.153307    0.159699    0.159971    0.159986    0.159987
     0.159988    0.159989    0.159990    0.159991    0.159992    0.159993
     0.159994    0.159995    0.159997    0.159997    0.159998    0.159998
     0.159998    0.159998    0.159999    0.159999    0.159999    0.159999
     0.159999    0.160000    0.160000    0.160000    0.160000    0.160155
     0.160267    0.160360    0.160691    0.160830    0.161624    0.162145
     0.208131    0.219996    0.219998    0.220039    0.220369    0.220663
     0.220675    0.222295    0.222441    0.223836    0.225699    0.225909
     0.226032    0.226422    0.228593    0.231804    0.233487    0.234171
     0.234191    0.235202    0.235459    0.235970    0.237862    0.239200
     0.240136    0.240279    0.240815    0.241998    0.244582    0.244663
     0.245031    0.245284    0.246520    0.246739    0.247435    0.247803
     0.248804    0.249076    0.249099    0.249442    0.249716    0.249738
     0.249758    0.249826    0.249842    0.249874    0.249888    0.249915
     0.249922    0.249930    0.249936    0.249955    0.249968    0.249976
     0.249986    0.249987    0.249990    0.249993    0.249996    0.249998
     0.250800    0.251434    0.252604    0.254824    0.258567    0.276620
     0.277310    0.278923    0.281537    0.285666    0.291432    0.294728
     0.295445    0.303011    0.308399    0.311335    0.312456    0.323908
     0.324097    0.325120    0.325169    0.325246    0.325469    0.325615
     0.325646    0.325656    0.327676    0.329328    0.330098    0.330677
     0.332874    0.333482    0.335990    0.341206    0.341304    0.348109
     0.349141    0.355583    0.355589    0.355651    0.355695    0.355977
     0.355989    0.356017    0.356044    0.356628    0.356632    0.356638
     0.356648    0.356733    0.356743    0.356780    0.356789    0.356969
     0.357000    0.357005    0.357030    0.357247    0.357360    0.357391
     0.357405    0.357411    0.357413    0.357418    0.357426    0.357487
     0.357512    0.357611    0.357811    0.361922    0.362560    0.362798
     0.363144    0.363470    0.367471    0.368401    0.370313    0.372381
     0.374280    0.383427    0.387033    0.388038    0.392223    0.394470
     0.396005    0.396974    0.397465    0.398179    0.398996    0.401474
     0.401893    0.402991    0.403019    0.403716    0.406113    0.406144
     0.406464    0.408990    0.410016    0.411529    0.414038    0.414046
     0.420977    0.423047    0.426684    0.430053    0.430727    0.431571
     0.432382    0.432418    0.432582    0.432762    0.432950    0.433936
     0.434294    0.437926    0.441290    0.446796    0.449571    0.451943
     0.455621    0.456139    0.456517    0.456553    0.457104    0.457734
     0.459597    0.459674    0.459739    0.460108    0.462065    0.462338
     0.462768    0.463567    0.464248    0.464362    0.464639    0.471759
     0.474015    0.474954    0.475576    0.476229    0.476811    0.482547
     0.488583    0.488649    0.492630    0.500846    0.720453

 Minimum Search - Taking Simple RFO Step
 Searching for Lamda that Minimizes Along All modes
 Value Taken    Lamda =  -0.00107427
 Calculated Step too Large.  Step scaled by  0.563126
 Step Taken.  Stepsize is  0.300000

                             Maximum     Tolerance    Cnvgd?
         Gradient           0.002097      0.000300      NO
         Displacement       0.081049      0.001200      NO
         Energy change     -0.000377      0.000001      NO


 New Cartesian Coordinates Obtained by Inverse Iteration

 Displacement from previous Coordinates is:  1.697991
 Adding empirical dispersion correction 
 ----------------------------------------------------------------
 Doing -D3(BJ) with
 s6 =   1.00000
 s8 =   0.00000
 a1 =   0.48600
 a2 =   4.50000
 -D3 energy including 3body term =     -0.1322334427 hartrees
 ----------------------------------------------------------------
 Adding gCP correction 
 ----------------------------------------------------------------
 gCP energy =      0.1776323155 hartrees
 ----------------------------------------------------------------
             Standard Nuclear Orientation (Angstroms)
    I     Atom           X                Y                Z
 ----------------------------------------------------------------
    1      C      -4.9224987546    -0.1933894178     4.4186103924
    2      C      -5.5273645192    -0.6908454278     3.2689513439
    3      C      -4.7794210746    -0.8601533818     2.0934422620
    4      C      -3.4220777239    -0.5092836372     2.0879022131
    5      C      -2.8234500327    -0.0110161608     3.2427989951
    6      C      -3.5815296026     0.1332885712     4.3863197874
    7      N      -2.9464416192     0.5866970295     5.6010903690
    8      C      -6.9775438524    -1.0787716856     3.3004608772
    9      C      -2.5901236370    -0.6692265477     0.8429503679
   10      C      -2.4446360607    -0.3818590882     6.4368934938
   11      C      -1.8005185342    -0.0757007035     7.6529718173
   12      C      -3.4638281470     2.8286169283     4.8939067439
   13      C      -2.9030589482     1.9394745759     5.8310717913
   14      C      -3.4260728332     4.1817992723     5.1072233557
   15      C      -2.8344832715     4.7168240514     6.2568655588
   16      C      -2.2821172396     3.8732474478     7.1868714443
   17      C      -2.3092110606     2.4905945268     6.9855839580
   18      C      -2.5692615985    -1.7421978890     6.0889362754
   19      C      -2.0761018780    -2.7219226207     6.9104406860
   20      C      -1.4358298848    -2.4038187204     8.1131439163
   21      C      -1.3019670607    -1.0882788769     8.4776812737
   22      C      -6.9057050252    -1.3652079344    -1.2793913029
   23      C      -6.3070809917    -0.7130160885    -0.1554307685
   24      B      -5.4698342826    -1.5356507636     0.8260158105
   25      C      -5.3059295630    -3.0472923945     0.6362480633
   26      C      -5.9007806136    -3.6865891368    -0.4976982406
   27      B      -6.7183430230    -2.8747398311    -1.5060665347
   28      C      -4.5777603845    -3.8307713405     1.5545814690
   29      C      -4.4269995300    -5.1837820521     1.3687882117
   30      C      -5.0134732709    -5.8124560306     0.2313822067
   31      C      -5.7310680354    -5.0698887819    -0.6746747624
   32      C      -7.6803359197    -0.6112677222    -2.1742769930
   33      C      -7.8743701286     0.7339906649    -1.9765130417
   34      C      -7.2845199658     1.3927502136    -0.8599739417
   35      C      -6.5155777527     0.6709978399     0.0237941436
   36      C      -3.0080227044    -6.2487872826     3.3046299922
   37      C      -2.4941177993    -7.4866838193     3.7509373533
   38      C      -2.7014109518    -8.6647547016     3.0700218205
   39      C      -3.4531213746    -8.6639661971     1.8713976132
   40      C      -3.9447853906    -7.4291048308     1.4557835187
   41      C      -3.7441244436    -6.2157362688     2.1454716242
   42      C      -3.7600983979    -9.7729955970     1.0454801914
   43      C      -4.5053162759    -9.5932506004    -0.0975509275
   44      C      -4.9905542996    -8.3284142510    -0.4978156622
   45      C      -4.7081488866    -7.2360575303     0.2868466597
   46      C      -8.0273743070     5.1443141898    -0.5566389467
   47      C      -7.4457889233     3.9188066127    -0.1582651383
   48      C      -7.6754597164     2.8012234425    -0.9208079729
   49      C      -8.4866071985     2.9390342226    -2.0667237565
   50      C      -9.0761462716     4.1283020728    -2.4827437116
   51      C      -8.8180253385     5.2629130798    -1.6771516388
   52      C      -8.6367916531     1.7098270217    -2.7384361100
   53      C      -9.4100241727     1.6661640328    -3.8722983381
   54      C     -10.0188787730     2.8604135916    -4.3168688974
   55      C      -9.8663251731     4.0587009042    -3.6567987630
   56      C      -9.2993296252    -4.4347217894    -3.9562647503
   57      C      -8.7222764053    -3.9385258983    -2.7912754000
   58      C      -7.3757897024    -3.5523917564    -2.7786963117
   59      C      -6.6196991908    -3.7039462486    -3.9530852031
   60      C      -7.2110532044    -4.2049486771    -5.1065203236
   61      C      -8.5503438116    -4.5581315377    -5.1102257276
   62      N      -9.1620216127    -5.0291319668    -6.3100948353
   63      C      -9.5663099595    -3.8699245225    -1.5470942415
   64      C      -5.1698757038    -3.3094224983    -3.9780891235
   65      C      -9.6699414001    -4.0693694999    -7.1898331112
   66      C      -9.5315245825    -2.7095798417    -6.9003292964
   67      C      -9.7545772287    -6.9848771329    -7.6682186212
   68      C      -9.1549170574    -6.4059303042    -6.5432441601
   69      C      -9.7154499161    -8.3566298903    -7.8642487981
   70      C      -9.0951144458    -9.1974480026    -6.9554725995
   71      C      -8.5045260477    -8.6395575029    -5.8378575452
   72      C      -8.5317036454    -7.2682810837    -5.6373040786
   73      C     -10.3232017998    -4.4085828823    -8.3811450128
   74      C     -10.8012082079    -3.4231470474    -9.2311634959
   75      C     -10.6552486321    -2.0794841289    -8.9297646781
   76      C     -10.0161939447    -1.7320994093    -7.7549688346
   77      H      -5.4919398910    -0.0849046526     5.3346233091
   78      H      -1.7692109294     0.2417659614     3.2468523787
   79      H      -7.1055060722    -2.1235433759     3.0126621849
   80      H      -7.5576785896    -0.4893686562     2.5893749600
   81      H      -7.4135197694    -0.9426368420     4.2901360307
   82      H      -2.8795072291    -1.5889080729     0.3316097818
   83      H      -1.5386220334    -0.7878031666     1.1187648643
   84      C      -2.7319023418     0.5103738173    -0.1165547745
   85      H      -3.9266929581     2.4395098103     4.0006387127
   86      H      -3.8628511652     4.8403495260     4.3704047220
   87      H      -2.8128988913     5.7852430605     6.4136689329
   88      H      -1.8212688579     4.2706774074     8.0818761303
   89      H      -3.0585500030    -2.0181611208     5.1686209887
   90      H      -2.1889892743    -3.7559196469     6.6175827989
   91      H      -1.0507023024    -3.1861416313     8.7507211779
   92      H      -0.8107948248    -0.8251011582     9.4055133591
   93      H      -4.1301119977    -3.3593479893     2.4232650479
   94      H      -6.1767964770    -5.5527880197    -1.5393916877
   95      H      -8.1340505194    -1.1041292925    -3.0281700366
   96      H      -6.0617764721     1.1705352088     0.8744483081
   97      H      -2.8123723667    -5.3503245999     3.8769660098
   98      H      -1.9133697726    -7.5089435968     4.6645694806
   99      H      -2.2885239038    -9.5914195319     3.4497764451
  100      H      -3.4091718604   -10.7624621481     1.3121972258
  101      H      -4.7305084887   -10.4519399147    -0.7176632768
  102      H      -5.5714264612    -8.2431769308    -1.4079589760
  103      H      -7.8430552376     6.0234687692     0.0477084311
  104      H      -6.8358737923     3.8809881725     0.7356766144
  105      H      -9.2434747350     6.2233941759    -1.9407942904
  106      H      -9.5641105807     0.7459432224    -4.4231341102
  107      H     -10.6298027296     2.8276004108    -5.2102109211
  108      H     -10.3540418221     4.9486283943    -4.0351425507
  109      H     -10.3463412023    -4.7177395899    -3.9721905842
  110      H      -6.6352762617    -4.3065351261    -6.0197521031
  111      H     -10.6007835106    -3.6401123093    -1.8176006685
  112      H      -9.2289997772    -3.0531053193    -0.9049010402
  113      C      -9.5273920887    -5.1834185770    -0.7695282463
  114      H      -4.7413386285    -3.4293405937    -4.9731677643
  115      H      -4.5825131335    -3.9146001547    -3.2851121855
  116      H      -5.0361806548    -2.2681293123    -3.6783100817
  117      H      -9.0330565363    -2.4044947925    -5.9923731660
  118      H     -10.1865087824    -8.7725853095    -8.7472796251
  119      H      -9.0783581737   -10.2652556861    -7.1252578262
  120      H      -8.0117739030    -9.2660869194    -5.1063052554
  121      H      -8.0570035414    -6.8651738226    -4.7552121029
  122      H     -11.2999648889    -3.7194784438   -10.1465478727
  123      H     -11.0356251287    -1.3259456560    -9.6053841093
  124      H      -9.8816423851    -0.6917959868    -7.4896596052
  125      H      -9.8833665254    -6.0125342047    -1.3834785618
  126      H     -10.1554546309    -5.1329545548     0.1211298082
  127      H      -8.5118621244    -5.4157681980    -0.4492073378
  128      H      -2.0952654140     0.3707362930    -0.9904841609
  129      H      -2.4426717850     1.4485138100     0.3601294262
  130      H      -3.7569809128     0.6125684859    -0.4693472182
  131      S     -10.6208897761    -6.0647251192    -8.8874093486
  132      S      -1.5794738893     1.5333521379     8.2126183545
 ----------------------------------------------------------------
 Nuclear Repulsion Energy = 12478.7927722968 hartrees
 There are      276 alpha and      276 beta electrons
 Nucleus-field energy     =     0.0000000318 hartrees
 Requested basis set is def2-mSVP
 There are 666 shells and 1310 basis functions
 A cutoff of  1.0D-11 yielded  60078 shell pairs
 There are    238888 function pairs (    263085 Cartesian)
 Smallest overlap matrix eigenvalue = 1.94E-04
 Guess MOs from SCF MO coefficient file
 Reading MOs from coefficient file
 Reading MOs from coefficient file
 A restricted hybrid HF-DFT SCF calculation will be
 performed using Pulay DIIS extrapolation
 Exchange:     0.4200 Hartree-Fock + 0.5800 PBEh-3c
 Correlation:  1.0000 PBEh-3c
 Using SG-1 standard quadrature grid
 Dispersion:   Grimme D3
 SCF converges when DIIS error is below 1.0E-08
 Geometry optimization detected.  Setting ReadMinima to 0
 Setting SaveMinima to 0
 using 8 threads for integral computing
 -------------------------------------------------------
 OpenMP Integral computing Module                
 Release: version 1.0, May 2013, Q-Chem Inc. Pittsburgh 
 -------------------------------------------------------
 ---------------------------------------
  Cycle       Energy         DIIS Error
 ---------------------------------------
    1   -3799.3863239572      4.46E-04
    2   -3799.4124326479      3.78E-05
    3   -3799.4130533499      2.46E-05
    4   -3799.4131659249      1.45E-05
    5   -3799.4132145826      5.96E-06
    6   -3799.4132227701      1.59E-06
    7   -3799.4132233005      6.15E-07
    8   -3799.4132233866      2.15E-07
    9   -3799.4132234052      9.41E-08
   10   -3799.4132234171      2.82E-08
   11   -3799.4132234329      1.10E-08
   12   -3799.4132233824      5.77E-09 Convergence criterion met
 ---------------------------------------
 SCF time:  CPU 4454.89 s  wall 1053.95 s
 SCF   energy in the final basis set = -3799.41322338
 Total energy in the final basis set = -3799.41322338
 
 Direct TDDFT/TDA calculation will be performed
 Exchange:     0.4200 Hartree-Fock + 0.5800 PBEh-3c
 Correlation:  1.0000 PBEh-3c
 Using SG-1 standard quadrature grid
 Dispersion:   Grimme D3
 Triplet excitation energies requested
 CIS energy converged when residual is below 10e- 6
 ---------------------------------------------------
 Iter    Rts Conv    Rts Left    Ttl Dev     Max Dev
 ---------------------------------------------------
   1         0           2      0.000013    0.000007
   2         1           1      0.000002    0.000001
   3         2           0      0.000001    0.000001    Roots Converged
 ---------------------------------------------------
 
 ---------------------------------------------------
         TDDFT/TDA Excitation Energies              
 ---------------------------------------------------

 Excited state   1: excitation energy (eV) =    1.8276
 Total energy for state  1:                 -3799.34605893 au
    Multiplicity: Triplet
    Trans. Mom.:  0.0000 X   0.0000 Y   0.0000 Z
    Strength   :     0.0000000000
    D(276) --> V(  1) amplitude =  0.9987

 Excited state   2: excitation energy (eV) =    2.1059
 Total energy for state  2:                 -3799.33583233 au
    Multiplicity: Triplet
    Trans. Mom.:  0.0000 X   0.0000 Y   0.0000 Z
    Strength   :     0.0000000000
    D(275) --> V(  1) amplitude =  0.9983
 
 ---------------------------------------------------
 Calculating Relaxed Density
 ---------------------------------------------------
 Iter    Rts Conv    Rts Left    Ttl Dev     Max Dev
 ---------------------------------------------------
   1         0           2      0.000360    0.000181
   2         0           2      0.000114    0.000057
   3         0           2      0.000053    0.000027
   4         0           2      0.000014    0.000007
   5         0           2      0.000007    0.000003
   6         1           1      0.000001    0.000001
