174
 Final energy is   -3629.18735519937     
N         0.1557908085   -0.0680392308    0.1389147783
C         0.0988652525   -0.2837985473    1.4961319504
C         1.3263658560   -0.1361423056   -0.5811698758
C         2.5347620978   -0.4613564010    0.0619876217
C         3.6832272824   -0.5084360528   -0.7153639594
H         4.6285551399   -0.7610075807   -0.2545999284
C         3.6543006739   -0.2535048835   -2.0768339899
H         4.5693404879   -0.3004968269   -2.6512604542
C         2.4484133732    0.0501426011   -2.7057143391
H         2.4148529694    0.2387416510   -3.7697894588
C         1.2908839600    0.1053279873   -1.9713281872
H         0.3575233186    0.3335803752   -2.4642391115
C         1.2581850513   -0.6528840782    2.2032116511
C         1.1285033314   -0.8951902742    3.5626550492
H         1.9952198765   -1.1959553159    4.1354240018
C        -0.0880335661   -0.7673350333    4.2137549330
H        -0.1514182479   -0.9663247469    5.2747524976
C        -1.2239153054   -0.3793155824    3.5055887130
H        -2.1734387508   -0.2661389332    4.0101113782
C        -1.1379575497   -0.1382882973    2.1577325488
H        -2.0164115940    0.1644762434    1.6072748878
C        -1.0675289021    0.1914697017   -0.5734993307
C        -1.4247692855    1.4908381447   -0.8758997202
H        -0.8031212593    2.3182472937   -0.5524688609
C        -1.8390901463   -0.8837027304   -0.9705010162
H        -1.5366743927   -1.8943128711   -0.7187224996
C        -2.5807727629    1.7234354530   -1.6153753854
C        -2.9939281255   -0.6587478346   -1.7124039607
C        -3.3730656049    0.6495145326   -2.0592751751
C        -3.8346536473   -1.8452949327   -2.1037729272
H        -3.1981965537   -2.7292289987   -2.1997606397
H        -4.2814201058   -1.6776694258   -3.0846169202
C        -2.9092883207    3.1431626779   -1.9926805083
H        -3.9907694718    3.2755792467   -2.0346469736
H        -2.5421651898    3.8212410291   -1.2177061538
C         2.5982354355   -0.8068530829    1.5284049366
C        -4.9408218482   -2.1246074214   -1.0886607301
H        -5.5228283977   -2.9984836766   -1.3824786504
H        -5.6283465465   -1.2821021591   -1.0154694306
H        -4.5304594734   -2.3144936134   -0.0951850568
C        -2.2986373417    3.5295823901   -3.3387877356
H        -2.6715720043    2.8881702162   -4.1369048679
H        -2.5498396235    4.5589780452   -3.5960148107
H        -1.2105243615    3.4450644727   -3.3193541037
C         3.0420592128   -2.2797343164    1.6519762554
H         2.3305785585   -2.9451181151    1.1629526689
H         3.1208826735   -2.5760521964    2.6974383610
H         4.0177741600   -2.4298745994    1.1909935373
C         3.6136427939    0.1206433501    2.2207069878
H         3.3029619699    1.1623265140    2.1469380915
H         3.7169473095   -0.1300675221    3.2754225673
H         4.6003126580    0.0274973894    1.7694722302
B        -4.6257255173    0.9236392151   -2.9971360147
C        -4.4886749894    0.7277393875   -4.5099823846
C        -3.3418511976    0.1716172467   -5.0859935347
H        -2.5294103692   -0.0875712469   -4.4191217902
C        -3.1983704722   -0.0737396974   -6.4464138569
C        -4.2546231002    0.3109864384   -7.3151235748
C        -5.3839907262    0.8954864646   -6.7535199221
H        -6.1947489792    1.2072593611   -7.3990016627
C        -5.5565175325    1.0989722511   -5.3861667494
C        -2.0137636416   -0.7211943307   -6.9990110079
C        -1.8979345238   -0.9116010799   -8.3874675625
C        -0.7395739702   -1.5352017625   -8.8757457455
H        -0.6144933766   -1.6944305151   -9.9373181834
C         0.2597550587   -1.9739781716   -8.0412615676
H         1.1340165510   -2.4575714540   -8.4613108139
C         0.1461303755   -1.8132319176   -6.6573006009
C        -0.9813946889   -1.1892527712   -6.1698252564
H        -1.0703023206   -1.0791049854   -5.0973754627
C        -4.1421105203    0.0838275447   -8.7501931663
C        -5.1837881825    0.4227644325   -9.6309353236
H        -6.0973332246    0.8511852335   -9.2412994384
C        -5.1085128928    0.2202679789  -10.9920483847
C        -3.9356105084   -0.3405034341  -11.5072591993
H        -3.8408231232   -0.5122085835  -12.5731790089
C        -2.9038143320   -0.6881562328  -10.6690059218
H        -2.0220071272   -1.1268488454  -11.1140098104
C        -2.9772507734   -0.4969454890   -9.2806025000
C        -6.2438374681    0.5878933043  -11.9009074534
H        -7.1328646662    0.8744563179  -11.3401235570
H        -5.9776654381    1.4257008344  -12.5492455150
H        -6.5180393856   -0.2440657987  -12.5512257410
C         1.2166639826   -2.3251368603   -5.7394269348
H         1.0028885004   -2.0824245831   -4.6985035728
H         2.1920321570   -1.9023436861   -5.9878971118
H         1.3122161233   -3.4102555017   -5.8100956108
C        -5.9581360424    1.4198921471   -2.4335722475
C        -6.1966201841    1.4952722159   -1.0581474589
H        -5.3895330342    1.1951104554   -0.4015246216
C        -7.3994770262    1.9187477253   -0.5044231226
C        -8.4218621202    2.3717029952   -1.3796945381
C        -8.1984292018    2.2832359267   -2.7494560203
H        -8.9772601951    2.5892358793   -3.4356570028
C        -7.0188087769    1.8031501608   -3.3140620441
C        -9.6610194842    2.9105060927   -0.8360755671
C       -10.6643774298    3.4249789435   -1.6742996133
H       -10.5220436891    3.4178653818   -2.7464492855
C       -11.8410689160    3.9563419246   -1.1935734083
C       -12.0264125204    3.9898554889    0.1925234575
H       -12.9352647979    4.4105629992    0.6067427176
C       -11.0614482582    3.4941339617    1.0363580143
H       -11.2471015954    3.5477171659    2.0998528691
C        -9.8668644422    2.9381077847    0.5536700133
C        -7.6499381492    1.8830968922    0.9309593725
C        -8.8578255050    2.3816502063    1.4496677120
C        -9.0651506396    2.3023248633    2.8349455108
H        -9.9865564354    2.6659334511    3.2674456099
C        -8.1324384412    1.7530119882    3.6816382910
H        -8.3376906081    1.7054259615    4.7447309470
C        -6.9335961142    1.2406639195    3.1765131255
C        -6.7212021383    1.3167986884    1.8176445114
H        -5.8036567258    0.8971927333    1.4277979295
C       -12.8947266690    4.4848225222   -2.1221752457
H       -12.5698338337    4.4465136626   -3.1617922918
H       -13.1447854255    5.5219243069   -1.8929091397
H       -13.8178022878    3.9071465995   -2.0421529399
C        -5.9225599577    0.6131083394    4.0900128821
H        -5.0660797200    0.2335910740    3.5322598185
H        -5.5506780230    1.3289811773    4.8254697312
H        -6.3529214918   -0.2232103523    4.6434673980
B        -6.8637973231    1.6867979652   -4.8362621745
C        -8.0217251632    2.1409020330   -5.8200096474
C        -8.8997196936    1.2001657288   -6.3825595437
C        -9.8782320768    1.6063862986   -7.2826236484
H       -10.5433723016    0.8761787738   -7.7319910299
C       -10.0219591229    2.9414603865   -7.6131722260
C        -9.1820825776    3.8842129046   -7.0487091050
H        -9.2984222869    4.9288519838   -7.3170769360
C        -8.1782062193    3.4925093621   -6.1685951328
N       -11.0163517849    3.3299674954   -8.5546542488
C       -12.3278909612    3.4928151625   -8.1311036740
C       -10.6617394523    3.4474993280   -9.8921824563
C       -11.6241626606    3.7348489815  -10.8667812916
C       -11.2108880589    3.8492158324  -12.1909053348
H       -11.9495712807    4.0668360301  -12.9527878465
C        -9.8926033459    3.6898571410  -12.5768557965
H        -9.6094874853    3.7885156231  -13.6162524315
C        -8.9492867784    3.3978551409  -11.6046014883
H        -7.9086850948    3.2650728864  -11.8715416224
C        -9.3261455019    3.2724719721  -10.2816665256
H        -8.5726146571    3.0392706435   -9.5430752385
C       -13.3494255134    3.7713649502   -9.0470469780
C       -14.6465253613    3.9187482135   -8.5650609471
H       -15.4444327537    4.1276641427   -9.2676850173
C       -14.9612277343    3.8018841435   -7.2231989134
H       -15.9828022073    3.9198867075   -6.8875535063
C       -13.9413823310    3.5289246639   -6.3249313225
H       -14.1520486682    3.4298754363   -5.2674973898
C       -12.6427452228    3.3772328196   -6.7699938806
H       -11.8637167994    3.1608538259   -6.0528163123
C        -8.8533410529   -0.2562609856   -5.9983501532
H        -9.1235138183   -0.8700331085   -6.8622429626
H        -7.8388086709   -0.5472691218   -5.7204991542
C        -7.2204198526    4.5417548111   -5.6702022898
H        -6.8512875254    4.2790306313   -4.6769579120
H        -7.7448241641    5.4950756068   -5.5626754614
C       -13.0995660976    3.9000489358  -10.5413235021
C        -9.8038776615   -0.5665824557   -4.8434919812
H        -9.5399035389    0.0080056656   -3.9552875651
H        -9.7664995775   -1.6242308685   -4.5788979797
H       -10.8349221101   -0.3230158150   -5.1053164942
C        -6.0400517823    4.7179817835   -6.6240284908
H        -5.4807434074    3.7880495832   -6.7277811921
H        -6.3807956824    5.0144973037   -7.6174164088
H        -5.3513427789    5.4831853517   -6.2628701055
C       -13.8964954144    2.8074099596  -11.2766154883
H       -13.5815588986    1.8146113109  -10.9550420972
H       -13.7534395477    2.8723061540  -12.3561558880
H       -14.9661740098    2.9005302601  -11.0838780570
C       -13.5734926146    5.2841710801  -11.0162594976
H       -14.6355861760    5.4291187644  -10.8168705701
H       -13.4299366115    5.4063371232  -12.0902900828
H       -13.0241305971    6.0780362311  -10.5105742569
