mFile = /cm/shared/apps/q-chem/intel/QCHEM_5.1.0_Trunk/bin/mpi/machines
Process 0 of 1 is on ctcp003 - thread support 0
initial socket setup ...start
initial socket setup ...done 
now start server 0 ... 
Q-Chem Developer Version!
                  Welcome to Q-Chem
     A Quantum Leap Into The Future Of Chemistry


 Q-Chem 5.1, Q-Chem, Inc., Pleasanton, CA (2018)

 Yihan Shao,  Zhengting Gan,  E. Epifanovsky,  A. T. B. Gilbert,  M. Wormit,  
 J. Kussmann,  A. W. Lange,  A. Behn,  Jia Deng,  Xintian Feng,  D. Ghosh,  
 M. Goldey,  P. R. Horn,  L. D. Jacobson,  I. Kaliman,  T. Kus,  A. Landau,  
 Jie Liu,  E. I. Proynov,  R. M. Richard,  R. P. Steele,  E. J. Sundstrom,  
 H. L. Woodcock III,  P. M. Zimmerman,  D. Zuev,  B. Albrecht,  E. Alguire,  
 S. A. Baeppler,  D. Barton,  Z. Benda,  Y. A. Bernard,  E. J. Berquist,  
 K. B. Bravaya,  H. Burton,  D. Casanova,  Chun-Min Chang,  Yunqing Chen,  
 A. Chien,  K. D. Closser,  M. P. Coons,  S. Coriani,  S. Dasgupta,  
 A. L. Dempwolff,  M. Diedenhofen,  Hainam Do,  R. G. Edgar,  Po-Tung Fang,  
 S. Faraji,  S. Fatehi,  Qingguo Feng,  K. D. Fenk,  J. Fosso-Tande,  
 Qinghui Ge,  A. Ghysels,  G. Gidofalvi,  J. Gomes,  J. Gonthier,  A. Gunina,  
 D. Hait,  M. W. D. Hanson-Heine,  P. H. P. Harbach,  A. W. Hauser,  
 J. E. Herr,  E. G. Hohenstein,  Z. C. Holden,  Kerwin Hui,  B. C. Huynh,  
 T.-C. Jagau,  Hyunjun Ji,  B. Kaduk,  K. Khistyaev,  Jaehoon Kim,  
 P. Klunzinger,  K. Koh,  D. Kosenkov,  L. Koulias,  T. Kowalczyk,  
 C. M. Krauter,  A. Kunitsa,  Ka Un Lao,  A. Laurent,  K. V. Lawler,  
 Joonho Lee,  D. Lefrancois,  S. Lehtola,  D. S. Levine,  Yi-Pei Li,  
 You-Sheng Lin,  Fenglai Liu,  E. Livshits,  A. Luenser,  P. Manohar,  
 E. Mansoor,  S. F. Manzer,  Shan-Ping Mao,  Yuezhi Mao,  N. Mardirossian,  
 A. V. Marenich,  T. Markovich,  L. A. Martinez-Martinez,  S. A. Maurer,  
 N. J. Mayhall,  S. C. McKenzie,  J.-M. Mewes,  A. F. Morrison,  
 J. W. Mullinax,  K. Nanda,  T. S. Nguyen-Beck,  R. Olivares-Amaya,  
 J. A. Parkhill,  T. M. Perrine,  F. Plasser,  P. Pokhilko,  S. Prager,  
 A. Prociuk,  E. Ramos,  D. R. Rehn,  F. Rob,  M. Schneider,  N. Sergueev,  
 S. M. Sharada,  S. Sharma,  D. W. Small,  T. Stauch,  T. Stein,  
 Yu-Chuan Su,  A. J. W. Thom,  A. Tkatchenko,  T. Tsuchimochi,  N. M. Tubman,  
 L. Vogt,  M. L. Vidal,  O. Vydrov,  M. A. Watson,  J. Wenzel,  
 M. de Wergifosse,  T. A. Wesolowski,  A. White,  J. Witte,  A. Yamada,  
 Jun Yang,  K. Yao,  S. Yeganeh,  S. R. Yost,  Zhi-Qiang You,  A. Zech,  
 Igor Ying Zhang,  Xing Zhang,  Yan Zhao,  Ying Zhu,  B. R. Brooks,  
 G. K. L. Chan,  C. J. Cramer,  M. S. Gordon,  W. J. Hehre,  A. Klamt,  
 M. W. Schmidt,  C. D. Sherrill,  D. G. Truhlar,  A. Aspuru-Guzik,  R. Baer,  
 A. T. Bell,  N. A. Besley,  Jeng-Da Chai,  A. E. DePrince, III,  
 R. A. DiStasio Jr.,  A. Dreuw,  B. D. Dunietz,  T. R. Furlani,  
 Chao-Ping Hsu,  Yousung Jung,  Jing Kong,  D. S. Lambrecht,  WanZhen Liang,  
 C. Ochsenfeld,  V. A. Rassolov,  L. V. Slipchenko,  J. E. Subotnik,  
 T. Van Voorhis,  J. M. Herbert,  A. I. Krylov,  P. M. W. Gill,  M. Head-Gordon

 Contributors to earlier versions of Q-Chem not listed above: 
 R. D. Adamson,  B. Austin,  J. Baker,  G. J. O. Beran,  K. Brandhorst,  
 S. T. Brown,  E. F. C. Byrd,  A. K. Chakraborty,  C.-L. Cheng,  
 Siu Hung Chien,  D. M. Chipman,  D. L. Crittenden,  H. Dachsel,  
 R. J. Doerksen,  A. D. Dutoi,  L. Fusti-Molnar,  W. A. Goddard III,  
 A. Golubeva-Zadorozhnaya,  S. R. Gwaltney,  G. Hawkins,  A. Heyden,  
 S. Hirata,  G. Kedziora,  F. J. Keil,  C. Kelley,  Jihan Kim,  R. A. King,  
 R. Z. Khaliullin,  P. P. Korambath,  W. Kurlancheek,  A. M. Lee,  M. S. Lee,  
 S. V. Levchenko,  Ching Yeh Lin,  D. Liotard,  R. C. Lochan,  I. Lotan,  
 P. E. Maslen,  N. Nair,  D. P. O'Neill,  D. Neuhauser,  E. Neuscamman,  
 C. M. Oana,  R. Olson,  B. Peters,  R. Peverati,  P. A. Pieniazek,  
 Y. M. Rhee,  J. Ritchie,  M. A. Rohrdanz,  E. Rosta,  N. J. Russ,  
 H. F. Schaefer III,  N. E. Schultz,  N. Shenvi,  A. C. Simmonett,  A. Sodt,  
 D. Stuck,  K. S. Thanthiriwatte,  V. Vanovschi,  Tao Wang,  A. Warshel,  
 C. F. Williams,  Q. Wu,  X. Xu,  W. Zhang

 Please cite Q-Chem as follows:
 Y. Shao et al., Mol. Phys. 113, 184-215 (2015)
 DOI: 10.1080/00268976.2014.952696

 Q-Chem 5.1.1 for Intel X86 EM64T Linux

 Parts of Q-Chem use Armadillo 8.300.2 (Tropical Shenanigans).
 http://arma.sourceforge.net/

 Q-Chem begins on Sat Dec  1 12:52:29 2018  

Host: ctcp003
0

     Scratch files written to /scratch/mewes/141030/qchem120278//
 Parallel job on  1  processors
The previous job contains 0 fragments, simply inherited here
Symmetry turned off for PCM/SM12/SMD calculation
Input Ideriv = 2
Curr. Ideriv = -1
Max.  Ideriv = 2
Input Ideriv = 2
Curr. Ideriv = 2
Max.  Ideriv = 2

Checking the input file for inconsistencies... 	...done.

--------------------------------------------------------------
User input:
--------------------------------------------------------------
$rem
threads 8
jobtype opt
method PBEh-3c
basis def2-mSVP
mem_static      1024
mem_total       8000
sym_ignore      true
unrestricted true
scf_algorithm   diis
scf_max_cycles  250
solvent_method  pcm
geom_opt_tol_energy 25
geom_opt_tol_gradient 75
$end

$pcm
theory  iefpcm
HPoints 194
HeavyPoints 194
$end

$solvent
dielectric      2.03
$end

$molecule
read uincoords.mol
$end

--------------------------------------------------------------
 Adding empirical dispersion correction 
 ----------------------------------------------------------------
 Doing -D3(BJ) with
 s6 =   1.00000
 s8 =   0.00000
 a1 =   0.48600
 a2 =   4.50000
 -D3 energy including 3body term =     -0.1736813479 hartrees
 ----------------------------------------------------------------
 Adding gCP correction 
 ----------------------------------------------------------------
 gCP energy =      0.2380264576 hartrees
 ----------------------------------------------------------------
             Standard Nuclear Orientation (Angstroms)
    I     Atom           X                Y                Z
 ----------------------------------------------------------------
    1      N       0.0000000000     0.0000000000     0.0000000000
    2      C       0.0000000000     0.0000000000     1.3898880000
    3      C       1.1824133105     0.0000000000    -0.7319004359
    4      C       2.4220422322    -0.0558160957    -0.0865068960
    5      C       3.5735767662    -0.0572642716    -0.8675330300
    6      H       4.5380737417    -0.1062589292    -0.3772216716
    7      C       3.5392408355     0.0022779007    -2.2479248989
    8      H       4.4574557028     0.0048132476    -2.8193285552
    9      C       2.3066422034     0.0610048060    -2.8764066201
   10      H       2.2416366791     0.1155164709    -3.9554046089
   11      C       1.1435021536     0.0533041830    -2.1317796504
   12      H       0.1948927037     0.0976586866    -2.6467651616
   13      C       1.2018761969    -0.0586361527     2.1038687255
   14      C       1.1433756662    -0.0677658226     3.4932326906
   15      H       2.0684379149    -0.1201655962     4.0541230970
   16      C      -0.0497361700    -0.0161732416     4.1892401304
   17      H      -0.0540074353    -0.0276554380     5.2705857355
   18      C      -1.2323875093     0.0509656731     3.4715989555
   19      H      -2.1835665425     0.0945027777     3.9866540983
   20      C      -1.2105648365     0.0608274924     2.0908256077
   21      H      -2.1448664551     0.1141497501     1.5504248308
   22      C      -1.2360183662     0.0541015485    -0.6985221697
   23      C      -1.7251516382     1.2720190037    -1.1346831729
   24      H      -1.1622723030     2.1739692296    -0.9194421500
   25      C      -1.9385045357    -1.1079541426    -0.9679313141
   26      H      -1.5444435320    -2.0563568299    -0.6196722030
   27      C      -2.9027342183     1.3401471817    -1.8667379594
   28      C      -3.1342429037    -1.0605160147    -1.6755890467
   29      C      -3.6234276958     0.1684467768    -2.1383950275
   30      C      -3.9103350418    -2.3327688196    -1.8845758202
   31      H      -3.2175641266    -3.1675649032    -2.0176896378
   32      H      -4.4936912128    -2.2784066797    -2.8080272471
   33      C      -3.3222645887     2.6791064365    -2.4178874557
   34      H      -4.3904908059     2.6896566005    -2.6462842249
   35      H      -3.1784301731     3.4484156244    -1.6543798100
   36      C       2.5603079385    -0.1204880305     1.4244946018
   37      C      -4.8403313910    -2.6286006046    -0.7097844196
   38      H      -5.3828892228    -3.5618978118    -0.8619985811
   39      H      -5.5767991202    -1.8350904549    -0.5806567837
   40      H      -4.2794266336    -2.7148952140     0.2216159703
   41      C      -2.5305378188     3.0531607685    -3.6698497716
   42      H      -2.6766342202     2.3210593840    -4.4646571749
   43      H      -2.8412632979     4.0257640435    -4.0528900742
   44      H      -1.4615216650     3.1037342186    -3.4595516767
   45      C       3.2545781393    -1.4394534643     1.8074868959
   46      H       2.6705381900    -2.2975291183     1.4756084307
   47      H       3.3852292932    -1.5202766218     2.8875473210
   48      H       4.2440678824    -1.5118130377     1.3537578535
   49      C       3.4172105275     1.0654127991     1.9018346813
   50      H       2.9539344054     2.0139699696     1.6318197448
   51      H       3.5492042915     1.0523723815     2.9841547946
   52      H       4.4134076101     1.0410930935     1.4590586717
   53      B      -4.9245286881     0.2849255869    -3.0133135131
   54      C      -4.8408749357     0.0590341319    -4.5440400368
   55      C      -3.6673735416    -0.3775019340    -5.1230635442
   56      H      -2.8365719838    -0.5935878513    -4.4657324064
   57      C      -3.4998898763    -0.5123313697    -6.5083468156
   58      C      -4.5730678197    -0.1609790506    -7.3478079983
   59      C      -5.7589346916     0.2989783981    -6.7526628587
   60      H      -6.5770916656     0.6198801864    -7.3821534630
   61      C      -5.9262278623     0.4049457456    -5.3849084434
   62      C      -2.2359265868    -0.9551359305    -7.0741279856
   63      C      -2.0717813355    -0.9825489780    -8.4685151648
   64      C      -0.8244580369    -1.3794031506    -8.9775706140
   65      H      -0.6529094165    -1.4063118161   -10.0436643692
   66      C       0.2093123376    -1.7450538549    -8.1540382927
   67      H       1.1563717614    -2.0448524564    -8.5871020869
   68      C       0.0538258026    -1.7405383042    -6.7631665675
   69      C      -1.1621447026    -1.3449119510    -6.2549109158
   70      H      -1.2758551436    -1.3475971144    -5.1795545276
   71      C      -4.4172768216    -0.2368135386    -8.7921855101
   72      C      -5.4766959162     0.0753509405    -9.6600197372
   73      H      -6.4404223005     0.3522030747    -9.2547095455
   74      C      -5.3492225751     0.0372946297   -11.0299153756
   75      C      -4.1056427520    -0.3235007374   -11.5606283738
   76      H      -3.9689795393    -0.3562961449   -12.6350230387
   77      C      -3.0564356095    -0.6428287086   -10.7370955760
   78      H      -2.1188784094    -0.9204947471   -11.1963099292
   79      C      -3.1792360878    -0.6175291901    -9.3390986538
   80      C      -6.4992480910     0.3588739422   -11.9353782340
   81      H      -7.3759409567     0.6890945722   -11.3796891982
   82      H      -6.2406101085     1.1497327350   -12.6413643526
   83      H      -6.7914672622    -0.5121643593   -12.5246117018
   84      C       1.1815148321    -2.1630068338    -5.8697310172
   85      H       0.9357143345    -2.0410630150    -4.8154241317
   86      H       2.0837586030    -1.5814570513    -6.0671033246
   87      H       1.4382044033    -3.2121120223    -6.0271623151
   88      C      -6.2680488495     0.7528657895    -2.3978221199
   89      C      -6.3838846066     0.9476014085    -1.0379313702
   90      H      -5.5190284302     0.7180627872    -0.4314113395
   91      C      -7.5431135533     1.4538697368    -0.4321222496
   92      C      -8.6470954621     1.7544604266    -1.2505031030
   93      C      -8.5175351170     1.5670013414    -2.6376617394
   94      H      -9.3353501430     1.8379462484    -3.2910767526
   95      C      -7.3655458677     1.0862586282    -3.2291634356
   96      C      -9.8646549790     2.2824564497    -0.6570813622
   97      C     -10.9930123201     2.5685458247    -1.4417101208
   98      H     -10.9662205815     2.3845238290    -2.5066535499
   99      C     -12.1538881026     3.0826798117    -0.9124628379
  100      C     -12.1943601730     3.3196346481     0.4662608635
  101      H     -13.0929893267     3.7241389492     0.9165063358
  102      C     -11.1075310821     3.0460600674     1.2574905343
  103      H     -11.1890659769     3.2450085464     2.3161466049
  104      C      -9.9177495656     2.5244656881     0.7265539908
  105      C      -7.5959138910     1.7079214275     0.9983205155
  106      C      -8.7623059190     2.2448286784     1.5658367860
  107      C      -8.7626557223     2.5063902712     2.9456533949
  108      H      -9.6371949783     2.9255730498     3.4210283738
  109      C      -7.6669125607     2.2536839924     3.7311962187
  110      H      -7.7069385881     2.4766817503     4.7907739699
  111      C      -6.4978636597     1.7200472061     3.1775904041
  112      C      -6.4893144305     1.4579675387     1.8271508102
  113      H      -5.5780790089     1.0553507974     1.4066459530
  114      C     -13.3427963336     3.3804333787    -1.7752996021
  115      H     -13.1275091962     3.2042093996    -2.8288438457
  116      H     -13.6571715278     4.4200225379    -1.6722851616
  117      H     -14.1956175457     2.7559783132    -1.5040341207
  118      C      -5.2986769441     1.4442109626     4.0347308486
  119      H      -4.4302782374     1.1750554021     3.4338014950
  120      H      -5.0260175307     2.3152607082     4.6320545809
  121      H      -5.4881981803     0.6229117027     4.7284897038
  122      B      -7.2205973434     1.0073781387    -4.7726086145
  123      C      -8.2849402736     1.6414502383    -5.7327701696
  124      C      -9.1749475226     0.8487125096    -6.4700113117
  125      C     -10.0170768757     1.4410040327    -7.4047450723
  126      H     -10.6990374955     0.8355368998    -7.9905538899
  127      C      -9.9850728902     2.8104368595    -7.6027882802
  128      C      -9.1289565664     3.5997217099    -6.8547166517
  129      H      -9.1206062754     4.6713887036    -7.0212284606
  130      C      -8.2694640071     3.0318443362    -5.9242472872
  131      N     -10.8080416586     3.4130858561    -8.5877343679
  132      C     -12.0749474781     3.8567896810    -8.2300444371
  133      C     -10.2559137579     3.6940583506    -9.8318283982
  134      C     -11.0217914674     4.3106086895   -10.8253053658
  135      C     -10.4186176201     4.5596055385   -12.0545880933
  136      H     -11.0013053010     5.0232449596   -12.8408016898
  137      C      -9.0990262815     4.2400048551   -12.3184415767
  138      H      -8.6665363090     4.4579253545   -13.2854332441
  139      C      -8.3479228271     3.6414233959   -11.3207578855
  140      H      -7.3087865781     3.3883364244   -11.4879894942
  141      C      -8.9187119855     3.3646087162   -10.0946266543
  142      H      -8.3102700833     2.9011059684    -9.3308534295
  143      C     -12.9043587541     4.4738702698    -9.1713662408
  144      C     -14.1681895766     4.8818139879    -8.7587001384
  145      H     -14.8289411393     5.3481785290    -9.4786263137
  146      C     -14.6191006147     4.7141443262    -7.4617554040
  147      H     -15.6086249558     5.0470741476    -7.1803067806
  148      C     -13.7795181218     4.1164427505    -6.5365159841
  149      H     -14.0996249009     3.9784935134    -5.5115439248
  150      C     -12.5221042464     3.6909567142    -6.9139725566
  151      H     -11.8782128983     3.2304513853    -6.1782336193
  152      C      -9.2619227901    -0.6351875613    -6.2273419935
  153      H      -9.6411351870    -1.1314099798    -7.1238028502
  154      H      -8.2659002643    -1.0520896638    -6.0536993140
  155      C      -7.2878483852     3.9279590924    -5.2087945856
  156      H      -7.0964237865     3.5651573627    -4.1966180657
  157      H      -7.7330639099     4.9184455132    -5.0866532196
  158      C     -12.4784976245     4.6878736891   -10.6154798485
  159      C     -10.1631390199    -0.9745509727    -5.0414597961
  160      H      -9.7770207070    -0.5499960867    -4.1145213302
  161      H     -10.2355399305    -2.0534999264    -4.9024623234
  162      H     -11.1713809558    -0.5869198869    -5.1908788898
  163      C      -5.9614055550     4.0660077228    -5.9560319699
  164      H      -5.4524289432     3.1071745323    -6.0529320180
  165      H      -6.1132575583     4.4623504109    -6.9604839303
  166      H      -5.2896632569     4.7436733037    -5.4275745848
  167      C     -13.3490403183     3.8062220003   -11.5251318658
  168      H     -13.2171873246     2.7519756556   -11.2816940035
  169      H     -13.0848288930     3.9434651910   -12.5747824604
  170      H     -14.4075857007     4.0461456209   -11.4140901920
  171      C     -12.6693935627     6.1687601173   -10.9839106850
  172      H     -13.7038008944     6.4855688062   -10.8541245030
  173      H     -12.4102434558     6.3583008347   -12.0253233535
  174      H     -12.0420043778     6.8061423502   -10.3611524708
 ----------------------------------------------------------------
 Nuclear Repulsion Energy = 16380.1979424751 hartrees
 There are      323 alpha and      321 beta electrons
 Requested basis set is def2-mSVP
 There are 818 shells and 1570 basis functions

 Total QAlloc Memory Limit   8000 MB
 Mega-Array Size      1001 MB
 MEM_STATIC part      1024 MB
 Discretize the solute cavity surface with Lebedev spheres
	Using 194 Lebedev grid points for each H atom
	Using 194 Lebedev grid points for other atoms
	Atomic van der Waals radii will be scaled by 1.20
 Remove points where switching function is < 1.0e-08
 Keep 12461 surface tesserae and discard 21295 interior tesserae
 Molecular Surface Area = 1248.023 Angst**2
 A cutoff of  1.0D-11 yielded  83161 shell pairs
 There are    318181 function pairs (    349115 Cartesian)
 
 -------------------------------------------------------
 OpenMP Integral Computing Module                       
 Release: version 1.0, May 2013, Q-Chem Inc. Pittsburgh 
 -------------------------------------------------------
 Integral Job Info:
 Integral job number is                      11
 Integral operator is                         1
 short-range coefficients                     0
 long-range coefficients              100000000
 Omega coefficients                           0
 if combine SR and LR in K                    0
 Integral screening is                        0
 Integral computing path is                   2
 max size of driver memory is            800000
 size of driver memory is                593474
 size of scratch memory is              1809772
 max col of scratch BK array               1296
 max len of scratch array in speh3          155
 max len of scratch index in speh4           18
 max int batch size is                      520
 min int batch size is                       52
 fixed nKL is                                52
 max L of basis functions is                  2
 order of int derivative is                   0
 number of shells is                        818
 number of basis is                        1664
 number of cartesian basis is              1664
 number of contracted shell pairs         83161
 number of primitive shell pairs         169542
 maxK2 (contraction) of shell pair           25
 max number of K2 of shell pair               1
 max number of CS2 of shell pair          20858
 max number of PS2 of shell pair          29175
 mem total for path MDJ                 1325292
 -------------------------------------------------------
 Smallest overlap matrix eigenvalue = 1.14E-04

 Scale SEOQF with 1.000000e-02/1.000000e-02/1.000000e-02

 Standard Electronic Orientation quadrupole field applied
 Nucleus-field energy     =    -0.0000001105 hartrees
 Guess from superposition of atomic densities
 Warning:  Energy on first SCF cycle will be non-variational
 SAD guess density has 644.000001 electrons

 -----------------------------------------------------------------------
  General SCF calculation program by
  Eric Jon Sundstrom, Paul Horn, Yuezhi Mao, Dmitri Zuev, Alec White,
  David Stuck, Shaama M.S., Shane Yost, Joonho Lee, David Small,
  Daniel Levine, Susi Lehtola, Hugh Burton, Evgeny Epifanovsky
 -----------------------------------------------------------------------
 Exchange:     0.4200 Hartree-Fock + 0.5800 PBEh-3c
 Correlation:  1.0000 PBEh-3c
 Using SG-1 standard quadrature grid
 Dispersion:   Grimme D3
 using 8 threads for integral computing
 -------------------------------------------------------
 OpenMP Integral computing Module                
 Release: version 2.0, May 2017, Q-Chem Inc. Pleasanton 
 -------------------------------------------------------
 -------------------------------------------------------
 OpenMP BLAS3 based DFT computing Module                
 Release: version 1.0, May 2013, Q-Chem Inc. Pittsburgh 
 -------------------------------------------------------
 A unrestricted SCF calculation will be
 performed using DIIS
 SCF converges when DIIS error is below 1.0e-08
 ---------------------------------------
  Cycle       Energy         DIIS error
 ---------------------------------------
 Using non-symmetric K matrix
    1   -3660.1108744729      1.07e-02  
    2   -3628.2722255147      7.93e-04  
    3   -3627.5402808910      1.02e-03  
    4   -3628.8423878421      4.63e-04  
    5   -3629.1592599409      8.21e-05  
    6   -3629.1672981515      5.97e-05  
    7   -3629.1721333665      1.68e-05  
    8   -3629.1726192955      9.07e-06  
    9   -3629.1728664756      4.44e-06  
   10   -3629.1729701383      3.02e-06  
   11   -3629.1730366807      1.56e-06  
   12   -3629.1730622824      1.24e-06  
   13   -3629.1730753420      7.10e-07  
   14   -3629.1730819463      5.17e-07  
   15   -3629.1730841948      2.87e-07  
   16   -3629.1730853162      2.07e-07  
   17   -3629.1730858566      1.58e-07  
   18   -3629.1730863988      1.10e-07  
   19   -3629.1730865997      6.63e-08  
   20   -3629.1730866789      3.24e-08  
   21   -3629.1730866886      2.07e-08  
   22   -3629.1730866916      9.67e-09  Convergence criterion met
 ---------------------------------------
 SCF time:   CPU 59118.07s  wall 8021.00s 
<S^2> =          2.074674729

************** Final PCM Free Energy Summary **************
 G_electrostatic  =      -0.02941598 hartree =     -18.45880540 kcal/mol
 G_cavitation     =       0.00000000 hartree =       0.00000000 kcal/mol
 G_dispersion     =       0.00000000 hartree =       0.00000000 kcal/mol
 G_repulsion      =       0.00000000 hartree =       0.00000000 kcal/mol
 --------------------------------------------------
 Non-electrostatic Free Energy =       0.00000000 hartree =       0.00000000 kcal/mol
 Total                         =      -0.02941598 hartree =     -18.45880540 kcal/mol
 --------------------------------------------------
 SCF Energy (H0 + V/2)                       =   -3629.17308669 
 Solute Internal Energy (H0)                 =   -3629.14367071 
 Total Free Energy (H0 + V/2 + non-elec)     =   -3629.17308669 hartree
                                             = -2277340.48379726 kcal/mol
***********************************************************

 SCF   energy in the final basis set =    -3629.1730866916
 Total energy in the final basis set =    -3629.1730866916
 
 --------------------------------------------------------------
 
                    Orbital Energies (a.u.)
 --------------------------------------------------------------
 
 Alpha MOs
 -- Occupied --
-14.804 -14.659 -10.559 -10.559 -10.523 -10.523 -10.522 -10.513
-10.505 -10.503 -10.503 -10.502 -10.496 -10.496 -10.494 -10.493
-10.478 -10.477 -10.469 -10.468 -10.466 -10.465 -10.462 -10.461
-10.460 -10.456 -10.449 -10.448 -10.446 -10.446 -10.445 -10.445
-10.442 -10.442 -10.442 -10.442 -10.441 -10.440 -10.437 -10.437
-10.437 -10.437 -10.435 -10.435 -10.434 -10.434 -10.434 -10.433
-10.433 -10.433 -10.433 -10.433 -10.432 -10.431 -10.431 -10.431
-10.431 -10.430 -10.430 -10.430 -10.429 -10.429 -10.429 -10.428
-10.428 -10.425 -10.425 -10.424 -10.424 -10.423 -10.423 -10.421
-10.420 -10.419 -10.418 -10.417 -10.416 -10.416 -10.416 -10.416
-10.415 -10.414 -10.413 -10.412 -10.411 -10.400 -10.400 -10.399
-10.391 -10.391 -10.389 -10.389  -6.887  -6.886  -1.181  -1.072
 -1.027  -1.023  -0.978  -0.978  -0.977  -0.966  -0.954  -0.945
 -0.945  -0.945  -0.932  -0.928  -0.926  -0.917  -0.898  -0.896
 -0.896  -0.895  -0.886  -0.885  -0.873  -0.868  -0.856  -0.855
 -0.854  -0.851  -0.846  -0.846  -0.836  -0.836  -0.835  -0.822
 -0.819  -0.813  -0.812  -0.803  -0.802  -0.795  -0.793  -0.791
 -0.784  -0.784  -0.783  -0.781  -0.775  -0.775  -0.770  -0.758
 -0.741  -0.741  -0.737  -0.728  -0.725  -0.708  -0.706  -0.704
 -0.696  -0.694  -0.693  -0.692  -0.684  -0.683  -0.680  -0.678
 -0.672  -0.670  -0.667  -0.662  -0.656  -0.648  -0.646  -0.644
 -0.643  -0.631  -0.623  -0.621  -0.612  -0.603  -0.602  -0.601
 -0.598  -0.593  -0.591  -0.589  -0.588  -0.587  -0.580  -0.579
 -0.567  -0.563  -0.550  -0.549  -0.547  -0.545  -0.545  -0.541
 -0.536  -0.535  -0.531  -0.529  -0.526  -0.524  -0.522  -0.522
 -0.515  -0.514  -0.513  -0.511  -0.510  -0.508  -0.503  -0.502
 -0.501  -0.497  -0.494  -0.494  -0.490  -0.488  -0.485  -0.484
 -0.483  -0.481  -0.480  -0.479  -0.477  -0.476  -0.473  -0.472
 -0.472  -0.471  -0.470  -0.469  -0.468  -0.467  -0.467  -0.466
 -0.465  -0.464  -0.464  -0.458  -0.456  -0.456  -0.455  -0.453
 -0.452  -0.451  -0.449  -0.449  -0.446  -0.445  -0.441  -0.440
 -0.439  -0.436  -0.435  -0.432  -0.431  -0.429  -0.428  -0.426
 -0.424  -0.423  -0.421  -0.419  -0.415  -0.414  -0.414  -0.411
 -0.408  -0.407  -0.406  -0.405  -0.402  -0.400  -0.399  -0.398
 -0.395  -0.394  -0.393  -0.393  -0.393  -0.391  -0.386  -0.385
 -0.384  -0.383  -0.377  -0.372  -0.370  -0.370  -0.369  -0.367
 -0.364  -0.361  -0.359  -0.358  -0.357  -0.352  -0.347  -0.346
 -0.339  -0.336  -0.333  -0.328  -0.314  -0.311  -0.309  -0.308
 -0.308  -0.307  -0.306  -0.300  -0.294  -0.284  -0.284  -0.275
 -0.270  -0.265  -0.258  -0.256  -0.253  -0.249  -0.237  -0.230
 -0.229  -0.207  -0.124
 -- Virtual --
 -0.048  -0.043  -0.031  -0.029  -0.008  -0.006  -0.001  -0.000
  0.002   0.008   0.013   0.022   0.024   0.026   0.033   0.037
  0.052   0.053   0.070   0.073   0.076   0.078   0.085   0.093
  0.102   0.106   0.107   0.125   0.127   0.131   0.134   0.136
  0.138   0.139   0.141   0.144   0.150   0.151   0.153   0.156
  0.160   0.160   0.162   0.167   0.168   0.169   0.171   0.172
  0.173   0.180   0.181   0.182   0.183   0.185   0.187   0.189
  0.189   0.191   0.191   0.192   0.194   0.196   0.197   0.198
  0.199   0.202   0.203   0.204   0.205   0.205   0.208   0.210
  0.211   0.213   0.214   0.214   0.216   0.217   0.218   0.220
  0.220   0.223   0.223   0.225   0.226   0.228   0.229   0.230
  0.230   0.232   0.234   0.235   0.235   0.238   0.238   0.239
  0.241   0.244   0.244   0.246   0.247   0.248   0.250   0.252
  0.253   0.253   0.255   0.256   0.257   0.258   0.260   0.261
  0.263   0.263   0.265   0.265   0.268   0.269   0.271   0.273
  0.276   0.277   0.277   0.280   0.282   0.284   0.285   0.286
  0.288   0.292   0.292   0.296   0.297   0.301   0.302   0.303
  0.303   0.307   0.309   0.310   0.311   0.312   0.314   0.316
  0.316   0.317   0.320   0.320   0.324   0.325   0.329   0.332
  0.333   0.333   0.334   0.339   0.340   0.343   0.346   0.348
  0.349   0.352   0.358   0.358   0.359   0.364   0.368   0.369
  0.374   0.378   0.379   0.383   0.385   0.389   0.391   0.392
  0.394   0.395   0.396   0.405   0.407   0.407   0.412   0.413
  0.421   0.423   0.426   0.428   0.431   0.437   0.442   0.447
  0.447   0.451   0.454   0.456   0.458   0.460   0.461   0.464
  0.466   0.467   0.474   0.475   0.480   0.483   0.485   0.488
  0.491   0.493   0.494   0.497   0.499   0.500   0.502   0.504
  0.506   0.507   0.508   0.509   0.510   0.514   0.515   0.516
  0.517   0.518   0.521   0.521   0.524   0.524   0.524   0.527
  0.528   0.529   0.530   0.532   0.533   0.536   0.536   0.537
  0.539   0.542   0.543   0.545   0.548   0.551   0.554   0.557
  0.558   0.559   0.560   0.562   0.564   0.565   0.566   0.567
  0.567   0.568   0.569   0.571   0.572   0.573   0.575   0.575
  0.576   0.576   0.578   0.580   0.580   0.582   0.583   0.585
  0.586   0.587   0.591   0.591   0.593   0.595   0.595   0.597
  0.602   0.603   0.605   0.607   0.607   0.610   0.611   0.613
  0.615   0.617   0.618   0.619   0.620   0.621   0.623   0.623
  0.624   0.625   0.626   0.628   0.629   0.630   0.632   0.633
  0.634   0.635   0.636   0.637   0.639   0.641   0.643   0.645
  0.645   0.647   0.647   0.648   0.648   0.651   0.652   0.654
  0.655   0.657   0.661   0.662   0.664   0.664   0.666   0.667
  0.669   0.672   0.676   0.677   0.681   0.681   0.682   0.686
  0.689   0.691   0.691   0.694   0.695   0.697   0.701   0.701
  0.706   0.707   0.708   0.712   0.714   0.716   0.717   0.718
  0.722   0.723   0.725   0.726   0.728   0.729   0.732   0.733
  0.736   0.738   0.741   0.742   0.746   0.749   0.753   0.755
  0.758   0.760   0.761   0.761   0.763   0.764   0.769   0.770
  0.772   0.774   0.776   0.777   0.778   0.779   0.782   0.785
  0.786   0.789   0.789   0.792   0.793   0.795   0.799   0.801
  0.802   0.803   0.806   0.807   0.809   0.812   0.814   0.816
  0.820   0.821   0.823   0.824   0.826   0.830   0.831   0.833
  0.835   0.839   0.843   0.846   0.846   0.850   0.853   0.857
  0.859   0.861   0.865   0.869   0.874   0.877   0.879   0.884
  0.889   0.890   0.891   0.898   0.904   0.911   0.912   0.914
  0.917   0.920   0.922   0.926   0.928   0.932   0.933   0.936
  0.938   0.940   0.944   0.950   0.953   0.954   0.957   0.959
  0.962   0.964   0.966   0.967   0.968   0.970   0.974   0.976
  0.980   0.981   0.985   0.987   0.989   0.992   0.994   0.996
  0.997   0.999   1.001   1.004   1.005   1.007   1.008   1.010
  1.013   1.014   1.016   1.016   1.018   1.020   1.020   1.023
  1.024   1.029   1.029   1.031   1.033   1.035   1.038   1.040
  1.043   1.045   1.047   1.048   1.051   1.052   1.054   1.055
  1.057   1.060   1.060   1.063   1.063   1.066   1.067   1.067
  1.069   1.070   1.071   1.072   1.074   1.076   1.077   1.079
  1.080   1.083   1.085   1.086   1.087   1.089   1.092   1.094
  1.096   1.097   1.099   1.101   1.103   1.104   1.107   1.109
  1.110   1.111   1.113   1.116   1.118   1.119   1.124   1.126
  1.127   1.127   1.129   1.129   1.130   1.135   1.138   1.140
  1.142   1.144   1.145   1.149   1.150   1.155   1.157   1.159
  1.161   1.163   1.164   1.166   1.170   1.171   1.175   1.179
  1.180   1.182   1.184   1.187   1.189   1.192   1.193   1.195
  1.199   1.201   1.204   1.208   1.212   1.213   1.215   1.218
  1.223   1.226   1.229   1.233   1.239   1.241   1.247   1.251
  1.252   1.253   1.255   1.256   1.262   1.265   1.268   1.273
  1.278   1.282   1.285   1.287   1.288   1.290   1.291   1.292
  1.294   1.296   1.298   1.301   1.308   1.308   1.312   1.312
  1.314   1.321   1.324   1.326   1.327   1.331   1.334   1.336
  1.341   1.342   1.346   1.346   1.349   1.352   1.358   1.359
  1.361   1.366   1.368   1.370   1.375   1.378   1.382   1.385
  1.387   1.396   1.401   1.404   1.407   1.410   1.411   1.411
  1.414   1.416   1.418   1.420   1.421   1.423   1.425   1.425
  1.425   1.428   1.433   1.439   1.440   1.441   1.446   1.450
  1.452   1.456   1.457   1.460   1.464   1.465   1.473   1.477
  1.483   1.483   1.485   1.490   1.495   1.498   1.502   1.503
  1.504   1.507   1.508   1.509   1.515   1.516   1.519   1.520
  1.523   1.526   1.529   1.531   1.533   1.540   1.544   1.545
  1.547   1.548   1.548   1.551   1.553   1.554   1.561   1.564
  1.565   1.566   1.567   1.570   1.572   1.573   1.576   1.577
  1.580   1.583   1.586   1.589   1.591   1.595   1.603   1.604
  1.606   1.608   1.613   1.617   1.619   1.623   1.624   1.632
  1.633   1.638   1.641   1.645   1.653   1.656   1.657   1.666
  1.669   1.677   1.679   1.682   1.683   1.689   1.696   1.703
  1.712   1.713   1.725   1.728   1.731   1.737   1.741   1.752
  1.756   1.757   1.763   1.766   1.771   1.776   1.778   1.779
  1.781   1.784   1.794   1.797   1.799   1.800   1.806   1.811
  1.814   1.816   1.818   1.819   1.823   1.825   1.827   1.828
  1.832   1.835   1.842   1.844   1.845   1.847   1.851   1.864
  1.868   1.870   1.872   1.873   1.873   1.875   1.876   1.877
  1.881   1.884   1.889   1.895   1.897   1.902   1.906   1.906
  1.909   1.912   1.913   1.916   1.922   1.923   1.928   1.931
  1.937   1.939   1.942   1.944   1.946   1.949   1.950   1.952
  1.955   1.960   1.961   1.962   1.963   1.964   1.966   1.968
  1.968   1.972   1.975   1.980   1.985   1.986   1.987   1.988
  1.989   1.991   2.000   2.002   2.008   2.012   2.015   2.017
  2.023   2.024   2.028   2.034   2.038   2.042   2.044   2.044
  2.055   2.057   2.063   2.064   2.068   2.072   2.073   2.078
  2.082   2.083   2.085   2.087   2.091   2.093   2.096   2.097
  2.099   2.102   2.108   2.110   2.114   2.115   2.123   2.129
  2.132   2.133   2.135   2.145   2.149   2.153   2.155   2.156
  2.158   2.160   2.160   2.161   2.167   2.170   2.174   2.176
  2.184   2.188   2.194   2.196   2.197   2.200   2.203   2.207
  2.211   2.213   2.216   2.226   2.228   2.229   2.231   2.235
  2.235   2.239   2.241   2.244   2.245   2.247   2.254   2.256
  2.260   2.262   2.263   2.265   2.270   2.271   2.274   2.279
  2.291   2.291   2.293   2.297   2.298   2.300   2.306   2.309
  2.309   2.313   2.314   2.316   2.318   2.321   2.322   2.324
  2.327   2.329   2.331   2.336   2.336   2.337   2.339   2.342
  2.342   2.344   2.346   2.349   2.353   2.354   2.355   2.358
  2.360   2.367   2.370   2.372   2.375   2.377   2.377   2.380
  2.383   2.384   2.386   2.388   2.391   2.392   2.393   2.396
  2.397   2.402   2.404   2.406   2.407   2.408   2.410   2.411
  2.413   2.416   2.417   2.420   2.429   2.431   2.434   2.435
  2.438   2.443   2.446   2.455   2.460   2.462   2.463   2.464
  2.465   2.467   2.470   2.473   2.476   2.478   2.480   2.482
  2.486   2.489   2.492   2.493   2.495   2.497   2.502   2.506
  2.511   2.514   2.522   2.524   2.527   2.528   2.534   2.538
  2.542   2.546   2.549   2.558   2.559   2.565   2.567   2.584
  2.598   2.609   2.612   2.614   2.626   2.629   2.631   2.639
  2.642   2.642   2.652   2.661   2.672   2.674   2.683   2.686
  2.690   2.699   2.706   2.707   2.713   2.714   2.719   2.722
  2.724   2.725   2.726   2.729   2.729   2.732   2.733   2.735
  2.737   2.740   2.743   2.743   2.746   2.746   2.747   2.751
  2.757   2.760   2.764   2.770   2.771   2.776   2.785   2.786
  2.789   2.790   2.792   2.805   2.810   2.813   2.815   2.820
  2.822   2.825   2.829   2.830   2.831   2.832   2.835   2.845
  2.846   2.847   2.848   2.857   2.865   2.878   2.881   2.889
  2.889   2.895   2.897   2.900   2.900   2.906   2.909   2.911
  2.932   2.936   2.947   2.949   2.951   2.954   2.959   2.964
  2.967   2.974   2.978   2.980   2.985   2.992   2.993   2.994
  3.003   3.020   3.025   3.032   3.034   3.043   3.048   3.060
  3.064   3.075   3.086   3.101   3.126   3.138   3.140   3.151
  3.183   3.192   3.216   3.217   3.221   3.224   3.230   3.269
  3.315   3.347   3.422   3.459   3.460   3.466   3.486   3.509
  3.515   3.534   3.543   3.570   3.585   3.585   3.602   3.704
  3.723   9.660   9.795  13.180  13.190  13.216  13.265  13.280
 13.352  13.453  13.458  13.471  13.537  13.555  13.575  13.595
 13.650  13.662  13.670  13.679  13.688  13.706  13.714  13.723
 13.725  13.755  13.769  13.777  13.789  13.797  13.820  13.822
 13.828  13.846  13.850  13.853  13.859  13.883  13.893  13.910
 13.911  13.913  13.923  13.947  14.029  14.040  14.046  14.048
 14.051  14.064  14.068  14.071  14.084  14.105  14.113  14.122
 14.129  14.161  14.179  14.183  14.184  14.196  14.200  14.205
 14.207  14.215  14.236  14.237  14.242  14.245  14.247  14.263
 14.272  14.275  14.297  14.309  14.314  14.320  14.339  14.482
 14.496  14.533  14.545  14.572  14.574  14.585  14.591  14.604
 14.608  14.623  14.624  14.630  14.648  19.520  19.664
 
 Beta MOs
 -- Occupied --
-14.791 -14.659 -10.561 -10.560 -10.523 -10.520 -10.519 -10.514
-10.502 -10.501 -10.500 -10.499 -10.498 -10.498 -10.496 -10.494
-10.478 -10.477 -10.468 -10.468 -10.465 -10.464 -10.461 -10.461
-10.460 -10.456 -10.449 -10.448 -10.447 -10.446 -10.445 -10.445
-10.443 -10.442 -10.442 -10.441 -10.441 -10.441 -10.437 -10.437
-10.437 -10.437 -10.435 -10.435 -10.434 -10.434 -10.434 -10.433
-10.433 -10.433 -10.432 -10.432 -10.432 -10.431 -10.431 -10.431
-10.430 -10.430 -10.430 -10.430 -10.429 -10.429 -10.429 -10.428
-10.428 -10.425 -10.425 -10.424 -10.424 -10.423 -10.423 -10.421
-10.420 -10.419 -10.418 -10.417 -10.416 -10.416 -10.416 -10.416
-10.416 -10.414 -10.413 -10.412 -10.411 -10.400 -10.400 -10.399
-10.391 -10.391 -10.389 -10.389  -6.884  -6.883  -1.161  -1.072
 -1.021  -1.019  -0.978  -0.977  -0.975  -0.963  -0.953  -0.945
 -0.945  -0.945  -0.931  -0.927  -0.925  -0.913  -0.896  -0.896
 -0.895  -0.892  -0.886  -0.884  -0.869  -0.868  -0.854  -0.853
 -0.853  -0.847  -0.846  -0.845  -0.836  -0.835  -0.835  -0.822
 -0.817  -0.812  -0.810  -0.803  -0.802  -0.793  -0.791  -0.790
 -0.784  -0.784  -0.783  -0.780  -0.774  -0.770  -0.770  -0.758
 -0.741  -0.741  -0.735  -0.726  -0.722  -0.708  -0.705  -0.703
 -0.696  -0.694  -0.692  -0.690  -0.683  -0.682  -0.679  -0.676
 -0.670  -0.670  -0.667  -0.662  -0.656  -0.647  -0.645  -0.642
 -0.639  -0.630  -0.621  -0.621  -0.612  -0.603  -0.601  -0.599
 -0.594  -0.592  -0.588  -0.587  -0.586  -0.580  -0.578  -0.573
 -0.567  -0.560  -0.549  -0.548  -0.545  -0.544  -0.539  -0.538
 -0.535  -0.535  -0.531  -0.529  -0.525  -0.523  -0.522  -0.521
 -0.515  -0.512  -0.510  -0.510  -0.507  -0.503  -0.502  -0.499
 -0.495  -0.495  -0.493  -0.492  -0.490  -0.488  -0.485  -0.484
 -0.482  -0.480  -0.480  -0.479  -0.475  -0.475  -0.472  -0.472
 -0.471  -0.470  -0.468  -0.467  -0.467  -0.466  -0.466  -0.465
 -0.464  -0.463  -0.462  -0.458  -0.456  -0.456  -0.455  -0.453
 -0.452  -0.451  -0.449  -0.444  -0.444  -0.441  -0.440  -0.439
 -0.438  -0.434  -0.434  -0.431  -0.429  -0.427  -0.426  -0.424
 -0.422  -0.419  -0.417  -0.416  -0.414  -0.414  -0.413  -0.411
 -0.407  -0.407  -0.405  -0.403  -0.402  -0.399  -0.398  -0.395
 -0.394  -0.393  -0.393  -0.392  -0.391  -0.391  -0.385  -0.384
 -0.384  -0.382  -0.376  -0.372  -0.370  -0.369  -0.368  -0.367
 -0.363  -0.358  -0.358  -0.357  -0.352  -0.345  -0.343  -0.338
 -0.334  -0.333  -0.330  -0.321  -0.312  -0.310  -0.306  -0.305
 -0.305  -0.303  -0.299  -0.293  -0.284  -0.283  -0.275  -0.270
 -0.259  -0.257  -0.254  -0.252  -0.240  -0.233  -0.228  -0.224
 -0.207
 -- Virtual --
 -0.180  -0.038  -0.035  -0.034  -0.024  -0.018  -0.003  -0.001
  0.002   0.002   0.011   0.015   0.017   0.024   0.026   0.032
  0.034   0.039   0.053   0.058   0.072   0.073   0.078   0.080
  0.087   0.101   0.103   0.107   0.122   0.125   0.129   0.132
  0.135   0.139   0.143   0.143   0.147   0.150   0.150   0.152
  0.153   0.157   0.160   0.161   0.162   0.168   0.169   0.170
  0.172   0.173   0.175   0.181   0.182   0.184   0.185   0.186
  0.187   0.189   0.190   0.191   0.192   0.193   0.195   0.197
  0.198   0.198   0.201   0.202   0.204   0.205   0.206   0.206
  0.208   0.211   0.212   0.214   0.215   0.215   0.217   0.218
  0.219   0.220   0.221   0.224   0.225   0.226   0.227   0.229
  0.230   0.230   0.231   0.232   0.234   0.236   0.236   0.238
  0.239   0.240   0.242   0.244   0.245   0.247   0.248   0.248
  0.252   0.253   0.253   0.254   0.256   0.256   0.258   0.259
  0.261   0.262   0.263   0.264   0.266   0.268   0.269   0.270
  0.273   0.273   0.276   0.277   0.278   0.281   0.283   0.285
  0.286   0.287   0.289   0.293   0.293   0.298   0.299   0.302
  0.303   0.304   0.305   0.308   0.309   0.310   0.312   0.313
  0.316   0.316   0.316   0.319   0.321   0.322   0.325   0.326
  0.330   0.332   0.333   0.334   0.336   0.341   0.343   0.346
  0.346   0.350   0.350   0.352   0.358   0.358   0.360   0.366
  0.369   0.371   0.377   0.378   0.383   0.385   0.386   0.390
  0.392   0.394   0.395   0.397   0.397   0.407   0.408   0.410
  0.413   0.414   0.423   0.425   0.427   0.430   0.432   0.437
  0.443   0.448   0.450   0.453   0.455   0.458   0.460   0.460
  0.462   0.465   0.466   0.468   0.475   0.476   0.482   0.485
  0.488   0.490   0.492   0.494   0.494   0.499   0.500   0.502
  0.504   0.505   0.508   0.508   0.510   0.510   0.511   0.515
  0.516   0.517   0.519   0.521   0.522   0.523   0.525   0.525
  0.526   0.528   0.529   0.530   0.532   0.533   0.534   0.536
  0.537   0.539   0.541   0.543   0.544   0.546   0.548   0.553
  0.555   0.558   0.559   0.561   0.562   0.564   0.565   0.565
  0.567   0.567   0.568   0.569   0.570   0.571   0.573   0.574
  0.575   0.576   0.577   0.579   0.580   0.581   0.581   0.585
  0.585   0.586   0.588   0.589   0.592   0.593   0.594   0.596
  0.596   0.602   0.604   0.604   0.606   0.608   0.608   0.611
  0.612   0.614   0.616   0.619   0.619   0.620   0.621   0.622
  0.623   0.624   0.625   0.626   0.627   0.628   0.630   0.631
  0.633   0.634   0.635   0.636   0.637   0.637   0.640   0.642
  0.645   0.646   0.647   0.648   0.648   0.649   0.649   0.652
  0.653   0.654   0.657   0.658   0.661   0.663   0.665   0.665
  0.667   0.668   0.670   0.672   0.677   0.678   0.681   0.683
  0.683   0.687   0.689   0.691   0.693   0.695   0.696   0.698
  0.702   0.703   0.707   0.708   0.710   0.713   0.715   0.716
  0.718   0.720   0.722   0.724   0.725   0.727   0.728   0.730
  0.732   0.734   0.736   0.739   0.742   0.743   0.747   0.750
  0.754   0.756   0.759   0.761   0.762   0.762   0.764   0.765
  0.770   0.771   0.772   0.775   0.777   0.778   0.779   0.780
  0.783   0.786   0.787   0.789   0.790   0.793   0.795   0.796
  0.800   0.802   0.803   0.804   0.807   0.808   0.809   0.812
  0.815   0.818   0.821   0.821   0.825   0.825   0.828   0.830
  0.832   0.835   0.837   0.840   0.843   0.847   0.847   0.851
  0.854   0.858   0.860   0.862   0.866   0.870   0.875   0.877
  0.880   0.885   0.889   0.892   0.893   0.899   0.904   0.912
  0.913   0.915   0.918   0.921   0.923   0.927   0.929   0.933
  0.934   0.937   0.939   0.941   0.944   0.951   0.954   0.955
  0.959   0.960   0.963   0.965   0.967   0.968   0.969   0.971
  0.975   0.976   0.981   0.982   0.985   0.987   0.990   0.993
  0.995   0.997   0.999   1.001   1.003   1.004   1.007   1.008
  1.009   1.012   1.013   1.016   1.016   1.017   1.018   1.020
  1.021   1.024   1.025   1.029   1.030   1.032   1.034   1.036
  1.039   1.041   1.044   1.046   1.047   1.049   1.052   1.053
  1.054   1.055   1.057   1.060   1.061   1.063   1.064   1.066
  1.067   1.068   1.069   1.070   1.071   1.073   1.074   1.077
  1.077   1.079   1.081   1.083   1.085   1.086   1.087   1.090
  1.092   1.095   1.096   1.097   1.099   1.102   1.103   1.105
  1.107   1.109   1.111   1.112   1.114   1.117   1.120   1.124
  1.125   1.126   1.127   1.128   1.129   1.131   1.133   1.136
  1.140   1.140   1.143   1.144   1.147   1.150   1.151   1.155
  1.157   1.159   1.161   1.163   1.164   1.167   1.170   1.172
  1.176   1.179   1.180   1.183   1.184   1.188   1.189   1.192
  1.193   1.195   1.199   1.202   1.204   1.210   1.212   1.214
  1.216   1.219   1.223   1.227   1.230   1.236   1.241   1.244
  1.249   1.252   1.254   1.254   1.257   1.259   1.263   1.266
  1.269   1.274   1.279   1.283   1.286   1.288   1.289   1.291
  1.293   1.293   1.295   1.297   1.300   1.303   1.309   1.309
  1.312   1.313   1.315   1.321   1.325   1.327   1.327   1.332
  1.335   1.337   1.343   1.343   1.347   1.348   1.350   1.357
  1.358   1.360   1.362   1.367   1.369   1.371   1.376   1.379
  1.382   1.386   1.389   1.397   1.401   1.404   1.408   1.410
  1.412   1.413   1.416   1.418   1.420   1.421   1.422   1.424
  1.426   1.426   1.427   1.430   1.434   1.440   1.442   1.444
  1.450   1.451   1.453   1.457   1.458   1.461   1.464   1.466
  1.473   1.477   1.483   1.486   1.489   1.491   1.496   1.500
  1.503   1.504   1.506   1.508   1.509   1.512   1.515   1.519
  1.520   1.521   1.525   1.527   1.530   1.531   1.534   1.540
  1.545   1.546   1.547   1.548   1.549   1.551   1.553   1.555
  1.561   1.565   1.565   1.566   1.568   1.570   1.572   1.574
  1.576   1.578   1.582   1.585   1.587   1.589   1.592   1.595
  1.604   1.605   1.606   1.608   1.614   1.618   1.621   1.624
  1.626   1.633   1.634   1.639   1.641   1.646   1.655   1.658
  1.659   1.668   1.670   1.677   1.681   1.682   1.686   1.692
  1.701   1.706   1.713   1.720   1.725   1.732   1.734   1.740
  1.742   1.753   1.757   1.757   1.764   1.767   1.773   1.777
  1.779   1.781   1.782   1.785   1.795   1.798   1.800   1.801
  1.807   1.812   1.814   1.816   1.818   1.820   1.824   1.825
  1.828   1.830   1.834   1.839   1.843   1.844   1.847   1.851
  1.855   1.866   1.869   1.870   1.872   1.874   1.874   1.876
  1.877   1.878   1.888   1.889   1.892   1.896   1.898   1.903
  1.907   1.908   1.909   1.913   1.914   1.917   1.923   1.924
  1.929   1.931   1.939   1.939   1.942   1.944   1.947   1.950
  1.951   1.956   1.957   1.960   1.962   1.963   1.963   1.965
  1.968   1.969   1.970   1.973   1.976   1.983   1.985   1.987
  1.988   1.989   1.990   1.995   2.002   2.003   2.011   2.014
  2.017   2.018   2.024   2.026   2.029   2.037   2.041   2.043
  2.045   2.045   2.056   2.058   2.063   2.065   2.069   2.075
  2.076   2.080   2.082   2.084   2.086   2.088   2.091   2.093
  2.098   2.099   2.100   2.104   2.110   2.110   2.115   2.116
  2.124   2.129   2.133   2.135   2.136   2.145   2.151   2.154
  2.156   2.157   2.160   2.161   2.162   2.164   2.168   2.170
  2.174   2.176   2.185   2.189   2.196   2.197   2.198   2.200
  2.204   2.210   2.212   2.216   2.216   2.227   2.229   2.230
  2.234   2.235   2.236   2.240   2.243   2.246   2.247   2.248
  2.256   2.258   2.260   2.263   2.265   2.267   2.270   2.273
  2.274   2.280   2.292   2.294   2.295   2.298   2.299   2.302
  2.308   2.310   2.313   2.314   2.315   2.317   2.319   2.322
  2.324   2.326   2.329   2.331   2.332   2.336   2.337   2.338
  2.339   2.342   2.343   2.345   2.347   2.350   2.353   2.355
  2.356   2.360   2.362   2.368   2.371   2.372   2.376   2.377
  2.379   2.382   2.383   2.386   2.387   2.390   2.391   2.393
  2.394   2.397   2.398   2.402   2.405   2.407   2.408   2.409
  2.411   2.412   2.414   2.417   2.418   2.422   2.429   2.431
  2.435   2.438   2.439   2.445   2.448   2.458   2.460   2.464
  2.464   2.465   2.466   2.468   2.471   2.474   2.477   2.479
  2.482   2.484   2.487   2.491   2.494   2.495   2.497   2.499
  2.504   2.508   2.512   2.514   2.522   2.525   2.528   2.529
  2.536   2.540   2.545   2.548   2.550   2.559   2.561   2.565
  2.569   2.585   2.599   2.609   2.616   2.618   2.627   2.631
  2.631   2.640   2.643   2.645   2.655   2.662   2.674   2.677
  2.683   2.687   2.691   2.699   2.706   2.708   2.713   2.717
  2.719   2.722   2.725   2.725   2.728   2.729   2.730   2.733
  2.734   2.736   2.738   2.742   2.743   2.744   2.746   2.747
  2.749   2.751   2.758   2.761   2.765   2.770   2.773   2.777
  2.786   2.786   2.789   2.791   2.792   2.805   2.812   2.813
  2.815   2.821   2.823   2.826   2.830   2.831   2.832   2.833
  2.836   2.846   2.847   2.848   2.848   2.858   2.866   2.879
  2.881   2.890   2.891   2.896   2.898   2.900   2.901   2.907
  2.911   2.913   2.932   2.937   2.947   2.949   2.952   2.954
  2.959   2.965   2.968   2.975   2.980   2.981   2.985   2.993
  2.995   2.996   3.003   3.020   3.025   3.033   3.035   3.043
  3.048   3.061   3.065   3.076   3.088   3.102   3.127   3.139
  3.141   3.152   3.184   3.193   3.216   3.217   3.222   3.224
  3.231   3.270   3.316   3.349   3.422   3.459   3.460   3.467
  3.486   3.510   3.515   3.535   3.544   3.570   3.585   3.586
  3.603   3.705   3.723   9.665   9.799  13.180  13.191  13.216
 13.265  13.281  13.352  13.453  13.458  13.471  13.537  13.555
 13.575  13.596  13.651  13.662  13.671  13.680  13.688  13.707
 13.715  13.723  13.725  13.755  13.769  13.777  13.789  13.798
 13.820  13.822  13.829  13.846  13.850  13.853  13.859  13.883
 13.893  13.910  13.911  13.913  13.923  13.947  14.029  14.040
 14.046  14.048  14.051  14.064  14.069  14.071  14.085  14.106
 14.114  14.123  14.130  14.162  14.179  14.183  14.184  14.197
 14.200  14.205  14.207  14.215  14.237  14.237  14.242  14.245
 14.248  14.263  14.272  14.275  14.297  14.309  14.315  14.320
 14.339  14.482  14.497  14.534  14.546  14.572  14.574  14.585
 14.591  14.604  14.608  14.623  14.624  14.631  14.648  19.536
 19.664
 --------------------------------------------------------------
 
          Ground-State Mulliken Net Atomic Charges

     Atom                 Charge (a.u.)    Spin (a.u.)
  --------------------------------------------------------
      1 N                    -0.609095       0.470037
      2 C                     0.303497      -0.099617
      3 C                     0.298875      -0.097807
      4 C                     0.190611       0.221828
      5 C                    -0.300661      -0.145562
      6 H                     0.251393       0.006899
      7 C                    -0.193309       0.237968
      8 H                     0.268271      -0.012610
      9 C                    -0.244443      -0.128567
     10 H                     0.278311       0.005865
     11 C                    -0.272216       0.181550
     12 H                     0.313839      -0.009898
     13 C                     0.190958       0.221367
     14 C                    -0.301269      -0.145292
     15 H                     0.251856       0.006900
     16 C                    -0.191977       0.237054
     17 H                     0.268527      -0.012593
     18 C                    -0.245813      -0.128938
     19 H                     0.273859       0.005944
     20 C                    -0.272134       0.182074
     21 H                     0.308040      -0.009932
     22 C                     0.148595      -0.029635
     23 C                    -0.301709       0.019809
     24 H                     0.235633      -0.000370
     25 C                    -0.304402       0.018530
     26 H                     0.232994      -0.000211
     27 C                     0.041532       0.001841
     28 C                     0.061277       0.002495
     29 C                    -0.162387      -0.025677
     30 C                    -0.538135       0.005228
     31 H                     0.223806       0.000543
     32 H                     0.279980      -0.002145
     33 C                    -0.551540       0.006355
     34 H                     0.293039      -0.003950
     35 H                     0.228346       0.000720
     36 C                    -0.239477      -0.036861
     37 C                    -0.651990      -0.000280
     38 H                     0.230127       0.000059
     39 H                     0.254087      -0.000402
     40 H                     0.199479      -0.000091
     41 C                    -0.652346      -0.000577
     42 H                     0.257550      -0.000327
     43 H                     0.229360       0.000085
     44 H                     0.197518      -0.000023
     45 C                    -0.603411       0.020994
     46 H                     0.247287      -0.000798
     47 H                     0.241874       0.000277
     48 H                     0.242172       0.000249
     49 C                    -0.608095       0.019589
     50 H                     0.249382      -0.000685
     51 H                     0.241824       0.000106
     52 H                     0.241828       0.000141
     53 B                     0.485013       0.405635
     54 C                    -0.084002       0.002315
     55 C                    -0.440888       0.009659
     56 H                     0.200572      -0.001716
     57 C                     0.085599       0.034014
     58 C                     0.088532       0.083920
     59 C                    -0.432645      -0.040812
     60 H                     0.226677       0.001446
     61 C                    -0.101931       0.050655
     62 C                     0.113302      -0.010787
     63 C                     0.068616       0.007213
     64 C                    -0.317911      -0.003746
     65 H                     0.214800       0.000122
     66 C                    -0.280768       0.012724
     67 H                     0.214402      -0.000831
     68 C                     0.137994      -0.005378
     69 C                    -0.400713       0.010114
     70 H                     0.206643      -0.000563
     71 C                     0.114536      -0.028458
     72 C                    -0.404650       0.025099
     73 H                     0.224362      -0.001521
     74 C                     0.136048      -0.017260
     75 C                    -0.279788       0.029801
     76 H                     0.215741      -0.001826
     77 C                    -0.318465      -0.017395
     78 H                     0.210677       0.000894
     79 C                     0.068070       0.027117
     80 C                    -0.723387       0.001362
     81 H                     0.248103      -0.000077
     82 H                     0.228755      -0.000531
     83 H                     0.237477      -0.000622
     84 C                    -0.722216       0.000343
     85 H                     0.226129      -0.000045
     86 H                     0.223617      -0.000175
     87 H                     0.243135      -0.000197
     88 C                    -0.085828       0.002487
     89 C                    -0.447195       0.009800
     90 H                     0.203111      -0.001747
     91 C                     0.090729       0.034155
     92 C                     0.085967       0.081302
     93 C                    -0.442180      -0.038749
     94 H                     0.227034       0.001305
     95 C                    -0.099321       0.046979
     96 C                     0.112595      -0.027587
     97 C                    -0.399318       0.024402
     98 H                     0.221110      -0.001470
     99 C                     0.138499      -0.016769
    100 C                    -0.280236       0.029022
    101 H                     0.215860      -0.001778
    102 C                    -0.319206      -0.016857
    103 H                     0.210914       0.000865
    104 C                     0.068852       0.026226
    105 C                     0.113260      -0.010846
    106 C                     0.068468       0.007472
    107 C                    -0.318569      -0.004031
    108 H                     0.214292       0.000142
    109 C                    -0.282035       0.012798
    110 H                     0.214780      -0.000832
    111 C                     0.144501      -0.005504
    112 C                    -0.396744       0.010100
    113 H                     0.203930      -0.000556
    114 C                    -0.718271       0.001323
    115 H                     0.236708      -0.000076
    116 H                     0.234305      -0.000519
    117 H                     0.235425      -0.000593
    118 C                    -0.722971       0.000411
    119 H                     0.220396      -0.000030
    120 H                     0.235010      -0.000168
    121 H                     0.235695      -0.000196
    122 B                     0.525400       0.304750
    123 C                    -0.178544      -0.030676
    124 C                     0.062959       0.007250
    125 C                    -0.314360      -0.003010
    126 H                     0.222334       0.000537
    127 C                     0.182154       0.003906
    128 C                    -0.303440      -0.002668
    129 H                     0.225839       0.000447
    130 C                     0.044909       0.006090
    131 N                    -0.713073      -0.000217
    132 C                     0.310941       0.000063
    133 C                     0.308602       0.000084
    134 C                     0.135905      -0.000003
    135 C                    -0.304154       0.000003
    136 H                     0.214438       0.000002
    137 C                    -0.243179      -0.000003
    138 H                     0.217480       0.000000
    139 C                    -0.247705      -0.000006
    140 H                     0.232922       0.000006
    141 C                    -0.319406       0.000015
    142 H                     0.267255      -0.000018
    143 C                     0.137088       0.000001
    144 C                    -0.304567      -0.000004
    145 H                     0.214867       0.000002
    146 C                    -0.242411       0.000001
    147 H                     0.218176       0.000000
    148 C                    -0.246844      -0.000007
    149 H                     0.225581       0.000000
    150 C                    -0.313554       0.000030
    151 H                     0.261311      -0.000020
    152 C                    -0.537115       0.002347
    153 H                     0.223766       0.000423
    154 H                     0.259128      -0.001600
    155 C                    -0.548479       0.002107
    156 H                     0.264932      -0.002061
    157 H                     0.226677       0.000621
    158 C                    -0.202701       0.000001
    159 C                    -0.654037       0.000236
    160 H                     0.247888      -0.000487
    161 H                     0.216641      -0.000035
    162 H                     0.211546      -0.000071
    163 C                    -0.656275       0.000162
    164 H                     0.256626      -0.000753
    165 H                     0.214510      -0.000067
    166 H                     0.209179      -0.000013
    167 C                    -0.602064      -0.000000
    168 H                     0.234470      -0.000000
    169 H                     0.218004       0.000000
    170 H                     0.218379       0.000000
    171 C                    -0.616945      -0.000000
    172 H                     0.220009       0.000000
    173 H                     0.219095      -0.000000
    174 H                     0.237518       0.000000
  --------------------------------------------------------
  Sum of atomic charges =    -0.000000
  Sum of spin   charges =     2.000000

 -----------------------------------------------------------------
                    Cartesian Multipole Moments
 -----------------------------------------------------------------
    Charge (ESU x 10^10)
                -0.0000
    Dipole Moment (Debye)
         X      28.0546      Y      -3.5898      Z      18.4899
       Tot      33.7909
    Quadrupole Moments (Debye-Ang)
        XX    -673.9823     XY      20.6214     YY    -568.0154
        XZ    -102.8151     YZ      15.3255     ZZ    -594.1704
    Octopole Moments (Debye-Ang^2)
       XXX   10483.1387    XXY    -806.1920    XYY    3234.8259
       YYY   -2176.2251    XXZ    2923.9219    XYZ    -110.8391
       YYZ    2356.7667    XZZ    3660.4354    YZZ    -730.8245
       ZZZ    7191.1762
    Hexadecapole Moments (Debye-Ang^3)
      XXXX -189639.4749   XXXY   22913.5650   XXYY  -34657.6892
      XYYY   24640.2088   YYYY  -20174.0009   XXXZ  -57665.6772
      XXYZ    4997.1585   XYYZ  -18035.1812   YYYZ   12824.1290
      XXZZ  -54895.7462   XYZZ    7637.7812   YYZZ  -25098.8521
      XZZZ  -55101.3516   YZZZ   12316.2696   ZZZZ -124099.4343
 -----------------------------------------------------------------
 Calculating analytic gradient of the SCF energy
 -1.895371725709124E-003 -1.895401559243694E-003
 -1.895384355524237E-003 -1.895389025193092E-003
 -1.895369916425123E-003 -1.895403334291311E-003
 -1.895338183555089E-003 -1.895435079898224E-003
 -1.895390828395155E-003 -1.895382565327372E-003
 -1.895379330502062E-003 -1.895393955900359E-003
 -1.895351920961291E-003 -1.895421351012570E-003
 -1.895388941777513E-003 -1.895384446044558E-003
 -1.895347452074577E-003 -1.895425813581833E-003
 -1.895413732933259E-003 -1.895359561902424E-003
 -1.895383109761414E-003 -1.895390255302630E-003
 -1.895392871950450E-003 -1.895380380945404E-003
 -1.895365375563183E-003 -1.895407871170950E-003
 -1.895387345959065E-003 -1.895386021307174E-003
 -1.895367118062511E-003 -1.895406147679857E-003
 -1.895402944145998E-003 -1.895370307645613E-003
 -1.895381954474418E-003 -1.895391369712406E-003
 -1.895403526125117E-003 -1.895369757196652E-003
 -1.895395499665481E-003 -1.895377790308017E-003
 -1.895391008042434E-003 -1.895382359509281E-003
 -1.895415582391197E-003 -1.895357664122986E-003
 -1.895384455585507E-003 -1.895388838040158E-003
 -1.895387748548791E-003 -1.895385558788228E-003
 -1.895380298022579E-003 -1.895392948929919E-003
 -1.895354428445640E-003 -1.895418838594152E-003
 -1.895405232760416E-003 -1.895368138780082E-003
 -1.895355539049537E-003 -1.895417725116171E-003
 -1.895373307810834E-003 -1.895399945657238E-003
 -1.895405097281561E-003 -1.895368197124911E-003
 -1.895386665270530E-003 -1.895386622382330E-003
 -1.895372152699122E-003 -1.895401106848487E-003
 -1.895397132548454E-003 -1.895376258512369E-003
 -1.895395683443903E-003 -1.895377561039496E-003
 -1.895363973452245E-003 -1.895409289036440E-003
 -1.895395113774110E-003 -1.895378231927909E-003
 -1.895372753448652E-003 -1.895400513553125E-003
 -1.895414520857698E-003 -1.895358763989076E-003
 -1.895387594253459E-003 -1.895385776769158E-003
 -1.895399572409254E-003 -1.895373688046208E-003
 -1.895360829409173E-003 -1.895412425034015E-003
 -1.895389850540157E-003 -1.895383519054849E-003
 -1.895386105817793E-003 -1.895387150933122E-003
 -1.895411119831983E-003 -1.895362119627146E-003
 -1.895386673981908E-003 -1.895386648157593E-003
 -1.895390043523678E-003 -1.895383242871202E-003
 -1.895418662281069E-003 -1.895354621591412E-003
 -1.895385336619439E-003 -1.895388033820559E-003
 -1.895373547779494E-003 -1.895399706790955E-003
 -1.895382349379029E-003 -1.895390928650434E-003
 -1.895387247967356E-003 -1.895386064133009E-003
 -1.895391034084964E-003 -1.895382228899102E-003
 -1.895353830901385E-003 -1.895419424051254E-003
 -1.895383822045490E-003 -1.895389557717907E-003
 -1.895386331782305E-003 -1.895386932343447E-003
 -1.895389874488631E-003 -1.895383401567006E-003
 -1.895375638258549E-003 -1.895397663147526E-003
 -1.895373270964714E-003 -1.895399987530892E-003
 -1.895389285444523E-003 -1.895383965424333E-003
 -1.895386891082944E-003 -1.895386503504886E-003
 -1.895355821704145E-003 -1.895417432773458E-003
 -1.895366673616306E-003 -1.895406573525578E-003
 -1.895381737195918E-003 -1.895391608866029E-003
 -1.895373444487310E-003 -1.895399834717720E-003
 -1.895337630793813E-003 -1.895435615038445E-003
 -1.895374623967946E-003 -1.895398666930475E-003
 -1.895357686872779E-003 -1.895415550106889E-003
 -1.895413509932072E-003 -1.895359763677334E-003
 -1.895407456247603E-003 -1.895365752488077E-003
 -1.895407482806744E-003 -1.895365783290915E-003
 -1.895370921590011E-003 -1.895402347218270E-003
 -1.895389818707526E-003 -1.895383390255115E-003
 -1.895381011683801E-003 -1.895392241257765E-003
 -1.895422357448605E-003 -1.895350909873259E-003
 -1.895392236847237E-003 -1.895380979166301E-003
 -1.895397592442654E-003 -1.895375667530412E-003
 -1.895383392046375E-003 -1.895389892030775E-003
 -1.895378129554299E-003 -1.895395077227711E-003
 -1.895375561084283E-003 -1.895397705685336E-003
 -1.895341617537000E-003 -1.895431631078350E-003
 -1.895407371844202E-003 -1.895365870990823E-003
 -1.895352849443681E-003 -1.895420417195219E-003
 -1.895353583908347E-003 -1.895419676413760E-003
 -1.895364121958091E-003 -1.895409129731439E-003
 -1.895368987901067E-003 -1.895404269748154E-003
 -1.895423269013035E-003 -1.895349993947843E-003
 -1.895407297526866E-003 -1.895365959324098E-003
 -1.895403039139192E-003 -1.895370214904391E-003
 -1.895401379600674E-003 -1.895371909851517E-003
 -1.895414166199377E-003 -1.895359091161420E-003
 -1.895395455816883E-003 -1.895377781598250E-003
 -1.895392104173280E-003 -1.895381179195357E-003
 -1.895399999074456E-003 -1.895373243170731E-003
 -1.895376578256138E-003 -1.895396685425732E-003
 -1.895381450851854E-003 -1.895391836857196E-003
 -1.895389698282233E-003 -1.895383585204060E-003
 -1.895365237746122E-003 -1.895408022561921E-003
 -1.895400088692833E-003 -1.895373135559848E-003
 -1.895376655186936E-003 -1.895396588871234E-003
 -1.895395766696768E-003 -1.895377527088098E-003
 -1.895367445909056E-003 -1.895405804808596E-003
 -1.895378159418205E-003 -1.895395133495312E-003
 -1.895397404960050E-003 -1.895375875356403E-003
 -1.895371399185245E-003 -1.895401858639105E-003
 -1.895375926992419E-003 -1.895397292484516E-003
 -1.895376523253439E-003 -1.895396760364790E-003
 -1.895401788734409E-003 -1.895371507423912E-003
 -1.895381897828541E-003 -1.895391375105441E-003
 -1.895398067614576E-003 -1.895375195108121E-003
 -1.895373766883469E-003 -1.895399530843103E-003
 -1.895392646645318E-003 -1.895380603481159E-003
 -1.895368823747570E-003 -1.895404415071647E-003
 -1.895388580546971E-003 -1.895384692903757E-003
 -1.895420162244699E-003 -1.895353114058626E-003
 -1.895374480422624E-003 -1.895398772563009E-003
 -1.895381728969607E-003 -1.895391549672102E-003
 -1.895403814832895E-003 -1.895369428219833E-003
 -1.895393750112480E-003 -1.895379506703291E-003
 -1.895390868024770E-003 -1.895382402833865E-003
 -1.895407547274177E-003 -1.895365726947259E-003
 -1.895397574025098E-003 -1.895375679003547E-003
 -1.895358101772172E-003 -1.895415111784127E-003
 -1.895374633594882E-003 -1.895398594715371E-003
 -1.895368783330895E-003 -1.895404550920492E-003
 -1.895387176866656E-003 -1.895386066050789E-003
 -1.895363415705688E-003 -1.895409804692793E-003
 -1.895380220907799E-003 -1.895393055623080E-003
 -1.895379392358449E-003 -1.895393863215380E-003
 -1.895353963240798E-003 -1.895419289897008E-003
 -1.895391397383072E-003 -1.895381880917173E-003
 -1.895384868612609E-003 -1.895388386323566E-003
 -1.895369465936920E-003 -1.895403806574462E-003
 -1.895376182469705E-003 -1.895397105758863E-003
 -1.895379402380405E-003 -1.895393902575139E-003
 -1.895367314513035E-003 -1.895405942286723E-003
 -1.895374985728352E-003 -1.895398242646031E-003
 -1.895380648567720E-003 -1.895392622947454E-003
 -1.895375374241199E-003 -1.895397827622636E-003
 -1.895384625851474E-003 -1.895388634938479E-003
 -1.895367897942083E-003 -1.895405374256546E-003
 -1.895385535100465E-003 -1.895387734231211E-003
 -1.895384383449705E-003 -1.895388870051941E-003
 -1.895371056662927E-003 -1.895402228369018E-003
 -1.895386345902465E-003 -1.895386917700736E-003
 -1.895373491512730E-003 -1.895399747449501E-003
 -1.895381425607444E-003 -1.895391871085434E-003
 -1.895410809940397E-003 -1.895362459860054E-003
 -1.895382118304140E-003 -1.895391107064654E-003
 -1.895381619647657E-003 -1.895391646888043E-003
 -1.895397255331728E-003 -1.895375957022203E-003
 -1.895383606071140E-003 -1.895389648777360E-003
 -1.895368575874539E-003 -1.895404690898903E-003
 -1.895388918254603E-003 -1.895384351834819E-003
 -1.895383137424591E-003 -1.895390118918475E-003
 -1.895372711290584E-003 -1.895400572870372E-003
 -1.895389510687082E-003 -1.895383757079939E-003
 -1.895374318005383E-003 -1.895398920142797E-003
 -1.895384880905652E-003 -1.895388388248534E-003
 -1.895385199691766E-003 -1.895388157678813E-003
 -1.895383663967859E-003 -1.895389595498475E-003
 -1.895402834511322E-003 -1.895370456631705E-003
 -1.895373941225952E-003 -1.895399443951146E-003
 -1.895403013726755E-003 -1.895370250426337E-003
 -1.895368313731620E-003 -1.895404964981960E-003
 -1.895393463770262E-003 -1.895379950995570E-003
 -1.895397413709671E-003 -1.895375831208756E-003
 -1.895395890790383E-003 -1.895377381971289E-003
 -1.895389753913729E-003 -1.895383604875733E-003
 -1.895408876086178E-003 -1.895364388595550E-003
 -1.895384137273603E-003 -1.895389136640294E-003
 -1.895389967005949E-003 -1.895383436481585E-003
 -1.895421929867162E-003 -1.895351340928388E-003
 -1.895354329218656E-003 -1.895418963244820E-003
 -1.895401084030007E-003 -1.895372320513012E-003
 -1.895401333077348E-003 -1.895371915839633E-003
 -1.895385336567955E-003 -1.895387930590781E-003
 -1.895388809088567E-003 -1.895384599795039E-003
 -1.895406193972391E-003 -1.895367065911190E-003
 -1.895366637628445E-003 -1.895406637070251E-003
 -1.895399921325547E-003 -1.895373427780025E-003
 -1.895386337538957E-003 -1.895386935486395E-003
 -1.895363919749454E-003 -1.895409364291015E-003
 -1.895388576760897E-003 -1.895384809736146E-003
 -1.895374320182793E-003 -1.895398948729724E-003
 -1.895375437890650E-003 -1.895397841281653E-003
 -1.895395016433050E-003 -1.895378384245855E-003
 -1.895407618172549E-003 -1.895365632635748E-003
 -1.895377305004710E-003 -1.895395941810325E-003
 -1.895403279712190E-003 -1.895370118038753E-003
 -1.895394898106687E-003 -1.895378394858684E-003
 -1.895411792848920E-003 -1.895361488812231E-003
 -1.895390434815961E-003 -1.895382964660439E-003
 -1.895395388339190E-003 -1.895377844940076E-003
 -1.895388895803075E-003 -1.895384390201767E-003
 -1.895397559373612E-003 -1.895375768427567E-003
 -1.895369268121712E-003 -1.895403973131220E-003
 -1.895368877296017E-003 -1.895404355468284E-003
 -1.895401896391792E-003 -1.895371484446862E-003
 -1.895383831091868E-003 -1.895389475759462E-003
 -1.895406905996430E-003 -1.895366326006427E-003
 -1.895389866069617E-003 -1.895383461649981E-003
 -1.895383574643596E-003 -1.895389718338333E-003
 -1.895398293546425E-003 -1.895374985181067E-003
 -1.895381248328276E-003 -1.895392122759737E-003
 -1.895401315298318E-003 -1.895371955322406E-003
 -1.895369339436208E-003 -1.895403913428187E-003
 -1.895388043260134E-003 -1.895385356405786E-003
 -1.895428937225923E-003 -1.895344325136069E-003
 -1.895376144907100E-003 -1.895397099393788E-003
 -1.895372854240812E-003 -1.895400473549927E-003
 -1.895407753462324E-003 -1.895365503581383E-003
 -1.895373208780284E-003 -1.895400045853041E-003
 -1.895397120558109E-003 -1.895376280811682E-003
 -1.895404158563079E-003 -1.895369111445338E-003
 -1.895351580946526E-003 -1.895421693357043E-003
 -1.895394437526260E-003 -1.895378962665186E-003
 -1.895414408859658E-003 -1.895358830795258E-003
 -1.895364941661898E-003 -1.895408316095795E-003
 -1.895377369486573E-003 -1.895395964480933E-003
 -1.895397659855956E-003 -1.895375577223310E-003
 -1.895369616592904E-003 -1.895403654232626E-003
 -1.895389635434564E-003 -1.895383734800393E-003
 -1.895378662337427E-003 -1.895394618364187E-003
 -1.895397251808666E-003 -1.895376047635637E-003
 -1.895391942361707E-003 -1.895381441531562E-003
 -1.895406768485578E-003 -1.895366467766243E-003
 -1.895387321970109E-003 -1.895385971842420E-003
 -1.895395890340872E-003 -1.895377432931888E-003
 -1.895367839645879E-003 -1.895405394957148E-003
 -1.895375754123021E-003 -1.895397475623300E-003
 -1.895402231708812E-003 -1.895371170157699E-003
 -1.895367080661942E-003 -1.895406202708327E-003
 -1.895406257795314E-003 -1.895366974398315E-003
 -1.895391773312171E-003 -1.895381562541331E-003
 -1.895382965110224E-003 -1.895390323235666E-003
 -1.895385840757876E-003 -1.895387453268167E-003
 -1.895400640330889E-003 -1.895372760735271E-003
 -1.895402894567974E-003 -1.895370347496179E-003
 -1.895374716923159E-003 -1.895398522240151E-003
 -1.895386998048888E-003 -1.895386246053919E-003
 -1.895368631380137E-003 -1.895404691302555E-003
 -1.895358577833455E-003 -1.895414683692168E-003
 -1.895377138266880E-003 -1.895396161026506E-003
 -1.895395408991134E-003 -1.895377873966433E-003
 -1.895388184795909E-003 -1.895385060894804E-003
 -1.895398263296527E-003 -1.895374972687810E-003
 -1.895405462890363E-003 -1.895367829601931E-003
 -1.895367339563448E-003 -1.895405906841943E-003
 -1.895379737563119E-003 -1.895393501248143E-003
 -1.895412548136120E-003 -1.895360751606514E-003
 -1.895404199491707E-003 -1.895369105831044E-003
 -1.895378831762976E-003 -1.895394413052146E-003
 -1.895390454557596E-003 -1.895382805066250E-003
 -1.895378817722375E-003 -1.895394460514411E-003
 -1.895370716673255E-003 -1.895402578932908E-003
 -1.895411653774521E-003 -1.895361617598708E-003
 -1.895373141800702E-003 -1.895400145706836E-003
 -1.895404183347369E-003 -1.895369057354042E-003
 -1.895393027445685E-003 -1.895380217109565E-003
 -1.895363392207612E-003 -1.895409895092773E-003
 -1.895380274830163E-003 -1.895392969205663E-003
 -1.895408866883552E-003 -1.895364393754093E-003
 -1.895410129965379E-003 -1.895363161087322E-003
 -1.895371928087511E-003 -1.895401462578147E-003
 -1.895391938483743E-003 -1.895381326422302E-003
 -1.895394445136082E-003 -1.895378831540111E-003
 -1.895379954754295E-003 -1.895393447505819E-003
 -1.895367808525860E-003 -1.895405458150163E-003
 -1.895409620116398E-003 -1.895363649804722E-003
 -1.895377365944933E-003 -1.895395985921270E-003
 -1.895387404202266E-003 -1.895385863569604E-003
 -1.895412062912097E-003 -1.895361234258661E-003
 -1.895373886397554E-003 -1.895399507624807E-003
 -1.895373078134809E-003 -1.895400174586408E-003
 -1.895390976560937E-003 -1.895382298148011E-003
 -1.895379942429294E-003 -1.895393451418046E-003
 -1.895356678318272E-003 -1.895416597994858E-003
 -1.895402235663627E-003 -1.895371051216976E-003
 -1.895378414151417E-003 -1.895394992104105E-003
 -1.895371542559342E-003 -1.895401710515126E-003
 -1.895379225436166E-003 -1.895394046661940E-003
 -1.895388046676230E-003 -1.895385306047552E-003
 -1.895362443978346E-003 -1.895410820036185E-003
 -1.895372748484067E-003 -1.895400535652732E-003
 -1.895384688416394E-003 -1.895388703013315E-003
 -1.895365388535238E-003 -1.895407879586029E-003
 -1.895393538317505E-003 -1.895379748607772E-003
 -1.895383766347186E-003 -1.895389627686633E-003
 -1.895367706187887E-003 -1.895405554143936E-003
 -1.895403389243910E-003 -1.895369875257407E-003
 -1.895377075522038E-003 -1.895396309025387E-003
 -1.895348389951011E-003 -1.895424891933184E-003
 -1.895385047306078E-003 -1.895388198533618E-003
 -1.895372177319515E-003 -1.895401146453087E-003
 -1.895365630536766E-003 -1.895407640542352E-003
 -1.895367950050479E-003 -1.895405337613538E-003
 -1.895395175058713E-003 -1.895378185123540E-003
 -1.895370925712955E-003 -1.895402351524176E-003
 -1.895410348911556E-003 -1.895362897715326E-003
 -1.895384711688986E-003 -1.895388649742385E-003
 -1.895396012739495E-003 -1.895377306625416E-003
 -1.895371447315514E-003 -1.895401799467735E-003
 -1.895397584643791E-003 -1.895375721588276E-003
 -1.895391125032608E-003 -1.895382170828242E-003
 -1.895362042138658E-003 -1.895411243489912E-003
 -1.895399399298119E-003 -1.895373979899809E-003
 -1.895379687817484E-003 -1.895393545016550E-003
 -1.895391322303352E-003 -1.895381964800566E-003
 -1.895391664908368E-003 -1.895381653952345E-003
 -1.895404248246361E-003 -1.895368980129672E-003
 -1.895405515731421E-003 -1.895367740486529E-003
 -1.895385604010153E-003 -1.895387775713357E-003
 -1.895387870202660E-003 -1.895385425390601E-003
 -1.895404031564185E-003 -1.895369242338956E-003
 -1.895379939112919E-003 -1.895393451002607E-003
 -1.895371670530798E-003 -1.895401608873153E-003
 -1.895379078110343E-003 -1.895394215567603E-003
 -1.895391776310166E-003 -1.895381607422016E-003
 -1.895371670389487E-003 -1.895401583776875E-003
 -1.895404413523482E-003 -1.895368830445667E-003
 -1.895388241540964E-003 -1.895385130237814E-003
 -1.895404923948067E-003 -1.895368364479523E-003
 -1.895369714958775E-003 -1.895403527066382E-003
 -1.895398414638214E-003 -1.895374894611532E-003
 -1.895390556854540E-003 -1.895382733557600E-003
 -1.895370415010496E-003 -1.895402895151913E-003
 -1.895393822503334E-003 -1.895379552769934E-003
 -1.895368576898370E-003 -1.895404670044182E-003
 -1.895390269334434E-003 -1.895383020913974E-003
 -1.895393154172449E-003 -1.895380164155310E-003
 -1.895404469581708E-003 -1.895368770300680E-003
 -1.895410673722180E-003 -1.895362602953940E-003
 -1.895385359181213E-003 -1.895388004310781E-003
 -1.895396414142998E-003 -1.895376873484643E-003
 -1.895415077129826E-003 -1.895358212340961E-003
 -1.895375067663995E-003 -1.895398322177324E-003
 -1.895356540992736E-003 -1.895416712961591E-003
 -1.895403131794939E-003 -1.895370138299929E-003
 -1.895373406097220E-003 -1.895399922333034E-003
 -1.895375709654223E-003 -1.895397536905758E-003
 -1.895374606463441E-003 -1.895398693261884E-003
 -1.895397232806448E-003 -1.895376020208915E-003
 -1.895392985392760E-003 -1.895380267397290E-003
 -1.895383932286241E-003 -1.895389352547888E-003
 -1.895377029817999E-003 -1.895396277092884E-003
 -1.895376596154362E-003 -1.895396668478172E-003
 -1.895412531492835E-003 -1.895360752925907E-003
 -1.895395258594753E-003 -1.895377989495034E-003
 -1.895375210907454E-003 -1.895398032908431E-003
 -1.895397884841461E-003 -1.895375401620356E-003
 -1.895362287615278E-003 -1.895410950748824E-003
 -1.895373395722741E-003 -1.895399866726216E-003
 -1.895385828082247E-003 -1.895387408374279E-003
 -1.895388798644453E-003 -1.895384449007375E-003
 -1.895404558330781E-003 -1.895368773356236E-003
 -1.895399290181394E-003 -1.895373969126184E-003
 -1.895386991198792E-003 -1.895386321449968E-003
 -1.895378142107637E-003 -1.895395153900448E-003
 -1.895398085176979E-003 -1.895375157622499E-003
 -1.895401241582219E-003 -1.895372003073648E-003
 -1.895361164292435E-003 -1.895412138486177E-003
 -1.895385192666564E-003 -1.895388054647617E-003
 -1.895365614346200E-003 -1.895407613760891E-003
 -1.895365262882836E-003 -1.895408028672912E-003
 -1.895393580354944E-003 -1.895379700070375E-003
 -1.895384414660280E-003 -1.895388933900787E-003
 -1.895386103947226E-003 -1.895387155998605E-003
 -1.895371572071824E-003 -1.895401691983654E-003
 -1.895424363908262E-003 -1.895348892730089E-003
 -1.895364924671093E-003 -1.895408329620454E-003
 -1.895398258636882E-003 -1.895375003744259E-003
 -1.895349362782162E-003 -1.895423879572019E-003
 -1.895406184075088E-003 -1.895367082825191E-003
 -1.895371078737431E-003 -1.895402179221327E-003
 -1.895407226027016E-003 -1.895365990506368E-003
 -1.895358976548792E-003 -1.895414293036950E-003
 -1.895394214631729E-003 -1.895379049494257E-003
 -1.895375643577160E-003 -1.895397569014625E-003
 -1.895384030188516E-003 -1.895389248183592E-003
 -1.895414893767478E-003 -1.895358352599977E-003
 -1.895348572783599E-003 -1.895424704950877E-003
 -1.895419104359282E-003 -1.895354148528912E-003
 -1.895372007891809E-003 -1.895401247382592E-003
 -1.895419917555168E-003 -1.895353322379906E-003
 -1.895371771910204E-003 -1.895401487971275E-003
 -1.895399239892612E-003 -1.895373999701129E-003
 -1.895382775244744E-003 -1.895390472141094E-003
 -1.895397327956849E-003 -1.895375920366613E-003
 -1.895431809728687E-003 -1.895341461078471E-003
 -1.895377980156277E-003 -1.895395259183739E-003
 -1.895424657857182E-003 -1.895348595233766E-003
 -1.895402448918609E-003 -1.895370820205817E-003
 -1.895369383924735E-003 -1.895403971535695E-003
 -1.895389464340710E-003 -1.895383823661841E-003
 -1.895401057004226E-003 -1.895372246936485E-003
 -1.895368598729692E-003 -1.895404769214364E-003
 -1.895427572798880E-003 -1.895345708490370E-003
 -1.895428364345272E-003 -1.895344910813537E-003
 -1.895364138251213E-003 -1.895409217672487E-003
 -1.895410654974052E-003 -1.895362624591168E-003
 -1.895378566821868E-003 -1.895394702963585E-003
 -1.895395030341605E-003 -1.895378314976182E-003
 -1.895360457834358E-003 -1.895412835048434E-003
[...]
  2.630   2.638   2.639   2.646   2.650   2.662   2.669   2.675
  2.680   2.686   2.688   2.696   2.703   2.704   2.710   2.713
  2.718   2.718   2.720   2.723   2.724   2.727   2.729   2.731
  2.735   2.736   2.737   2.739   2.742   2.743   2.745   2.746
  2.750   2.752   2.753   2.756   2.762   2.771   2.775   2.775
  2.782   2.784   2.786   2.789   2.792   2.802   2.809   2.811
  2.817   2.820   2.824   2.827   2.828   2.829   2.832   2.834
  2.836   2.837   2.841   2.845   2.848   2.854   2.862   2.869
  2.878   2.882   2.884   2.887   2.894   2.897   2.902   2.903
  2.908   2.915   2.920   2.934   2.942   2.945   2.953   2.954
  2.961   2.962   2.963   2.976   2.982   2.984   2.985   2.991
  2.991   2.998   3.005   3.019   3.021   3.032   3.035   3.041
  3.042   3.062   3.064   3.075   3.091   3.103   3.127   3.136
  3.143   3.150   3.176   3.188   3.212   3.213   3.215   3.217
  3.230   3.263   3.314   3.356   3.425   3.456   3.458   3.462
  3.483   3.505   3.507   3.530   3.540   3.563   3.581   3.585
  3.600   3.699   3.715   9.669   9.815  13.180  13.193  13.216
 13.263  13.284  13.353  13.450  13.455  13.472  13.535  13.562
 13.575  13.594  13.654  13.662  13.676  13.683  13.689  13.698
 13.718  13.723  13.724  13.753  13.770  13.783  13.790  13.798
 13.813  13.817  13.829  13.844  13.848  13.853  13.855  13.883
 13.890  13.907  13.909  13.913  13.918  13.945  14.025  14.041
 14.044  14.048  14.051  14.064  14.067  14.068  14.092  14.106
 14.108  14.113  14.128  14.157  14.177  14.182  14.184  14.191
 14.197  14.199  14.206  14.213  14.234  14.239  14.240  14.241
 14.251  14.263  14.272  14.274  14.291  14.308  14.313  14.321
 14.339  14.464  14.481  14.524  14.541  14.570  14.572  14.574
 14.584  14.595  14.607  14.608  14.612  14.619  14.642  19.542
 19.661
 --------------------------------------------------------------
 
          Ground-State Mulliken Net Atomic Charges

     Atom                 Charge (a.u.)    Spin (a.u.)
  --------------------------------------------------------
      1 N                    -0.602834       0.449342
      2 C                     0.294154      -0.104095
      3 C                     0.292812      -0.102976
      4 C                     0.192029       0.230734
      5 C                    -0.301132      -0.150795
      6 H                     0.252412       0.007153
      7 C                    -0.199322       0.251729
      8 H                     0.266940      -0.013526
      9 C                    -0.242072      -0.132394
     10 H                     0.277332       0.005972
     11 C                    -0.267353       0.184378
     12 H                     0.317691      -0.009928
     13 C                     0.192489       0.230068
     14 C                    -0.301882      -0.150618
     15 H                     0.252710       0.007151
     16 C                    -0.198747       0.251415
     17 H                     0.266842      -0.013542
     18 C                    -0.241238      -0.133450
     19 H                     0.270684       0.006105
     20 C                    -0.263145       0.185378
     21 H                     0.312626      -0.009941
     22 C                     0.122761      -0.026639
     23 C                    -0.299879       0.015666
     24 H                     0.238860      -0.000239
     25 C                    -0.287018       0.016284
     26 H                     0.236282      -0.000363
     27 C                     0.031710       0.002268
     28 C                     0.036661       0.003780
     29 C                    -0.145763      -0.025800
     30 C                    -0.537655       0.004575
     31 H                     0.221735       0.000640
     32 H                     0.282154      -0.002303
     33 C                    -0.545419       0.004759
     34 H                     0.283315      -0.002732
     35 H                     0.223527       0.000751
     36 C                    -0.238057      -0.038282
     37 C                    -0.654810      -0.000162
     38 H                     0.229369       0.000059
     39 H                     0.261088      -0.000685
     40 H                     0.198512      -0.000080
     41 C                    -0.656199       0.000148
     42 H                     0.267618      -0.001050
     43 H                     0.227025       0.000056
     44 H                     0.198605      -0.000095
     45 C                    -0.603666       0.022780
     46 H                     0.247617      -0.000931
     47 H                     0.242291       0.000524
     48 H                     0.243038       0.000408
     49 C                    -0.609834       0.020199
     50 H                     0.250330      -0.000711
     51 H                     0.241975       0.000133
     52 H                     0.242509       0.000176
     53 B                     0.476962       0.403636
     54 C                    -0.085045       0.003778
     55 C                    -0.444793       0.021410
     56 H                     0.200004      -0.002485
     57 C                     0.102890       0.024049
     58 C                     0.089530       0.091514
     59 C                    -0.442461      -0.048874
     60 H                     0.228153       0.001937
     61 C                    -0.098714       0.056219
     62 C                     0.115202      -0.006178
     63 C                     0.067690       0.002976
     64 C                    -0.317496      -0.000956
     65 H                     0.215093      -0.000030
     66 C                    -0.280300       0.008168
     67 H                     0.215779      -0.000549
     68 C                     0.136453      -0.002432
     69 C                    -0.402955       0.005965
     70 H                     0.205758      -0.000310
     71 C                     0.122833      -0.031478
     72 C                    -0.407228       0.027731
     73 H                     0.224901      -0.001700
     74 C                     0.141475      -0.019219
     75 C                    -0.281985       0.032221
     76 H                     0.216861      -0.001954
     77 C                    -0.317719      -0.019779
     78 H                     0.210646       0.001033
     79 C                     0.063325       0.030131
     80 C                    -0.725074       0.001522
     81 H                     0.247072      -0.000089
     82 H                     0.231378      -0.000722
     83 H                     0.235304      -0.000542
     84 C                    -0.719318       0.000106
     85 H                     0.225592      -0.000034
     86 H                     0.225697      -0.000082
     87 H                     0.240521      -0.000100
     88 C                    -0.082823       0.000599
     89 C                    -0.447774       0.021998
     90 H                     0.203936      -0.002476
     91 C                     0.099641       0.024954
     92 C                     0.089660       0.090152
     93 C                    -0.443424      -0.046795
     94 H                     0.228344       0.001806
     95 C                    -0.100164       0.054145
     96 C                     0.122482      -0.030971
     97 C                    -0.404563       0.027143
     98 H                     0.222891      -0.001651
     99 C                     0.140050      -0.018880
    100 C                    -0.281630       0.031708
    101 H                     0.216670      -0.001923
    102 C                    -0.317894      -0.019401
    103 H                     0.211086       0.001011
    104 C                     0.065014       0.029574
    105 C                     0.110789      -0.006240
    106 C                     0.070084       0.003173
    107 C                    -0.317622      -0.001172
    108 H                     0.214540      -0.000017
    109 C                    -0.279979       0.008305
    110 H                     0.215998      -0.000555
    111 C                     0.138150      -0.002512
    112 C                    -0.396672       0.006050
    113 H                     0.204579      -0.000254
    114 C                    -0.720678       0.001491
    115 H                     0.240638      -0.000082
    116 H                     0.234856      -0.000581
    117 H                     0.233331      -0.000670
    118 C                    -0.716857       0.000187
    119 H                     0.219130      -0.000025
    120 H                     0.232605      -0.000085
    121 H                     0.237246      -0.000093
    122 B                     0.527310       0.292914
    123 C                    -0.187836      -0.027891
    124 C                     0.045214       0.005160
    125 C                    -0.295717      -0.002191
    126 H                     0.224745       0.000443
    127 C                     0.187745       0.002653
    128 C                    -0.311378      -0.002136
    129 H                     0.225121       0.000416
    130 C                     0.042915       0.005094
    131 N                    -0.717811      -0.000147
    132 C                     0.313514       0.000064
    133 C                     0.312183       0.000066
    134 C                     0.134282      -0.000020
    135 C                    -0.301035       0.000022
    136 H                     0.215289      -0.000000
    137 C                    -0.244280      -0.000024
    138 H                     0.218059       0.000002
    139 C                    -0.246713       0.000018
    140 H                     0.229415      -0.000002
    141 C                    -0.320799      -0.000012
    142 H                     0.264627      -0.000008
    143 C                     0.133374      -0.000018
    144 C                    -0.301078       0.000018
    145 H                     0.215254      -0.000000
    146 C                    -0.243665      -0.000020
    147 H                     0.218525       0.000002
    148 C                    -0.245859       0.000015
    149 H                     0.226651      -0.000002
    150 C                    -0.318921      -0.000004
    151 H                     0.261420      -0.000010
    152 C                    -0.541099       0.003064
    153 H                     0.224977       0.000393
    154 H                     0.263041      -0.002159
    155 C                    -0.542322       0.003023
    156 H                     0.261499      -0.002189
    157 H                     0.224964       0.000436
    158 C                    -0.204489       0.000004
    159 C                    -0.650934      -0.000196
    160 H                     0.246628      -0.000286
    161 H                     0.215189       0.000002
    162 H                     0.212047      -0.000060
    163 C                    -0.653934      -0.000047
    164 H                     0.250454      -0.000396
    165 H                     0.212195      -0.000077
    166 H                     0.213094      -0.000005
    167 C                    -0.605042      -0.000001
    168 H                     0.235179       0.000000
    169 H                     0.218290      -0.000000
    170 H                     0.218128      -0.000000
    171 C                    -0.608947      -0.000001
    172 H                     0.218599      -0.000000
    173 H                     0.218487      -0.000000
    174 H                     0.236095       0.000000
  --------------------------------------------------------
  Sum of atomic charges =    -0.000000
  Sum of spin   charges =     2.000000

 -----------------------------------------------------------------
                    Cartesian Multipole Moments
 -----------------------------------------------------------------
    Charge (ESU x 10^10)
                -0.0000
    Dipole Moment (Debye)
         X      27.2352      Y      -7.0988      Z      18.7981
       Tot      33.8455
    Quadrupole Moments (Debye-Ang)
        XX    -665.5089     XY      25.6489     YY    -567.9611
        XZ    -100.0500     YZ      16.9490     ZZ    -592.8605
    Octopole Moments (Debye-Ang^2)
       XXX   10371.8596    XXY    -918.7557    XYY    3270.3931
       YYY   -2254.7006    XXZ    2907.7183    XYZ    -144.1363
       YYZ    2367.2312    XZZ    3580.9928    YZZ    -886.1114
       ZZZ    7158.0845
    Hexadecapole Moments (Debye-Ang^3)
      XXXX -191409.0614   XXXY   24700.5959   XXYY  -35706.1717
      XYYY   26056.3023   YYYY  -20097.9925   XXXZ  -57873.5471
      XXYZ    5416.1100   XYYZ  -18710.6735   YYYZ   13362.8856
      XXZZ  -54555.1116   XYZZ    8650.4188   YYZZ  -25440.3757
      XZZZ  -55152.7789   YZZZ   13571.8042   ZZZZ -123366.0214
 -----------------------------------------------------------------
Archival summary:
1\1\ctcp003\OPT\ProcedureUnspecified\BasisUnspecified\290280(3)\mewes\TueDec402:21:042018TueDec402:21:042018\0\\#,OPT,ProcedureUnspecified,BasisUnspecified,\\0,3\N\C,1,1.38778\C,1,1.38864,2,121.693\C,3,1.39945,1,120.831,2,-0.109294,0\C,4,1.39173,3,118.37,1,179.632,0\H,5,1.08327,4,118.886,3,179.71,0\C,5,1.3827,4,122.627,3,0.019417,0\H,7,1.08175,5,120.477,4,-179.862,0\C,7,1.38569,5,118.513,4,0.339451,0\H,9,1.08246,7,120.475,5,179.92,0\C,9,1.38114,7,120.36,5,-0.0809522,0\H,11,1.08059,9,118.966,7,179.691,0\C,2,1.39993,1,120.88,3,0.60745,0\C,13,1.39149,2,118.331,1,179.729,0\H,14,1.0835,13,118.827,2,-179.586,0\C,14,1.38308,13,122.626,2,0.0436775,0\H,16,1.08173,14,120.443,13,-179.785,0\C,16,1.38608,14,118.545,13,0.090771,0\H,18,1.08274,16,120.509,14,-179.922,0\C,18,1.381,16,120.308,14,-0.0623013,0\H,20,1.08074,18,119.091,16,-179.748,0\C,1,1.42336,2,119.356,3,-175.554,0\C,22,1.38283,1,119.617,2,82.1049,0\H,23,1.08511,22,119.127,1,-1.32317,0\C,22,1.383,1,120.544,2,-99.2145,0\H,25,1.08479,22,119.347,1,1.02334,0\C,23,1.39011,22,120.67,1,178.96,0\C,25,1.39126,22,120.298,1,-177.534,0\C,27,1.40432,23,120.233,22,-1.49578,0\C,28,1.50554,25,118.192,22,175.062,0\H,30,1.0917,28,110.399,25,150.856,0\H,30,1.09335,28,109.573,25,33.9881,0\C,27,1.50695,23,117.99,22,176.153,0\H,33,1.09141,27,110.566,23,152.203,0\H,33,1.09364,27,109.468,23,35.409,0\C,4,1.51988,3,122.73,1,-1.55631,0\C,33,1.52756,27,111.709,23,-85.7238,0\H,37,1.09026,33,110.991,27,-60.5986,0\H,37,1.09089,33,111.04,27,179.561,0\H,37,1.09128,33,111.174,27,59.4503,0\C,30,1.52777,28,111.422,25,-87.1769,0\H,41,1.09008,30,110.945,28,-60.4068,0\H,41,1.09102,30,111.22,28,179.595,0\H,41,1.09125,30,111.007,28,59.4089,0\C,36,1.53816,4,109.312,3,123.041,0\H,45,1.08978,36,110.898,4,-60.8958,0\H,45,1.09033,36,111.315,4,178.822,0\H,45,1.09045,36,111.381,4,59.4088,0\C,36,1.53934,4,108.849,3,-117.536,0\H,49,1.09001,36,110.842,4,60.8028,0\H,49,1.09089,36,111.275,4,-179.014,0\H,49,1.09091,36,111.271,4,-59.3263,0\B,29,1.58561,27,120.859,23,-177.584,0\C,53,1.53455,29,121.32,27,-99.3594,0\C,54,1.39285,53,120.907,29,1.55212,0\H,55,1.08215,54,116.729,53,-1.54563,0\C,55,1.39072,54,123.854,53,177.735,0\C,57,1.41984,55,118.099,54,-1.49392,0\C,58,1.39015,57,118.344,55,4.33519,0\H,59,1.08296,58,119.187,57,176.804,0\C,59,1.39798,58,123.76,57,-3.70973,0\C,57,1.45629,55,121.866,54,178.446,0\C,62,1.4049,57,121.356,55,-3.07858,0\H,63,1.08155,62,119.658,57,0.417814,0\C,63,1.37756,62,122.889,57,-179.161,0\C,65,1.39874,63,117.919,62,0.613814,0\H,66,1.08378,65,119.94,63,179.312,0\C,66,1.37428,65,120.441,63,-0.571719,0\H,68,1.08091,66,117.755,65,179.601,0\C,68,1.40315,66,121.967,65,-0.142092,0\C,58,1.4574,57,119.397,55,-174.262,0\C,71,1.40325,58,121.221,57,173.22,0\H,72,1.08164,71,119.326,58,-0.176878,0\C,72,1.37733,71,122.932,58,-178.663,0\C,74,1.39802,72,117.931,71,0.0699131,0\H,75,1.08378,74,120.051,72,179.606,0\C,75,1.37416,74,120.376,72,0.550473,0\H,77,1.08083,75,117.816,74,178.611,0\C,77,1.40285,75,122.06,74,-0.458563,0\C,74,1.50022,72,121.322,71,179.272,0\H,80,1.09032,74,111.299,72,-1.37358,0\H,80,1.09133,74,111.343,72,-121.404,0\H,80,1.09167,74,111.454,72,118.975,0\C,65,1.5006,63,121.305,62,-179.406,0\H,84,1.08987,65,111.64,63,-3.99853,0\H,84,1.09117,65,111.458,63,-124.318,0\H,84,1.09189,65,111.22,63,116.257,0\B,61,1.52897,59,121.958,58,-178.819,0\C,88,1.53124,61,118.989,59,173.544,0\C,89,1.39865,88,122.125,61,-174.561,0\H,90,1.08259,89,117.197,88,-2.05594,0\C,90,1.38966,89,123.914,88,177.347,0\C,92,1.4205,90,118.302,89,2.6904,0\C,93,1.39019,92,118.08,90,-0.947257,0\H,94,1.08219,93,119.272,92,179.231,0\C,94,1.39288,93,123.954,92,-1.52561,0\C,93,1.45707,92,120.173,90,179.374,0\C,97,1.40547,93,120.007,92,-1.10937,0\C,98,1.40331,97,118.23,93,-179.397,0\H,99,1.08077,98,120.349,97,179.652,0\C,99,1.37397,98,121.991,97,-0.799756,0\H,101,1.08381,99,119.623,98,-179.539,0\C,101,1.39835,99,120.427,98,-0.148947,0\C,103,1.378,101,117.945,99,0.739754,0\H,104,1.0816,103,117.403,101,-179.622,0\C,92,1.4586,90,122.209,89,-176.644,0\C,106,1.40435,92,121.418,90,3.2847,0\H,107,1.08178,106,119.379,92,0.864262,0\C,107,1.37766,106,122.936,92,179.567,0\C,109,1.39774,107,117.965,106,0.431595,0\H,110,1.08382,109,120.046,107,179.811,0\C,110,1.37378,109,120.352,107,-0.961624,0\H,112,1.08068,110,117.74,109,-179.058,0\C,112,1.40315,110,122.088,109,0.274812,0\C,103,1.50005,101,120.653,99,-179.309,0\H,115,1.08949,103,111.746,101,171.843,0\H,115,1.091,103,111.382,101,51.5018,0\H,115,1.09231,103,111.3,101,-67.816,0\C,109,1.50026,107,121.468,106,-178.681,0\H,119,1.09008,109,111.613,107,-3.81222,0\H,119,1.09164,109,111.236,107,116.18,0\H,119,1.09176,109,111.504,107,-124.496,0\C,88,1.58858,61,121.708,59,-8.38126,0\C,123,1.40563,88,121.262,61,103.881,0\C,124,1.39084,123,120.404,88,175.198,0\H,125,1.08454,124,120.399,123,-178.848,0\C,125,1.38174,124,119.397,123,0.0953416,0\C,127,1.3812,125,121.669,124,1.13644,0\H,128,1.08431,127,120.3,125,179.935,0\C,128,1.39179,127,119.229,125,-0.910016,0\N,127,1.4391,125,118.457,124,-177.046,0\C,131,1.37554,127,118.783,125,-82.9404,0\C,131,1.37598,127,118.243,125,94.7712,0\C,133,1.40699,131,120.199,127,-176.534,0\C,134,1.38753,133,117.55,131,-179.691,0\H,135,1.08157,134,119.509,133,-179.647,0\C,135,1.38546,134,121.809,133,-0.35153,0\H,137,1.08141,135,119.76,134,-179.917,0\C,137,1.39338,135,120.108,134,-0.534477,0\H,139,1.08117,137,120.614,135,-179.202,0\C,139,1.37196,137,119.821,135,0.488097,0\H,141,1.07996,139,119.581,137,-179.511,0\C,132,1.40711,131,120.204,127,174.603,0\C,143,1.38691,132,117.468,131,-178.127,0\H,144,1.08155,143,119.519,132,179.072,0\C,144,1.38572,143,121.772,132,-0.703078,0\H,146,1.08135,144,119.706,143,179.886,0\C,146,1.39351,144,120.162,143,-0.367911,0\H,148,1.08117,146,120.524,144,-179.231,0\C,148,1.37197,146,119.807,144,0.727993,0\H,150,1.07999,148,119.969,146,-179.845,0\C,130,1.50524,128,118.19,127,-176.96,0\H,152,1.09032,130,109.885,128,-147.969,0\H,152,1.09329,130,109.508,128,-31.2431,0\C,124,1.50588,123,121.218,88,-6.09829,0\H,155,1.09073,124,109.925,123,35.9142,0\H,155,1.0935,124,109.566,123,152.601,0\C,134,1.50808,133,122.249,131,2.86504,0\C,155,1.52711,124,112.071,123,-85.7482,0\H,159,1.08984,155,111.114,124,61.7535,0\H,159,1.09025,155,110.73,124,-178.852,0\H,159,1.09157,155,111.392,124,-58.8451,0\C,152,1.52785,130,111.866,128,90.3326,0\H,163,1.08967,152,111.095,130,60.2172,0\H,163,1.09035,152,110.742,130,179.849,0\H,163,1.0916,152,111.312,130,-60.1611,0\C,158,1.53961,134,109.086,133,-124.945,0\H,167,1.08897,158,111.098,134,-58.3553,0\H,167,1.08902,158,111.083,134,-177.579,0\H,167,1.0895,158,110.955,134,62.0138,0\C,158,1.54317,134,107.975,133,114.997,0\H,171,1.0895,158,110.955,134,179.056,0\H,171,1.08953,158,110.839,134,59.4971,0\H,171,1.08997,158,111.047,134,-60.6433,0\\\@

 Total job time:  221315.33s(wall), 1533840.90s(cpu) 
 Tue Dec  4 02:21:04 2018

        *************************************************************
        *                                                           *
        *  Thank you very much for using Q-Chem.  Have a nice day.  *
        *                                                           *
        *************************************************************


0 sent ACK to 0 
now end server 0 ... 
