mFile = /cm/shared/apps/q-chem/intel/QCHEM_5.0.1_Trunk/bin/mpi/machines
Process 0 of 1 is on ctcp009 - thread support 0
initial socket setup ...start
initial socket setup ...done 
now start server 0 ... 
ctcp009.cm.cluster 10.141.0
Q-Chem Developer Version! Running on 10.141.0.*
                  Welcome to Q-Chem
     A Quantum Leap Into The Future Of Chemistry


 Q-Chem 5.0, Q-Chem, Inc., Pleasanton, CA (2017)

 Yihan Shao,  Zhengting Gan,  E. Epifanovsky,  A. T. B. Gilbert,  M. Wormit,  
 J. Kussmann,  A. W. Lange,  A. Behn,  Jia Deng,  Xintian Feng,  D. Ghosh,  
 M. Goldey,  P. R. Horn,  L. D. Jacobson,  I. Kaliman,  T. Kus,  A. Landau,  
 Jie Liu,  E. I. Proynov,  R. M. Richard,  R. P. Steele,  E. J. Sundstrom,  
 H. L. Woodcock III,  P. M. Zimmerman,  D. Zuev,  B. Albrecht,  E. Alguire,  
 S. A. Baeppler,  Z. Benda,  Y. A. Bernard,  E. J. Berquist,  K. B. Bravaya,  
 D. Casanova,  Chun-Min Chang,  Yunqing Chen,  A. Chien,  K. D. Closser,  
 M. P. Coons,  S. Dasgupta,  M. Diedenhofen,  Hainam Do,  R. G. Edgar,  
 Po-Tung Fang,  S. Fatehi,  Qingguo Feng,  Qinghui Ge,  A. Ghysels,  
 J. Gomes,  J. Gonthier,  A. Gunina,  M. W. D. Hanson-Heine,  
 P. H. P. Harbach,  A. W. Hauser,  J. E. Herr,  E. G. Hohenstein,  
 Z. C. Holden,  Kerwin Hui,  T.-C. Jagau,  Hyunjun Ji,  B. Kaduk,  
 K. Khistyaev,  Jaehoon Kim,  P. Klunzinger,  K. Koh,  D. Kosenkov,  
 T. Kowalczyk,  C. M. Krauter,  A. Kunitsa,  Ka Un Lao,  A. Laurent,  
 K. V. Lawler,  Joonho Lee,  D. Lefrancois,  S. Lehtola,  D. S. Levine,  
 Yi-Pei Li,  You-Sheng Lin,  Fenglai Liu,  E. Livshits,  A. Luenser,  
 P. Manohar,  E. Mansoor,  S. F. Manzer,  Shan-Ping Mao,  Yuezhi Mao,  
 N. Mardirossian,  A. V. Marenich,  L. A. Martinez-Martinez,  S. A. Maurer,  
 N. J. Mayhall,  S. C. McKenzie,  J.-M. Mewes,  A. F. Morrison,  K. Nanda,  
 T. S. Nguyen-Beck,  R. Olivares-Amaya,  J. A. Parkhill,  T. M. Perrine,  
 F. Plasser,  S. Prager,  A. Prociuk,  D. R. Rehn,  F. Rob,  M. Schneider,  
 N. Sergueev,  S. M. Sharada,  S. Sharma,  D. W. Small,  T. Stauch,  
 T. Stein,  Yu-Chuan Su,  A. J. W. Thom,  T. Tsuchimochi,  L. Vogt,  
 O. Vydrov,  M. A. Watson,  J. Wenzel,  M. de Wergifosse,  T. A. Wesolowski,  
 A. White,  J. Witte,  A. Yamada,  Jun Yang,  K. Yao,  S. Yeganeh,  
 S. R. Yost,  Zhi-Qiang You,  A. Zech,  Igor Ying Zhang,  Xing Zhang,  
 Yan Zhao,  Ying Zhu,  B. R. Brooks,  G. K. L. Chan,  C. J. Cramer,  
 M. S. Gordon,  W. J. Hehre,  A. Klamt,  M. W. Schmidt,  C. D. Sherrill,  
 D. G. Truhlar,  A. Aspuru-Guzik,  R. Baer,  A. T. Bell,  N. A. Besley,  
 Jeng-Da Chai,  A. Dreuw,  B. D. Dunietz,  T. R. Furlani,  Chao-Ping Hsu,  
 Yousung Jung,  Jing Kong,  D. S. Lambrecht,  WanZhen Liang,  C. Ochsenfeld,  
 V. A. Rassolov,  L. V. Slipchenko,  J. E. Subotnik,  T. Van Voorhis,  
 J. M. Herbert,  A. I. Krylov,  P. M. W. Gill,  M. Head-Gordon

 Contributors to earlier versions of Q-Chem not listed above: 
 R. D. Adamson,  B. Austin,  J. Baker,  G. J. O. Beran,  K. Brandhorst,  
 S. T. Brown,  E. F. C. Byrd,  A. K. Chakraborty,  C.-L. Cheng,  
 Siu Hung Chien,  D. M. Chipman,  D. L. Crittenden,  H. Dachsel,  
 R. A. DiStasio Jr.,  R. J. Doerksen,  A. D. Dutoi,  L. Fusti-Molnar,  
 W. A. Goddard III,  A. Golubeva-Zadorozhnaya,  S. R. Gwaltney,  G. Hawkins,  
 A. Heyden,  S. Hirata,  G. Kedziora,  F. J. Keil,  C. Kelley,  Jihan Kim,  
 R. A. King,  R. Z. Khaliullin,  P. P. Korambath,  W. Kurlancheek,  
 A. M. Lee,  M. S. Lee,  S. V. Levchenko,  Ching Yeh Lin,  D. Liotard,  
 R. C. Lochan,  I. Lotan,  P. E. Maslen,  N. Nair,  D. P. O'Neill,  
 D. Neuhauser,  E. Neuscamman,  C. M. Oana,  R. Olson,  B. Peters,  
 R. Peverati,  P. A. Pieniazek,  Y. M. Rhee,  J. Ritchie,  M. A. Rohrdanz,  
 E. Rosta,  N. J. Russ,  H. F. Schaefer III,  N. E. Schultz,  N. Shenvi,  
 A. C. Simmonett,  A. Sodt,  D. Stuck,  K. S. Thanthiriwatte,  V. Vanovschi,  
 Tao Wang,  A. Warshel,  C. F. Williams,  Q. Wu,  X. Xu,  W. Zhang

 Please cite Q-Chem as follows:
 Y. Shao et al., Mol. Phys. 113, 184-215 (2015)
 DOI: 10.1080/00268976.2014.952696

 Q-Chem 5.0.1 for Intel X86 EM64T Linux

 Parts of Q-Chem use Armadillo 5.200.1 (Boston Tea Smuggler).
 http://arma.sourceforge.net/

 Q-Chem begins on Sat Dec  1 15:38:51 2018  

Host: ctcp009
0

     Scratch files written to /scratch/mewes/141056/qchem124817//
 Parallel job on  1  processors
The previous job contains 0 fragments, simply inherited here
Symmetry turned off for PCM/SM12/SMD calculation

Checking the input file for inconsistencies... 	...done.

--------------------------------------------------------------
User input:
--------------------------------------------------------------
$rem
threads 8
jobtype opt
method PBEh-3c
basis def2-mSVP
mem_static      1024
mem_total       8000
sym_ignore      true
unrestricted true
scf_algorithm   diis
scf_max_cycles  250
solvent_method  pcm
geom_opt_tol_energy 25
geom_opt_tol_gradient 75
$end

$pcm
theory  iefpcm
HPoints 194
HeavyPoints 194
$end

$solvent
dielectric      1.0001
$end

$molecule
read utLEincoords.mol
$end

--------------------------------------------------------------
 Adding empirical dispersion correction 
 ----------------------------------------------------------------
 Doing -D3(BJ) with
 s6 =   1.00000
 s8 =   0.00000
 a1 =   0.48600
 a2 =   4.50000
 -D3 energy including 3body term =     -0.1735819945 hartrees
 ----------------------------------------------------------------
 Adding gCP correction 
 ----------------------------------------------------------------
 gCP energy =      0.2390955478 hartrees
 ----------------------------------------------------------------
             Standard Nuclear Orientation (Angstroms)
    I     Atom           X                Y                Z
 ----------------------------------------------------------------
    1      C      -6.1172940000     3.8967720000     2.1794220000
    2      C      -6.6029450000     2.5449160000     2.3993560000
    3      B      -5.7098560000     1.3258720000     2.1484420000
    4      C      -4.2608600000     1.5856180000     1.7363550000
    5      C      -3.7675800000     2.9354370000     1.5222270000
    6      B      -4.6890030000     4.1451620000     1.6891950000
    7      C      -2.4420810000     3.0869090000     1.1232390000
    8      C      -1.5781650000     2.0268430000     0.8868660000
    9      C      -2.0768680000     0.6844470000     1.0829950000
   10      C      -3.3851260000     0.5288880000     1.5151610000
   11      C      -7.0225340000     4.9460340000     2.3245350000
   12      C      -8.3549890000     4.7776000000     2.6707940000
   13      C      -8.8355650000     3.4307560000     2.8951120000
   14      C      -7.9407300000     2.3831340000     2.7426140000
   15      H      -6.6487200000     5.9412160000     2.1249450000
   16      C      -6.3271080000    -0.1269340000     2.2049050000
   17      C      -4.2450950000     5.5916840000     1.2524030000
   18      C      -6.6113210000    -0.8144140000     1.0120300000
   19      C      -7.2320380000    -2.0562310000     1.0592850000
   20      C      -7.6216530000    -2.6100130000     2.2626400000
   21      C      -7.3391740000    -1.9499620000     3.4445480000
   22      C      -6.6762420000    -0.7275440000     3.4271950000
   23      C      -6.3251520000    -0.0863220000     4.7447980000
   24      C      -6.3305970000    -0.2272170000    -0.3487280000
   25      H      -7.4644170000    -2.5838300000     0.1407940000
   26      N      -8.3529400000    -3.8289510000     2.2675510000
   27      H      -7.6363020000    -2.3984140000     4.3856450000
   28      C      -4.8484670000    -0.2337260000     5.0989510000
   29      H      -6.9250130000    -0.5452440000     5.5329530000
   30      H      -6.5947700000     0.9717830000     4.7422300000
   31      C      -7.3684510000     0.8032550000    -0.7846440000
   32      H      -6.3165900000    -1.0387260000    -1.0793190000
   33      H      -5.3355180000     0.2186610000    -0.3841670000
   34      C      -4.0084350000     6.5989380000     2.2023610000
   35      C      -3.6686550000     7.8807450000     1.7844340000
   36      C      -3.5450020000     8.1695380000     0.4376440000
   37      C      -3.7633230000     7.1816060000    -0.5029940000
   38      C      -4.1201710000     5.8967960000    -0.1137990000
   39      C      -4.3819720000     4.8750820000    -1.1941560000
   40      C      -4.0887810000     6.3172150000     3.6815020000
   41      H      -3.4860210000     8.6636040000     2.5117590000
   42      N      -3.1902910000     9.4756340000     0.0146910000
   43      H      -3.6605010000     7.4250170000    -1.5544940000
   44      H      -3.9416200000     5.2390870000    -2.1244800000
   45      C      -5.8612780000     4.5885210000    -1.4398870000
   46      H      -3.8639000000     3.9406910000    -0.9692330000
   47      H      -5.0196460000     5.7965710000     3.9193670000
   48      H      -4.1353900000     7.2668140000     4.2175050000
   49      C      -2.9081150000     5.5076610000     4.2100110000
   50      C      -0.2150210000     2.2221500000     0.4309870000
   51      C     -10.2253260000     3.2048140000     3.2422860000
   52      C     -10.7157570000     1.9110530000     3.4926120000
   53      C       1.5847410000     3.7397980000    -0.2197940000
   54      C       2.3896020000     2.6253070000    -0.4691910000
   55      C     -12.8979080000     2.7518970000     3.8925090000
   56      C     -12.0308200000     1.6593310000     3.8180520000
   57      C     -12.5238590000     0.2702340000     4.0873750000
   58      H      -3.7758290000    -0.4659470000     1.6849060000
   59      C       0.3020030000     3.5105780000     0.2251280000
   60      H      -2.0904910000     4.1001360000     0.9811640000
   61      C      -1.2214870000    -0.4536840000     0.8060530000
   62      C       0.3911300000    -2.6554440000     0.2451340000
   63      C      -0.9157310000    -2.8756760000     0.6868270000
   64      C      -1.6901110000    -1.7693810000     0.9571320000
   65      C      -1.4522930000    -4.2655600000     0.8519270000
   66      H      -2.7052810000    -1.9408380000     1.2887160000
   67      H      -8.2927540000     1.3684900000     2.8697500000
   68      H     -10.0447580000     1.0642620000     3.4407720000
   69      C      -9.2779220000     5.8916960000     2.7853630000
   70      C      -8.8502430000     7.2141780000     2.5859190000
   71      C      -9.6992680000     8.2958360000     2.6753990000
   72      C     -11.0397130000     8.0425760000     2.9739560000
   73      C      -9.2106620000     9.6956190000     2.4640140000
   74      H      -7.8109030000     7.4076150000     2.3571930000
   75      C     -10.6292660000     5.6563150000     3.0969430000
   76      C       0.6061540000     1.1107740000     0.1706280000
   77      C       0.0937160000    -0.2500140000     0.3562940000
   78      C     -11.1113130000     4.2925520000     3.3324020000
   79      C       1.9061570000     1.3497670000    -0.2784260000
   80      C       0.8746640000    -1.3760750000     0.0860770000
   81      H       1.0332770000    -3.4982790000     0.0189560000
   82      H       1.8908030000    -1.2613800000    -0.2633860000
   83      H      -0.3257870000     4.3704950000     0.4136820000
   84      C       2.0995310000     5.1300360000    -0.4362870000
   85      H       3.4051770000     2.7606520000    -0.8212740000
   86      H       2.5667210000     0.5210550000    -0.4913040000
   87      C     -11.4849060000     6.7558310000     3.1792510000
   88      H     -12.5303530000     6.6130520000     3.4135160000
   89      H     -11.7401570000     8.8654490000     3.0518740000
   90      C     -12.4437500000     4.0297730000     3.6559680000
   91      H     -13.9401810000     2.5958210000     4.1443090000
   92      H     -13.1550190000     4.8397540000     3.7331860000
   93      H       2.9708170000     5.3343360000     0.1864580000
   94      H       1.3441730000     5.8787460000    -0.2039090000
   95      H       2.4034340000     5.2855210000    -1.4714780000
   96      H      -1.4281140000    -4.8165610000    -0.0884770000
   97      H      -2.4836750000    -4.2597830000     1.1992130000
   98      H      -0.8654460000    -4.8371830000     1.5712990000
   99      H     -12.9335250000     0.1817540000     5.0938960000
  100      H     -13.3201070000    -0.0101670000     3.3968840000
  101      H     -11.7325730000    -0.4703390000     3.9925670000
  102      H      -9.3820470000    10.3146550000     3.3447530000
  103      H      -8.1439110000     9.7240870000     2.2512620000
  104      H      -9.7278780000    10.1758790000     1.6325360000
  105      H      -5.9834420000     3.8969560000    -2.2729870000
  106      H      -6.4044520000     5.5014950000    -1.6819740000
  107      H      -6.3448340000     4.1412040000    -0.5738140000
  108      H      -7.1569800000     1.1610780000    -1.7917280000
  109      H      -7.3861930000     1.6689160000    -0.1249640000
  110      H      -8.3705120000     0.3746360000    -0.7869950000
  111      H      -2.8597110000     4.5177610000     3.7596360000
  112      H      -2.9851300000     5.3713050000     5.2880380000
  113      H      -1.9632320000     6.0093070000     4.0032010000
  114      H      -4.2048480000     0.2603790000     4.3725200000
  115      H      -4.5574240000    -1.2832020000     5.1336420000
  116      H      -4.6384020000     0.2032170000     6.0744200000
  117      C      -4.1919320000    10.3672930000    -0.3289490000
  118      C      -3.8781750000    11.6618980000    -0.7509760000
  119      C      -2.4482900000    12.1646250000    -0.8565150000
  120      C      -1.4514220000    11.0837350000    -0.4694700000
  121      C      -2.2745510000    13.3702510000     0.0789120000
  122      C      -2.1799700000    12.5889250000    -2.3101550000
  123      C      -1.8478880000     9.8035210000    -0.0745940000
  124      H      -2.3040390000    11.7451730000    -2.9870190000
  125      H      -1.1670840000    12.9719810000    -2.4300740000
  126      H      -2.8658080000    13.3747440000    -2.6258110000
  127      C      -4.9279990000    12.5071900000    -1.0920720000
  128      C      -6.2531920000    12.1167350000    -1.0365220000
  129      C      -6.5481330000    10.8301780000    -0.6153230000
  130      C      -5.5329410000     9.9673260000    -0.2570740000
  131      H      -5.7786190000     8.9663570000     0.0696430000
  132      H      -7.0385700000    12.8030520000    -1.3217460000
  133      H      -7.5741780000    10.4885220000    -0.5647750000
  134      H      -4.6997770000    13.5128080000    -1.4236280000
  135      C      -0.0894750000    11.3542340000    -0.5214060000
  136      C      -0.8809490000     8.8372320000     0.2250990000
  137      C       0.4629250000     9.1397110000     0.1577570000
  138      C       0.8728780000    10.4101100000    -0.2134690000
  139      H      -1.1884860000     7.8420700000     0.5137610000
  140      H       1.1894640000     8.3744410000     0.4003310000
  141      H       0.2344690000    12.3442580000    -0.8182030000
  142      H       1.9226620000    10.6634170000    -0.2652990000
  143      C      -9.7135590000    -3.7809330000     2.0012380000
  144      C      -7.6969550000    -5.0278700000     2.5073220000
  145      C      -8.4030290000    -6.2355020000     2.5291210000
  146      C      -9.8960500000    -6.3234700000     2.2598870000
  147      C     -10.4799290000    -4.9505360000     1.9769000000
  148      C     -10.1313790000    -7.2322530000     1.0411650000
  149      C     -10.3379760000    -2.5526090000     1.7469640000
  150      C     -11.6844440000    -2.4847660000     1.4509970000
  151      C     -12.4517950000    -3.6370650000     1.4163630000
  152      C     -11.8348710000    -4.8436560000     1.6848410000
  153      H     -12.4347050000    -5.7454900000     1.6604790000
  154      H     -12.1298030000    -1.5201220000     1.2449810000
  155      H     -13.5071220000    -3.6004870000     1.1834970000
  156      H      -9.7593340000    -1.6402840000     1.7650600000
  157      C      -6.3135230000    -5.0395260000     2.7173180000
  158      C      -5.6433080000    -6.2192670000     2.9706810000
  159      C      -6.3338640000    -7.4194350000     3.0155500000
  160      C      -7.6969450000    -7.4036710000     2.7898560000
  161      H      -8.2370040000    -8.3426760000     2.8150390000
  162      H      -5.7604440000    -4.1121480000     2.6828150000
  163      H      -4.5736640000    -6.1941400000     3.1342610000
  164      H      -5.8229730000    -8.3508600000     3.2171490000
  165      H      -2.4663760000    13.0872560000     1.1126310000
  166      H      -2.9633230000    14.1727890000    -0.1817650000
  167      H      -1.2638880000    13.7732790000     0.0211880000
  168      H      -9.6412410000    -6.8333320000     0.1548120000
  169      H     -11.1939380000    -7.3302760000     0.8193520000
  170      H      -9.7427800000    -8.2354880000     1.2155990000
  171      C     -10.6022030000    -6.9262030000     3.4855130000
  172      H     -10.4557490000    -6.3035830000     4.3660450000
  173      H     -10.2194000000    -7.9211560000     3.7106720000
  174      H     -11.6745770000    -7.0215010000     3.3165890000
 ----------------------------------------------------------------
 Nuclear Repulsion Energy = 16357.4925830406 hartrees
 There are      323 alpha and      321 beta electrons
 Requested basis set is def2-mSVP
 There are 818 shells and 1570 basis functions

 Total QAlloc Memory Limit   8000 MB
 Mega-Array Size      1001 MB
 MEM_STATIC part      1024 MB
 Discretize the solute cavity surface with Lebedev spheres
	Using 194 Lebedev grid points for each H atom
	Using 194 Lebedev grid points for other atoms
	Atomic van der Waals radii will be scaled by 1.20
 Remove points where switching function is < 1.0e-08
 Keep 12355 surface tesserae and discard 21401 interior tesserae
 Molecular Surface Area = 1248.186 Angst**2
 A cutoff of  1.0D-11 yielded  83126 shell pairs
 There are    317704 function pairs (    348650 Cartesian)
 
 -------------------------------------------------------
 OpenMP Integral Computing Module                       
 Release: version 1.0, May 2013, Q-Chem Inc. Pittsburgh 
 -------------------------------------------------------
 Integral Job Info:
 Integral job number is                      11
 Integral operator is                         1
 short-range coefficients                     0
 long-range coefficients              100000000
 Omega coefficients                           0
 if combine SR and LR in K                    0
 Integral screening is                        0
 Integral computing path is                   2
 max size of driver memory is            800000
 size of driver memory is                593474
 size of scratch memory is              1809772
 max col of scratch BK array               1296
 max len of scratch array in speh3          155
 max len of scratch index in speh4           18
 max int batch size is                      520
 min int batch size is                       52
 fixed nKL is                                52
 max L of basis functions is                  2
 order of int derivative is                   0
 number of shells is                        818
 number of basis is                        1664
 number of cartesian basis is              1664
 number of contracted shell pairs         83126
 number of primitive shell pairs         169463
 maxK2 (contraction) of shell pair           25
 max number of K2 of shell pair               1
 max number of CS2 of shell pair          20888
 max number of PS2 of shell pair          29070
 mem total for path MDJ                  821592
 -------------------------------------------------------
 Smallest overlap matrix eigenvalue = 1.16E-04

 Scale SEOQF with 1.000000e-02/1.000000e-02/1.000000e-02

 Standard Electronic Orientation quadrupole field applied
 Nucleus-field energy     =     0.0000002543 hartrees
 Guess from superposition of atomic densities
 Warning:  Energy on first SCF cycle will be non-variational
 An unrestricted hybrid HF-DFT SCF calculation will be
 performed using Pulay DIIS extrapolation
 Polarizable Continuum solvation model will be applied
 Exchange:     0.4200 Hartree-Fock + 0.5800 PBEh-3c
 Correlation:  1.0000 PBEh-3c
 Using SG-1 standard quadrature grid
 Dispersion:   Grimme D3
 SCF converges when DIIS error is below 1.0E-08
 using 8 threads for integral computing
 -------------------------------------------------------
 OpenMP Integral computing Module                
 Release: version 1.0, May 2013, Q-Chem Inc. Pittsburgh 
 -------------------------------------------------------
 ---------------------------------------
  Cycle       Energy         DIIS Error
 ---------------------------------------
    1   -3660.5065257975      2.11E-02
 Using non-symmetric K matrix
    2   -3628.1789843107      1.64E-03
    3   -3627.1190603740      2.25E-03
    4   -3628.6788301031      1.09E-03
    5   -3629.1275003980      1.89E-04
    6   -3629.0582210597      4.25E-04
    7   -3629.1315511194      1.94E-04
    8   -3629.0849527543      3.50E-04
    9   -3629.1405866953      1.12E-04
   10   -3629.1479573928      6.77E-05
   11   -3629.1464411299      9.05E-05
   12   -3629.1460568899      9.38E-05
   13   -3629.1451503940      1.01E-04
   14   -3629.1464723832      9.25E-05
   15   -3629.1463750514      9.34E-05
   16   -3629.1464695284      9.24E-05
   17   -3629.1068472200      3.17E-04
   18   -3629.1503150823      2.25E-05
   19   -3629.1505400122      2.64E-05
   20   -3629.1508605759      3.11E-05
   21   -3629.1507971098      3.18E-05
   22   -3629.1504213229      3.55E-05
   23   -3629.1489629450      5.22E-05
   24   -3629.1510547933      4.09E-05
   25   -3629.1510786289      4.17E-05
   26   -3629.1511260327      3.80E-05
   27   -3629.1512207773      3.84E-05
   28   -3629.1515522164      3.76E-05
   29   -3629.1520560072      3.54E-05
   30   -3629.1528102109      3.25E-05
   31   -3629.1531200894      3.13E-05
   32   -3629.1519370736      3.62E-05
   33   -3629.1520003709      3.55E-05
   34   -3629.1517095064      3.69E-05
   35   -3629.1520678089      3.57E-05
   36   -3629.1498181153      7.96E-05
   37   -3629.1527010496      2.70E-05
   38   -3629.1528992536      2.72E-05
   39   -3629.1531619359      2.68E-05
   40   -3629.1540553849      2.45E-05
   41   -3629.1550025033      1.47E-05
   42   -3629.1556073675      1.22E-05
   43   -3629.1562458610      3.56E-06
   44   -3629.1559474615      2.67E-05
   45   -3629.1555632482      3.21E-05
   46   -3629.1555439086      2.77E-05
   47   -3629.1555396389      1.66E-05
   48   -3629.1553795701      1.27E-05
   49   -3629.1556785882      1.02E-05
   50   -3629.1557428016      6.91E-06
   51   -3629.1559397028      8.92E-06
   52   -3629.1561542606      9.38E-06
   53   -3629.1560778179      1.61E-05
   54   -3629.1563772658      1.14E-05
   55   -3629.1564483186      1.00E-05
   56   -3629.1564952931      4.29E-06
   57   -3629.1564821151      6.42E-06
   58   -3629.1564985439      9.60E-07
   59   -3629.1565003888      7.63E-07
   60   -3629.1565032867      1.34E-07
   61   -3629.1565040218      2.88E-07
   62   -3629.1565043020      3.68E-07
   63   -3629.1565044378      2.03E-07
   64   -3629.1565044463      2.49E-07
   65   -3629.1565044699      1.74E-08
   66   -3629.1565044600      9.93E-08
   67   -3629.1565044878      7.88E-09 Convergence criterion met
 ---------------------------------------

************** Final PCM Free Energy Summary **************
 G_electrostatic  =      -0.00000229 hartree =      -0.00143572 kcal/mol
 G_cavitation     =       0.00000000 hartree =       0.00000000 kcal/mol
 G_dispersion     =       0.00000000 hartree =       0.00000000 kcal/mol
 G_repulsion      =       0.00000000 hartree =       0.00000000 kcal/mol
 --------------------------------------------------
 Non-electrostatic Free Energy =       0.00000000 hartree =       0.00000000 kcal/mol
 Total                         =      -0.00000229 hartree =      -0.00143572 kcal/mol
 --------------------------------------------------
 SCF Energy (H0 + V/2)                       =   -3629.15650449 
 Solute Internal Energy (H0)                 =   -3629.15650220 
 Total Free Energy (H0 + V/2 + non-elec)     =   -3629.15650449 hartree
                                             = -2277330.07830736 kcal/mol
***********************************************************

 <S^2> = 2.0484
 SCF time:  CPU 76377.43 s  wall 23747.06 s
 SCF   energy in the final basis set = -3629.15650449
 Total energy in the final basis set = -3629.15650449
 
 --------------------------------------------------------------
 
                    Orbital Energies (a.u.)
 --------------------------------------------------------------
 
 Alpha MOs
 -- Occupied --
-14.671 -14.669 -10.487 -10.487 -10.486 -10.486 -10.483 -10.483
-10.480 -10.479 -10.478 -10.477 -10.476 -10.475 -10.474 -10.474
-10.472 -10.472 -10.471 -10.471 -10.469 -10.469 -10.466 -10.465
-10.464 -10.464 -10.462 -10.462 -10.462 -10.461 -10.460 -10.460
-10.459 -10.459 -10.458 -10.458 -10.457 -10.456 -10.452 -10.451
-10.450 -10.450 -10.449 -10.449 -10.449 -10.448 -10.445 -10.445
-10.445 -10.444 -10.443 -10.443 -10.442 -10.441 -10.440 -10.439
-10.439 -10.439 -10.439 -10.439 -10.439 -10.439 -10.439 -10.439
-10.438 -10.438 -10.438 -10.437 -10.437 -10.437 -10.434 -10.434
-10.434 -10.434 -10.432 -10.431 -10.431 -10.431 -10.431 -10.431
-10.430 -10.430 -10.425 -10.424 -10.421 -10.421 -10.421 -10.421
-10.418 -10.418 -10.416 -10.416  -6.918  -6.917  -1.085  -1.084
 -1.011  -1.007  -0.974  -0.970  -0.968  -0.966  -0.964  -0.960
 -0.954  -0.953  -0.946  -0.945  -0.913  -0.909  -0.904  -0.904
 -0.889  -0.888  -0.887  -0.887  -0.885  -0.877  -0.865  -0.863
 -0.862  -0.858  -0.846  -0.846  -0.831  -0.830  -0.829  -0.828
 -0.825  -0.818  -0.817  -0.814  -0.811  -0.811  -0.806  -0.802
 -0.802  -0.802  -0.785  -0.784  -0.766  -0.765  -0.765  -0.762
 -0.739  -0.731  -0.726  -0.719  -0.719  -0.715  -0.710  -0.708
 -0.706  -0.704  -0.703  -0.703  -0.695  -0.688  -0.683  -0.682
 -0.676  -0.673  -0.673  -0.665  -0.665  -0.661  -0.640  -0.635
 -0.632  -0.632  -0.627  -0.623  -0.620  -0.614  -0.612  -0.612
 -0.611  -0.611  -0.584  -0.581  -0.580  -0.577  -0.572  -0.568
 -0.562  -0.554  -0.553  -0.549  -0.545  -0.542  -0.540  -0.538
 -0.535  -0.532  -0.532  -0.527  -0.527  -0.521  -0.521  -0.520
 -0.519  -0.517  -0.516  -0.513  -0.504  -0.503  -0.500  -0.500
 -0.499  -0.498  -0.496  -0.494  -0.494  -0.493  -0.493  -0.491
 -0.490  -0.489  -0.487  -0.486  -0.485  -0.484  -0.483  -0.483
 -0.481  -0.478  -0.477  -0.477  -0.477  -0.477  -0.474  -0.474
 -0.473  -0.471  -0.470  -0.468  -0.468  -0.459  -0.455  -0.451
 -0.451  -0.448  -0.448  -0.447  -0.445  -0.443  -0.441  -0.441
 -0.438  -0.435  -0.434  -0.434  -0.433  -0.431  -0.429  -0.428
 -0.426  -0.425  -0.425  -0.424  -0.423  -0.422  -0.421  -0.420
 -0.419  -0.418  -0.417  -0.417  -0.410  -0.410  -0.407  -0.405
 -0.404  -0.403  -0.402  -0.399  -0.394  -0.393  -0.393  -0.392
 -0.388  -0.387  -0.386  -0.384  -0.383  -0.382  -0.376  -0.373
 -0.370  -0.368  -0.367  -0.366  -0.364  -0.362  -0.361  -0.358
 -0.352  -0.347  -0.343  -0.339  -0.338  -0.334  -0.332  -0.329
 -0.297  -0.293  -0.293  -0.287  -0.284  -0.283  -0.283  -0.278
 -0.278  -0.276  -0.274  -0.274  -0.274  -0.267  -0.265  -0.258
 -0.216  -0.215  -0.166
 -- Virtual --
 -0.056  -0.050  -0.025  -0.021  -0.017  -0.007   0.011   0.013
  0.013   0.015   0.018   0.019   0.023   0.024   0.027   0.038
  0.040   0.041   0.049   0.051   0.059   0.065   0.066   0.083
  0.106   0.111   0.118   0.118   0.124   0.129   0.133   0.135
  0.138   0.139   0.150   0.152   0.154   0.155   0.157   0.161
  0.163   0.163   0.164   0.167   0.167   0.168   0.169   0.172
  0.173   0.174   0.177   0.179   0.181   0.182   0.186   0.187
  0.188   0.189   0.192   0.193   0.195   0.197   0.197   0.198
  0.198   0.200   0.201   0.203   0.204   0.205   0.206   0.208
  0.209   0.212   0.213   0.214   0.215   0.215   0.217   0.217
  0.219   0.220   0.222   0.222   0.223   0.224   0.225   0.226
  0.227   0.228   0.230   0.232   0.233   0.233   0.234   0.236
  0.236   0.238   0.239   0.240   0.241   0.243   0.247   0.247
  0.248   0.249   0.250   0.251   0.253   0.254   0.256   0.256
  0.258   0.260   0.261   0.263   0.265   0.267   0.268   0.269
  0.270   0.271   0.272   0.273   0.277   0.278   0.279   0.281
  0.284   0.285   0.288   0.288   0.289   0.290   0.293   0.294
  0.295   0.297   0.298   0.299   0.300   0.302   0.305   0.308
  0.309   0.312   0.312   0.313   0.315   0.316   0.320   0.321
  0.322   0.325   0.329   0.331   0.331   0.342   0.344   0.346
  0.350   0.351   0.353   0.356   0.356   0.359   0.360   0.366
  0.372   0.375   0.379   0.380   0.382   0.385   0.386   0.391
  0.392   0.395   0.396   0.399   0.402   0.404   0.406   0.408
  0.410   0.424   0.426   0.428   0.429   0.438   0.442   0.443
  0.445   0.446   0.449   0.452   0.452   0.454   0.460   0.462
  0.466   0.472   0.474   0.475   0.477   0.482   0.483   0.485
  0.486   0.487   0.488   0.490   0.492   0.494   0.498   0.499
  0.500   0.501   0.502   0.503   0.504   0.505   0.506   0.509
  0.511   0.513   0.513   0.516   0.519   0.520   0.521   0.522
  0.522   0.523   0.524   0.526   0.527   0.531   0.535   0.537
  0.538   0.540   0.543   0.544   0.545   0.546   0.547   0.548
  0.549   0.549   0.551   0.552   0.554   0.556   0.557   0.558
  0.558   0.561   0.562   0.563   0.565   0.568   0.569   0.572
  0.573   0.574   0.578   0.580   0.580   0.583   0.587   0.587
  0.590   0.592   0.593   0.595   0.595   0.598   0.598   0.599
  0.600   0.601   0.602   0.603   0.603   0.604   0.607   0.608
  0.610   0.610   0.611   0.612   0.613   0.615   0.618   0.619
  0.621   0.623   0.624   0.626   0.627   0.628   0.629   0.629
  0.631   0.632   0.633   0.635   0.636   0.637   0.638   0.638
  0.640   0.641   0.642   0.644   0.646   0.647   0.648   0.653
  0.654   0.656   0.657   0.658   0.661   0.661   0.663   0.663
  0.667   0.669   0.672   0.672   0.674   0.676   0.677   0.679
  0.680   0.682   0.684   0.687   0.688   0.690   0.694   0.696
  0.697   0.700   0.701   0.702   0.705   0.707   0.709   0.712
  0.713   0.715   0.716   0.718   0.720   0.727   0.730   0.732
  0.735   0.735   0.738   0.738   0.746   0.747   0.747   0.751
  0.754   0.756   0.757   0.758   0.760   0.762   0.763   0.765
  0.767   0.769   0.770   0.772   0.773   0.774   0.778   0.779
  0.780   0.783   0.784   0.786   0.787   0.787   0.792   0.795
  0.797   0.799   0.803   0.805   0.806   0.808   0.809   0.812
  0.815   0.817   0.819   0.822   0.823   0.824   0.825   0.828
  0.835   0.836   0.838   0.839   0.842   0.844   0.853   0.854
  0.859   0.862   0.863   0.865   0.874   0.875   0.879   0.882
  0.884   0.889   0.892   0.894   0.897   0.899   0.902   0.907
  0.910   0.912   0.916   0.918   0.924   0.926   0.930   0.932
  0.939   0.939   0.943   0.946   0.950   0.952   0.953   0.956
  0.958   0.959   0.963   0.966   0.969   0.974   0.976   0.979
  0.982   0.984   0.985   0.987   0.990   0.991   0.993   0.994
  0.997   0.999   1.001   1.003   1.004   1.004   1.007   1.007
  1.008   1.010   1.013   1.015   1.016   1.019   1.022   1.023
  1.025   1.029   1.032   1.035   1.037   1.038   1.041   1.043
  1.044   1.045   1.047   1.048   1.049   1.050   1.051   1.053
  1.053   1.054   1.055   1.057   1.058   1.058   1.059   1.060
  1.062   1.064   1.065   1.068   1.069   1.072   1.074   1.076
  1.077   1.078   1.079   1.082   1.084   1.085   1.087   1.089
  1.090   1.091   1.093   1.096   1.098   1.100   1.102   1.104
  1.105   1.111   1.112   1.113   1.114   1.115   1.116   1.118
  1.121   1.122   1.127   1.130   1.132   1.134   1.134   1.136
  1.139   1.140   1.141   1.143   1.145   1.145   1.149   1.153
  1.156   1.158   1.159   1.164   1.165   1.167   1.168   1.169
  1.172   1.174   1.176   1.179   1.182   1.185   1.187   1.190
  1.193   1.195   1.197   1.201   1.204   1.204   1.206   1.210
  1.216   1.225   1.229   1.231   1.232   1.235   1.239   1.246
  1.249   1.250   1.253   1.256   1.258   1.259   1.261   1.264
  1.271   1.274   1.281   1.282   1.284   1.284   1.287   1.290
  1.294   1.297   1.299   1.300   1.304   1.307   1.307   1.311
  1.314   1.317   1.319   1.321   1.323   1.326   1.330   1.335
  1.340   1.343   1.345   1.346   1.348   1.349   1.353   1.356
  1.359   1.361   1.364   1.368   1.370   1.379   1.381   1.382
  1.384   1.385   1.387   1.389   1.391   1.393   1.394   1.396
  1.399   1.401   1.407   1.409   1.410   1.411   1.418   1.420
  1.421   1.423   1.428   1.431   1.433   1.434   1.439   1.439
  1.447   1.453   1.461   1.465   1.467   1.471   1.473   1.474
  1.475   1.477   1.482   1.487   1.491   1.494   1.502   1.503
  1.504   1.504   1.507   1.511   1.511   1.513   1.514   1.516
  1.519   1.520   1.522   1.523   1.525   1.528   1.536   1.538
  1.539   1.541   1.542   1.543   1.546   1.548   1.551   1.552
  1.553   1.555   1.556   1.560   1.560   1.562   1.564   1.570
  1.571   1.579   1.580   1.581   1.582   1.585   1.586   1.588
  1.589   1.591   1.597   1.607   1.610   1.613   1.616   1.619
  1.629   1.632   1.637   1.640   1.642   1.649   1.653   1.663
  1.664   1.672   1.676   1.683   1.690   1.693   1.703   1.706
  1.711   1.715   1.715   1.734   1.735   1.741   1.743   1.744
  1.746   1.747   1.756   1.760   1.763   1.768   1.772   1.776
  1.778   1.784   1.788   1.791   1.793   1.795   1.797   1.799
  1.803   1.806   1.809   1.810   1.819   1.825   1.826   1.830
  1.832   1.838   1.839   1.840   1.841   1.844   1.849   1.852
  1.858   1.863   1.864   1.874   1.877   1.880   1.881   1.882
  1.883   1.885   1.890   1.895   1.896   1.904   1.905   1.907
  1.908   1.918   1.921   1.923   1.925   1.926   1.927   1.928
  1.930   1.931   1.933   1.933   1.937   1.937   1.938   1.941
  1.946   1.947   1.950   1.951   1.958   1.958   1.960   1.962
  1.967   1.969   1.972   1.978   1.986   1.989   1.994   1.997
  1.999   2.000   2.002   2.005   2.007   2.008   2.010   2.014
  2.014   2.016   2.018   2.021   2.028   2.041   2.044   2.045
  2.054   2.056   2.057   2.058   2.059   2.063   2.066   2.066
  2.067   2.073   2.074   2.075   2.078   2.082   2.084   2.088
  2.098   2.104   2.106   2.120   2.122   2.124   2.129   2.131
  2.139   2.139   2.139   2.144   2.148   2.151   2.152   2.152
  2.153   2.154   2.158   2.164   2.167   2.177   2.180   2.183
  2.186   2.189   2.190   2.194   2.195   2.197   2.208   2.209
  2.213   2.214   2.219   2.220   2.220   2.223   2.226   2.227
  2.227   2.228   2.232   2.234   2.236   2.248   2.252   2.260
  2.261   2.263   2.264   2.267   2.275   2.277   2.280   2.280
  2.288   2.288   2.291   2.294   2.295   2.297   2.300   2.303
  2.306   2.309   2.310   2.312   2.314   2.315   2.318   2.321
  2.322   2.324   2.326   2.329   2.332   2.336   2.344   2.345
  2.346   2.348   2.351   2.352   2.353   2.354   2.355   2.357
  2.360   2.362   2.363   2.364   2.366   2.368   2.370   2.371
  2.371   2.372   2.374   2.376   2.381   2.383   2.386   2.387
  2.388   2.391   2.393   2.394   2.394   2.395   2.396   2.399
  2.403   2.407   2.408   2.417   2.422   2.424   2.426   2.431
  2.434   2.436   2.438   2.440   2.444   2.446   2.448   2.449
  2.451   2.455   2.459   2.459   2.467   2.470   2.473   2.476
  2.478   2.480   2.483   2.486   2.491   2.494   2.501   2.503
  2.506   2.506   2.516   2.518   2.520   2.527   2.530   2.535
  2.536   2.540   2.550   2.557   2.566   2.577   2.581   2.597
  2.599   2.601   2.604   2.612   2.620   2.624   2.628   2.631
  2.641   2.653   2.660   2.674   2.677   2.682   2.684   2.684
  2.688   2.692   2.693   2.696   2.701   2.702   2.704   2.705
  2.705   2.706   2.709   2.713   2.713   2.716   2.727   2.729
  2.731   2.732   2.734   2.736   2.738   2.744   2.747   2.759
  2.762   2.762   2.773   2.777   2.784   2.789   2.793   2.794
  2.796   2.799   2.804   2.806   2.807   2.809   2.810   2.815
  2.816   2.817   2.820   2.822   2.822   2.827   2.829   2.837
  2.841   2.845   2.848   2.851   2.856   2.867   2.872   2.874
  2.876   2.885   2.886   2.889   2.893   2.901   2.904   2.911
  2.913   2.927   2.931   2.931   2.935   2.945   2.955   2.959
  2.962   2.972   2.974   2.976   2.977   2.980   2.995   3.001
  3.009   3.012   3.019   3.020   3.023   3.026   3.040   3.052
  3.060   3.069   3.085   3.087   3.115   3.120   3.125   3.145
  3.154   3.186   3.189   3.194   3.207   3.216   3.252   3.257
  3.282   3.417   3.419   3.431   3.433   3.435   3.470   3.515
  3.519   3.531   3.550   3.579   3.580   3.585   3.591   3.661
  3.678   9.636   9.782  13.149  13.190  13.254  13.255  13.344
 13.344  13.424  13.432  13.463  13.508  13.527  13.549  13.654
 13.654  13.662  13.681  13.698  13.701  13.714  13.717  13.745
 13.746  13.751  13.755  13.782  13.784  13.788  13.791  13.802
 13.826  13.828  13.839  13.869  13.874  13.880  13.886  13.892
 13.894  13.907  13.909  13.949  14.002  14.018  14.022  14.034
 14.035  14.037  14.045  14.047  14.072  14.076  14.084  14.159
 14.163  14.172  14.172  14.173  14.185  14.190  14.193  14.206
 14.214  14.218  14.223  14.229  14.231  14.246  14.248  14.250
 14.268  14.269  14.296  14.300  14.302  14.316  14.318  14.428
 14.440  14.527  14.544  14.547  14.550  14.576  14.579  14.601
 14.602  14.614  14.616  14.619  14.626  19.651  19.658
 
 Beta MOs
 -- Occupied --
-14.671 -14.669 -10.487 -10.487 -10.486 -10.486 -10.480 -10.479
-10.478 -10.477 -10.477 -10.477 -10.475 -10.475 -10.475 -10.474
-10.472 -10.472 -10.471 -10.471 -10.470 -10.470 -10.466 -10.466
-10.464 -10.464 -10.463 -10.463 -10.460 -10.460 -10.459 -10.459
-10.458 -10.458 -10.457 -10.457 -10.455 -10.455 -10.453 -10.452
-10.450 -10.450 -10.449 -10.449 -10.449 -10.449 -10.445 -10.445
-10.445 -10.444 -10.443 -10.443 -10.439 -10.439 -10.439 -10.439
-10.439 -10.439 -10.439 -10.439 -10.439 -10.438 -10.438 -10.438
-10.438 -10.438 -10.437 -10.437 -10.437 -10.437 -10.434 -10.434
-10.434 -10.434 -10.432 -10.431 -10.431 -10.431 -10.431 -10.431
-10.430 -10.429 -10.425 -10.424 -10.421 -10.421 -10.421 -10.421
-10.418 -10.418 -10.416 -10.416  -6.915  -6.915  -1.085  -1.084
 -1.007  -1.004  -0.973  -0.969  -0.967  -0.966  -0.959  -0.955
 -0.954  -0.953  -0.945  -0.945  -0.911  -0.908  -0.904  -0.904
 -0.887  -0.887  -0.886  -0.883  -0.882  -0.873  -0.865  -0.863
 -0.861  -0.858  -0.846  -0.846  -0.831  -0.830  -0.828  -0.824
 -0.821  -0.817  -0.817  -0.811  -0.811  -0.805  -0.805  -0.802
 -0.802  -0.801  -0.784  -0.784  -0.765  -0.765  -0.765  -0.761
 -0.736  -0.726  -0.723  -0.718  -0.716  -0.714  -0.710  -0.708
 -0.706  -0.704  -0.703  -0.703  -0.694  -0.687  -0.683  -0.682
 -0.674  -0.671  -0.670  -0.665  -0.665  -0.659  -0.637  -0.634
 -0.631  -0.631  -0.625  -0.620  -0.619  -0.613  -0.612  -0.612
 -0.611  -0.611  -0.581  -0.581  -0.580  -0.576  -0.571  -0.565
 -0.560  -0.553  -0.552  -0.548  -0.544  -0.541  -0.539  -0.537
 -0.533  -0.532  -0.532  -0.527  -0.527  -0.521  -0.520  -0.519
 -0.519  -0.516  -0.516  -0.513  -0.502  -0.501  -0.500  -0.499
 -0.498  -0.495  -0.494  -0.494  -0.493  -0.493  -0.491  -0.490
 -0.489  -0.488  -0.486  -0.486  -0.485  -0.484  -0.483  -0.483
 -0.481  -0.477  -0.477  -0.477  -0.476  -0.474  -0.474  -0.472
 -0.471  -0.470  -0.467  -0.467  -0.464  -0.458  -0.454  -0.451
 -0.449  -0.448  -0.448  -0.447  -0.444  -0.443  -0.441  -0.440
 -0.438  -0.434  -0.434  -0.433  -0.430  -0.428  -0.426  -0.425
 -0.425  -0.424  -0.423  -0.422  -0.419  -0.419  -0.418  -0.417
 -0.417  -0.416  -0.414  -0.413  -0.410  -0.410  -0.405  -0.404
 -0.403  -0.402  -0.402  -0.398  -0.393  -0.393  -0.391  -0.390
 -0.387  -0.387  -0.386  -0.383  -0.382  -0.380  -0.373  -0.372
 -0.368  -0.368  -0.367  -0.363  -0.361  -0.361  -0.361  -0.351
 -0.343  -0.338  -0.334  -0.331  -0.331  -0.329  -0.326  -0.314
 -0.293  -0.293  -0.286  -0.283  -0.283  -0.280  -0.278  -0.278
 -0.277  -0.274  -0.274  -0.273  -0.262  -0.257  -0.246  -0.216
 -0.215
 -- Virtual --
 -0.185  -0.070  -0.048  -0.022  -0.022  -0.019  -0.010   0.004
  0.012   0.013   0.013   0.016   0.018   0.020   0.023   0.024
  0.038   0.041   0.041   0.050   0.057   0.058   0.065   0.066
  0.074   0.105   0.112   0.118   0.122   0.124   0.125   0.129
  0.133   0.135   0.138   0.139   0.150   0.153   0.155   0.155
  0.157   0.161   0.163   0.164   0.165   0.168   0.170   0.171
  0.173   0.173   0.175   0.177   0.180   0.180   0.182   0.183
  0.186   0.187   0.189   0.190   0.192   0.194   0.196   0.197
  0.197   0.198   0.199   0.200   0.201   0.204   0.205   0.206
  0.207   0.208   0.210   0.212   0.214   0.215   0.216   0.217
  0.218   0.219   0.219   0.221   0.222   0.223   0.223   0.224
  0.226   0.227   0.228   0.229   0.231   0.233   0.234   0.235
  0.236   0.236   0.237   0.239   0.239   0.241   0.242   0.243
  0.247   0.248   0.249   0.250   0.251   0.252   0.255   0.256
  0.256   0.257   0.259   0.262   0.264   0.266   0.266   0.269
  0.269   0.269   0.270   0.272   0.273   0.275   0.278   0.280
  0.282   0.284   0.285   0.287   0.289   0.290   0.291   0.293
  0.293   0.295   0.296   0.298   0.299   0.301   0.301   0.303
  0.306   0.309   0.310   0.312   0.313   0.314   0.316   0.316
  0.320   0.322   0.326   0.327   0.331   0.331   0.332   0.342
  0.346   0.347   0.352   0.353   0.354   0.357   0.358   0.361
  0.362   0.368   0.373   0.375   0.380   0.383   0.383   0.385
  0.388   0.391   0.392   0.396   0.398   0.400   0.403   0.406
  0.407   0.409   0.411   0.424   0.426   0.430   0.431   0.439
  0.443   0.444   0.446   0.447   0.450   0.452   0.453   0.455
  0.464   0.464   0.468   0.474   0.475   0.477   0.478   0.484
  0.485   0.486   0.489   0.489   0.490   0.491   0.494   0.496
  0.499   0.501   0.501   0.503   0.504   0.505   0.505   0.506
  0.507   0.510   0.512   0.513   0.514   0.517   0.520   0.521
  0.522   0.522   0.523   0.524   0.525   0.526   0.529   0.534
  0.539   0.541   0.542   0.544   0.545   0.545   0.547   0.547
  0.548   0.549   0.550   0.550   0.552   0.552   0.555   0.556
  0.558   0.559   0.559   0.562   0.563   0.564   0.566   0.568
  0.571   0.573   0.574   0.576   0.579   0.580   0.583   0.584
  0.588   0.588   0.591   0.594   0.595   0.596   0.597   0.599
  0.599   0.600   0.601   0.602   0.604   0.605   0.605   0.606
  0.608   0.609   0.612   0.612   0.613   0.615   0.618   0.619
  0.619   0.622   0.624   0.625   0.625   0.627   0.628   0.629
  0.631   0.631   0.631   0.632   0.634   0.635   0.637   0.638
  0.639   0.639   0.641   0.642   0.643   0.645   0.647   0.648
  0.649   0.654   0.655   0.657   0.658   0.659   0.661   0.662
  0.663   0.664   0.668   0.670   0.672   0.674   0.675   0.676
  0.678   0.680   0.681   0.683   0.685   0.688   0.689   0.692
  0.695   0.697   0.698   0.701   0.703   0.703   0.706   0.708
  0.710   0.713   0.713   0.715   0.716   0.718   0.721   0.728
  0.731   0.733   0.736   0.737   0.739   0.740   0.746   0.748
  0.748   0.753   0.754   0.757   0.758   0.759   0.763   0.763
  0.764   0.765   0.768   0.770   0.771   0.774   0.774   0.775
  0.778   0.780   0.781   0.783   0.785   0.786   0.788   0.788
  0.793   0.796   0.798   0.800   0.803   0.805   0.807   0.809
  0.810   0.814   0.817   0.818   0.821   0.822   0.824   0.826
  0.827   0.829   0.835   0.836   0.839   0.841   0.843   0.845
  0.854   0.856   0.861   0.864   0.865   0.866   0.876   0.877
  0.879   0.883   0.885   0.890   0.893   0.895   0.898   0.901
  0.903   0.908   0.911   0.912   0.917   0.920   0.925   0.928
  0.932   0.934   0.940   0.942   0.944   0.947   0.951   0.953
  0.954   0.956   0.959   0.960   0.964   0.967   0.969   0.976
  0.977   0.979   0.983   0.984   0.986   0.988   0.992   0.993
  0.994   0.994   0.997   0.999   1.001   1.003   1.004   1.005
  1.007   1.007   1.008   1.011   1.014   1.015   1.016   1.019
  1.022   1.024   1.025   1.029   1.033   1.036   1.037   1.038
  1.041   1.044   1.044   1.045   1.047   1.048   1.049   1.051
  1.051   1.053   1.054   1.055   1.056   1.057   1.058   1.058
  1.060   1.061   1.062   1.064   1.065   1.068   1.070   1.073
  1.074   1.077   1.077   1.078   1.079   1.082   1.084   1.085
  1.087   1.089   1.090   1.092   1.094   1.097   1.098   1.100
  1.103   1.104   1.105   1.112   1.112   1.113   1.114   1.115
  1.116   1.118   1.121   1.123   1.127   1.130   1.133   1.135
  1.136   1.136   1.139   1.140   1.142   1.144   1.145   1.146
  1.149   1.154   1.157   1.158   1.160   1.164   1.166   1.167
  1.169   1.169   1.173   1.175   1.177   1.179   1.183   1.186
  1.187   1.190   1.193   1.196   1.197   1.202   1.204   1.205
  1.207   1.211   1.217   1.226   1.230   1.232   1.234   1.236
  1.240   1.249   1.250   1.252   1.256   1.259   1.259   1.260
  1.264   1.265   1.272   1.275   1.283   1.284   1.285   1.287
  1.289   1.291   1.295   1.299   1.300   1.302   1.305   1.307
  1.308   1.312   1.318   1.319   1.320   1.322   1.324   1.326
  1.331   1.338   1.342   1.344   1.345   1.348   1.349   1.352
  1.354   1.357   1.360   1.362   1.366   1.369   1.371   1.381
  1.382   1.384   1.385   1.388   1.389   1.391   1.393   1.395
  1.396   1.398   1.401   1.403   1.408   1.410   1.411   1.412
  1.420   1.421   1.422   1.424   1.428   1.432   1.434   1.435
  1.440   1.441   1.448   1.454   1.463   1.468   1.469   1.472
  1.474   1.475   1.476   1.479   1.483   1.489   1.492   1.495
  1.503   1.504   1.505   1.505   1.509   1.511   1.511   1.513
  1.515   1.517   1.520   1.522   1.523   1.524   1.526   1.529
  1.539   1.542   1.543   1.543   1.544   1.545   1.548   1.550
  1.551   1.552   1.554   1.557   1.557   1.560   1.561   1.563
  1.568   1.570   1.572   1.579   1.580   1.582   1.583   1.586
  1.587   1.588   1.590   1.592   1.599   1.609   1.612   1.615
  1.618   1.622   1.629   1.633   1.640   1.641   1.645   1.651
  1.655   1.664   1.667   1.672   1.676   1.686   1.691   1.697
  1.706   1.708   1.712   1.715   1.715   1.736   1.737   1.742
  1.744   1.746   1.747   1.747   1.757   1.761   1.763   1.769
  1.773   1.777   1.780   1.785   1.789   1.792   1.793   1.797
  1.799   1.800   1.804   1.807   1.809   1.811   1.820   1.826
  1.828   1.832   1.834   1.839   1.840   1.841   1.846   1.849
  1.850   1.853   1.859   1.863   1.864   1.877   1.878   1.881
  1.882   1.883   1.883   1.887   1.890   1.896   1.897   1.905
  1.906   1.908   1.909   1.918   1.922   1.925   1.926   1.926
  1.928   1.928   1.931   1.932   1.933   1.934   1.937   1.937
  1.939   1.943   1.947   1.948   1.951   1.952   1.958   1.958
  1.960   1.964   1.968   1.969   1.974   1.978   1.986   1.991
  1.995   1.998   2.000   2.001   2.003   2.006   2.009   2.010
  2.013   2.016   2.016   2.017   2.019   2.021   2.031   2.042
  2.045   2.047   2.055   2.057   2.057   2.058   2.060   2.065
  2.067   2.067   2.068   2.074   2.075   2.077   2.079   2.083
  2.086   2.089   2.098   2.104   2.106   2.121   2.125   2.126
  2.131   2.132   2.139   2.139   2.140   2.146   2.149   2.151
  2.152   2.152   2.153   2.155   2.160   2.165   2.170   2.179
  2.181   2.187   2.188   2.191   2.194   2.195   2.196   2.197
  2.208   2.210   2.214   2.215   2.219   2.221   2.222   2.224
  2.226   2.227   2.229   2.230   2.232   2.236   2.238   2.249
  2.260   2.261   2.261   2.263   2.266   2.271   2.276   2.279
  2.281   2.282   2.289   2.290   2.293   2.294   2.295   2.298
  2.301   2.305   2.307   2.310   2.312   2.313   2.315   2.315
  2.319   2.321   2.323   2.325   2.327   2.331   2.333   2.338
  2.344   2.345   2.347   2.350   2.352   2.353   2.354   2.356
  2.356   2.359   2.360   2.362   2.364   2.366   2.368   2.371
  2.371   2.372   2.373   2.374   2.375   2.379   2.383   2.384
  2.388   2.389   2.390   2.394   2.394   2.394   2.395   2.397
  2.397   2.399   2.404   2.407   2.409   2.418   2.423   2.424
  2.426   2.434   2.436   2.439   2.440   2.441   2.445   2.447
  2.450   2.451   2.452   2.456   2.459   2.460   2.469   2.471
  2.474   2.477   2.479   2.480   2.484   2.488   2.491   2.495
  2.501   2.503   2.507   2.508   2.517   2.519   2.521   2.531
  2.532   2.536   2.536   2.540   2.551   2.557   2.567   2.578
  2.589   2.598   2.599   2.601   2.606   2.613   2.620   2.624
  2.629   2.632   2.642   2.654   2.662   2.677   2.679   2.682
  2.686   2.688   2.689   2.693   2.697   2.701   2.702   2.703
  2.705   2.705   2.706   2.707   2.709   2.713   2.714   2.717
  2.727   2.730   2.731   2.733   2.734   2.736   2.738   2.744
  2.749   2.759   2.762   2.763   2.773   2.777   2.784   2.791
  2.794   2.796   2.799   2.800   2.804   2.807   2.807   2.809
  2.810   2.815   2.816   2.818   2.821   2.822   2.823   2.827
  2.829   2.838   2.842   2.846   2.851   2.856   2.857   2.867
  2.874   2.875   2.876   2.885   2.886   2.889   2.893   2.902
  2.905   2.912   2.915   2.929   2.932   2.934   2.937   2.946
  2.956   2.960   2.963   2.973   2.974   2.976   2.977   2.980
  2.996   3.002   3.010   3.012   3.019   3.022   3.023   3.027
  3.041   3.055   3.060   3.070   3.085   3.090   3.116   3.120
  3.126   3.148   3.157   3.188   3.189   3.194   3.208   3.216
  3.252   3.257   3.283   3.417   3.419   3.432   3.434   3.435
  3.471   3.515   3.519   3.532   3.551   3.579   3.580   3.585
  3.591   3.662   3.678   9.639   9.786  13.150  13.190  13.254
 13.255  13.344  13.344  13.425  13.432  13.463  13.509  13.527
 13.550  13.654  13.654  13.663  13.681  13.698  13.701  13.714
 13.717  13.745  13.746  13.752  13.755  13.782  13.784  13.789
 13.792  13.803  13.826  13.828  13.840  13.869  13.874  13.880
 13.886  13.892  13.894  13.907  13.909  13.949  14.002  14.017
 14.022  14.034  14.037  14.038  14.046  14.048  14.074  14.077
 14.086  14.160  14.163  14.172  14.172  14.173  14.186  14.191
 14.193  14.208  14.215  14.219  14.224  14.229  14.231  14.246
 14.250  14.251  14.268  14.269  14.298  14.300  14.303  14.316
 14.318  14.429  14.441  14.529  14.545  14.548  14.550  14.576
 14.580  14.601  14.602  14.614  14.616  14.619  14.626  19.651
 19.658
 --------------------------------------------------------------
 
          Ground-State Mulliken Net Atomic Charges

     Atom                 Charge (a.u.)    Spin (a.u.)
  --------------------------------------------------------
      1 C                    -0.083720       0.176953
      2 C                    -0.084660       0.169740
      3 B                     0.539177       0.266151
      4 C                    -0.074564       0.201644
      5 C                    -0.083479       0.209685
      6 B                     0.544876       0.264553
      7 C                    -0.438248      -0.121712
      8 C                     0.112199       0.229619
      9 C                     0.109248       0.234987
     10 C                    -0.440512      -0.123605
     11 C                    -0.431959      -0.098751
     12 C                     0.114327       0.196064
     13 C                     0.110739       0.200709
     14 C                    -0.428929      -0.101510
     15 H                     0.237754       0.003496
     16 C                    -0.191414      -0.030967
     17 C                    -0.188185      -0.031343
     18 C                     0.048591       0.008175
     19 C                    -0.299819      -0.003833
     20 C                     0.192154       0.005356
     21 C                    -0.303427      -0.004026
     22 C                     0.058044       0.008752
     23 C                    -0.533031       0.001280
     24 C                    -0.537915       0.001173
     25 H                     0.224454       0.000489
     26 N                    -0.721432      -0.000245
     27 H                     0.222250       0.000554
     28 C                    -0.649480       0.001582
     29 H                     0.226936       0.000289
     30 H                     0.251031      -0.000900
     31 C                    -0.651738       0.001919
     32 H                     0.228423       0.000502
     33 H                     0.251708      -0.000940
     34 C                     0.060877       0.008863
     35 C                    -0.300395      -0.004139
     36 C                     0.179746       0.005672
     37 C                    -0.299967      -0.004031
     38 C                     0.051683       0.008591
     39 C                    -0.538070       0.001039
     40 C                    -0.532907       0.000782
     41 H                     0.221245       0.000560
     42 N                    -0.716691      -0.000279
     43 H                     0.223370       0.000495
     44 H                     0.228541       0.000611
     45 C                    -0.652734       0.002223
     46 H                     0.252548      -0.000773
     47 H                     0.249892      -0.000602
     48 H                     0.227467       0.000303
     49 C                    -0.652448       0.002552
     50 C                     0.132995      -0.076784
     51 C                     0.133728      -0.067247
     52 C                    -0.392850       0.087147
     53 C                     0.149353      -0.057468
     54 C                    -0.261126       0.101255
     55 C                    -0.260980       0.090054
     56 C                     0.144320      -0.051311
     57 C                    -0.716702       0.003683
     58 H                     0.241019       0.004560
     59 C                    -0.387500       0.098623
     60 H                     0.239820       0.004455
     61 C                     0.133419      -0.078338
     62 C                    -0.260567       0.104377
     63 C                     0.145201      -0.059467
     64 C                    -0.386812       0.100862
     65 C                    -0.710115       0.004264
     66 H                     0.219823      -0.006230
     67 H                     0.237688       0.003693
     68 H                     0.221919      -0.005369
     69 C                     0.130635      -0.065399
     70 C                    -0.391571       0.084688
     71 C                     0.145389      -0.049085
     72 C                    -0.260930       0.086404
     73 C                    -0.715671       0.003506
     74 H                     0.220266      -0.005216
     75 C                     0.093587       0.053440
     76 C                     0.094879       0.062924
     77 C                     0.092916       0.066230
     78 C                     0.091062       0.057077
     79 C                    -0.306946      -0.037976
     80 C                    -0.306900      -0.040362
     81 H                     0.220956      -0.006065
     82 H                     0.209568       0.001975
     83 H                     0.218965      -0.006095
     84 C                    -0.717683       0.004113
     85 H                     0.220702      -0.005893
     86 H                     0.209774       0.001846
     87 C                    -0.305937      -0.032619
     88 H                     0.209035       0.001590
     89 H                     0.219540      -0.005024
     90 C                    -0.305448      -0.035119
     91 H                     0.219904      -0.005229
     92 H                     0.208527       0.001725
     93 H                     0.236404      -0.001680
     94 H                     0.240118      -0.000235
     95 H                     0.240882      -0.001670
     96 H                     0.239604      -0.001748
     97 H                     0.237627      -0.000239
     98 H                     0.236591      -0.001742
     99 H                     0.237369      -0.001526
    100 H                     0.233910      -0.001521
    101 H                     0.250712      -0.000203
    102 H                     0.238271      -0.001429
    103 H                     0.245560      -0.000197
    104 H                     0.234040      -0.001450
    105 H                     0.218643      -0.000030
    106 H                     0.218626      -0.000054
    107 H                     0.251279      -0.002070
    108 H                     0.218949      -0.000067
    109 H                     0.250282      -0.001726
    110 H                     0.218176      -0.000005
    111 H                     0.247536      -0.001664
    112 H                     0.221240      -0.000072
    113 H                     0.216579       0.000065
    114 H                     0.244616      -0.001136
    115 H                     0.215629       0.000075
    116 H                     0.220755      -0.000070
    117 C                     0.315191       0.000098
    118 C                     0.142705       0.000013
    119 C                    -0.210206      -0.000001
    120 C                     0.144542       0.000016
    121 C                    -0.596206       0.000001
    122 C                    -0.597356       0.000001
    123 C                     0.315391       0.000086
    124 H                     0.234398      -0.000000
    125 H                     0.215366       0.000000
    126 H                     0.215196       0.000000
    127 C                    -0.293063      -0.000011
    128 C                    -0.226899       0.000013
    129 C                    -0.235802      -0.000016
    130 C                    -0.308857       0.000041
    131 H                     0.251261      -0.000023
    132 H                     0.208995      -0.000000
    133 H                     0.213268       0.000002
    134 H                     0.204789       0.000003
    135 C                    -0.294150      -0.000015
    136 C                    -0.303590       0.000051
    137 C                    -0.237428      -0.000018
    138 C                    -0.225664       0.000016
    139 H                     0.248189      -0.000027
    140 H                     0.210624       0.000001
    141 H                     0.204977       0.000003
    142 H                     0.208994      -0.000000
    143 C                     0.312781       0.000082
    144 C                     0.318550       0.000071
    145 C                     0.141504       0.000023
    146 C                    -0.212168      -0.000004
    147 C                     0.143007       0.000033
    148 C                    -0.597354       0.000002
    149 C                    -0.311285       0.000053
    150 C                    -0.234936      -0.000028
    151 C                    -0.228242       0.000032
    152 C                    -0.291658      -0.000024
    153 H                     0.205040       0.000003
    154 H                     0.216061       0.000008
    155 H                     0.209250      -0.000001
    156 H                     0.253276      -0.000020
    157 C                    -0.307671       0.000064
    158 C                    -0.231885      -0.000026
    159 C                    -0.228205       0.000029
    160 C                    -0.291247      -0.000021
    161 H                     0.205184       0.000003
    162 H                     0.246748      -0.000028
    163 H                     0.209842       0.000002
    164 H                     0.209585      -0.000001
    165 H                     0.233296      -0.000000
    166 H                     0.215486       0.000000
    167 H                     0.215213       0.000000
    168 H                     0.234666      -0.000000
    169 H                     0.215072       0.000000
    170 H                     0.215148       0.000000
    171 C                    -0.595469       0.000002
    172 H                     0.233280      -0.000000
    173 H                     0.215064       0.000000
    174 H                     0.215197       0.000000
  --------------------------------------------------------
  Sum of atomic charges =     0.000000
  Sum of spin   charges =     2.000000

 -----------------------------------------------------------------
                    Cartesian Multipole Moments
 -----------------------------------------------------------------
    Charge (ESU x 10^10)
                 0.0000
    Dipole Moment (Debye)
         X       0.6994      Y      -0.4639      Z      -0.0430
       Tot       0.8403
    Quadrupole Moments (Debye-Ang)
        XX    -479.1008     XY     -20.6703     YY    -522.7093
        XZ     -20.0511     YZ       3.0306     ZZ    -557.0155
    Octopole Moments (Debye-Ang^2)
       XXX    7928.9490    XXY   -1085.0631    XYY    2758.6005
       YYY   -4360.6434    XXZ    -490.0117    XYZ    -112.1269
       YYZ    -764.7324    XZZ    3022.3079    YZZ   -1524.9808
       ZZZ   -2395.9444
    Hexadecapole Moments (Debye-Ang^3)
      XXXX -136070.2914   XXXY    9230.6158   XXYY  -42091.5265
      XYYY   12340.6961   YYYY -120617.1516   XXXZ   14653.3362
      XXYZ    1362.4731   XYYZ    5600.7945   YYYZ   -1118.2727
      XXZZ  -28302.2111   XYZZ    4572.6317   YYZZ  -24360.0583
      XZZZ   19942.6506   YZZZ    -188.5355   ZZZZ  -16936.9898
 -----------------------------------------------------------------
 Calculating analytic gradient of the SCF energy
 -1.908191891997244E-003 -1.908173733799206E-003
 -1.908203529949226E-003 -1.908162101847648E-003
 -1.908179783372834E-003 -1.908185967483197E-003
 -1.908177632252193E-003 -1.908187997539050E-003
 -1.908156284870209E-003 -1.908209341764739E-003
 -1.908187116423571E-003 -1.908178633498375E-003
 -1.908181554700057E-003 -1.908184072436303E-003
 -1.908190400578501E-003 -1.908175222161807E-003
 -1.908184927755625E-003 -1.908180785242545E-003
 -1.908171346689818E-003 -1.908194284229957E-003
 -1.908162493256627E-003 -1.908203135553760E-003
 -1.908194091193840E-003 -1.908171653627312E-003
 -1.908185570770774E-003 -1.908180057181137E-003
 -1.908211379954790E-003 -1.908154248439671E-003
 -1.908187096886194E-003 -1.908178649442846E-003
 -1.908183701234649E-003 -1.908181932962219E-003
 -1.908174647591866E-003 -1.908190971523442E-003
 -1.908184913220318E-003 -1.908180798010143E-003
 -1.908161435997961E-003 -1.908204191158186E-003
 -1.908187196247878E-003 -1.908178413822872E-003
 -1.908191540437160E-003 -1.908174231875680E-003
 -1.908159532800857E-003 -1.908206092650094E-003
 -1.908209979932922E-003 -1.908155647694153E-003
 -1.908192720423080E-003 -1.908173036155989E-003
 -1.908152373370496E-003 -1.908213271181089E-003
 -1.908180085978722E-003 -1.908185526200879E-003
 -1.908195672824724E-003 -1.908170084288657E-003
 -1.908161717534957E-003 -1.908203910894425E-003
 -1.908198899875991E-003 -1.908166719865223E-003
 -1.908191550536192E-003 -1.908174214798693E-003
 -1.908198635668079E-003 -1.908166978605867E-003
 -1.908162805858821E-003 -1.908202813915700E-003
 -1.908178404209332E-003 -1.908187374195013E-003
 -1.908216779468546E-003 -1.908148843415921E-003
 -1.908187307376418E-003 -1.908178315363549E-003
 -1.908169749559874E-003 -1.908196021300969E-003
 -1.908206531514203E-003 -1.908159080108486E-003
 -1.908150126603139E-003 -1.908215509717410E-003
 -1.908175601719805E-003 -1.908190166489517E-003
 -1.908203620233308E-003 -1.908162000067467E-003
 -1.908185146510696E-003 -1.908180457167872E-003
 -1.908176484010319E-003 -1.908189298316906E-003
 -1.908202169028092E-003 -1.908163463720795E-003
 -1.908195353035108E-003 -1.908170262921089E-003
 -1.908173594094077E-003 -1.908192123561367E-003
 -1.908167371084578E-003 -1.908198242681340E-003
 -1.908149913506964E-003 -1.908215718134830E-003
 -1.908169162938644E-003 -1.908196449480340E-003
 -1.908191736382874E-003 -1.908173878781148E-003
 -1.908210911424559E-003 -1.908154720143550E-003
 -1.908156790398802E-003 -1.908208823388787E-003
 -1.908200155393965E-003 -1.908165453860433E-003
 -1.908235457058216E-003 -1.908130176041161E-003
 -1.908159619616325E-003 -1.908205983853445E-003
 -1.908171247373469E-003 -1.908194370351287E-003
 -1.908149920291508E-003 -1.908215729042102E-003
 -1.908166655577758E-003 -1.908198911766774E-003
 -1.908207693218763E-003 -1.908157906517775E-003
 -1.908230138450321E-003 -1.908135473612936E-003
 -1.908192477724093E-003 -1.908173157846391E-003
 -1.908160086614193E-003 -1.908205538993154E-003
 -1.908153187241013E-003 -1.908212445066921E-003
 -1.908180907129843E-003 -1.908184666158480E-003
 -1.908206940004689E-003 -1.908158679828891E-003
 -1.908218562466522E-003 -1.908147062545799E-003
 -1.908206606936620E-003 -1.908159001588063E-003
 -1.908187460285456E-003 -1.908178153613092E-003
 -1.908176075744077E-003 -1.908189564348295E-003
 -1.908153223935874E-003 -1.908212378135845E-003
 -1.908171315229925E-003 -1.908194280368591E-003
 -1.908188232148306E-003 -1.908177417915924E-003
 -1.908198808317973E-003 -1.908166782245865E-003
 -1.908188565610562E-003 -1.908177039751297E-003
 -1.908197317048224E-003 -1.908168322748251E-003
 -1.908178098672064E-003 -1.908187464742122E-003
 -1.908179893926866E-003 -1.908185727363531E-003
 -1.908200934146381E-003 -1.908164706132701E-003
 -1.908183773764327E-003 -1.908181936828243E-003
 -1.908178392609742E-003 -1.908187238974730E-003
 -1.908195182564613E-003 -1.908170451706510E-003
 -1.908191513834272E-003 -1.908174048920378E-003
 -1.908174306643592E-003 -1.908191335764194E-003
 -1.908201653322344E-003 -1.908163966345221E-003
 -1.908178905659859E-003 -1.908186705117424E-003
 -1.908173265485400E-003 -1.908192365979255E-003
 -1.908188308584807E-003 -1.908177333281386E-003
 -1.908173273162889E-003 -1.908192319744037E-003
 -1.908171637320177E-003 -1.908193990103102E-003
 -1.908199397231710E-003 -1.908166241666260E-003
 -1.908179389439927E-003 -1.908186242756572E-003
 -1.908197301521709E-003 -1.908168288709105E-003
 -1.908194536324318E-003 -1.908171133397673E-003
 -1.908184765411182E-003 -1.908180826145260E-003
 -1.908188670906560E-003 -1.908176947710624E-003
 -1.908196980783772E-003 -1.908168670506299E-003
 -1.908191004905617E-003 -1.908174571637383E-003
 -1.908200268464313E-003 -1.908165346946666E-003
 -1.908187977444985E-003 -1.908177662686945E-003
 -1.908189533918140E-003 -1.908176099069690E-003
 -1.908181766165743E-003 -1.908183850592148E-003
 -1.908149363184553E-003 -1.908216270676516E-003
 -1.908219913083848E-003 -1.908145689502717E-003
 -1.908188848873368E-003 -1.908176769425805E-003
 -1.908216980807893E-003 -1.908148661133055E-003
 -1.908170084585505E-003 -1.908195486436317E-003
 -1.908167171325886E-003 -1.908198420876508E-003
 -1.908136261017921E-003 -1.908229357602288E-003
 -1.908207737104960E-003 -1.908157899287071E-003
 -1.908192011431881E-003 -1.908173612235218E-003
 -1.908209679785498E-003 -1.908155948494919E-003
 -1.908154806376021E-003 -1.908210775990333E-003
 -1.908158890652683E-003 -1.908206732333960E-003
 -1.908127706505819E-003 -1.908237921408612E-003
 -1.908178736462384E-003 -1.908186862244827E-003
 -1.908175338677267E-003 -1.908190266522007E-003
 -1.908186542828744E-003 -1.908179113236475E-003
 -1.908198575006566E-003 -1.908166995411669E-003
 -1.908194147824188E-003 -1.908171451611358E-003
 -1.908173024444643E-003 -1.908192613184895E-003
 -1.908154948102326E-003 -1.908210670273249E-003
 -1.908178229696632E-003 -1.908187385935832E-003
 -1.908178371762130E-003 -1.908187279871493E-003
 -1.908194367576422E-003 -1.908171193772857E-003
 -1.908173701947921E-003 -1.908191896087038E-003
 -1.908170072264581E-003 -1.908195595727990E-003
 -1.908189217616828E-003 -1.908176500001306E-003
 -1.908177514143536E-003 -1.908188099674416E-003
 -1.908168138091633E-003 -1.908197474588607E-003
 -1.908182284605760E-003 -1.908183300623463E-003
 -1.908181296928123E-003 -1.908184335771046E-003
 -1.908169665949901E-003 -1.908195977563994E-003
 -1.908194377235085E-003 -1.908171194727193E-003
 -1.908186700724678E-003 -1.908178927428317E-003
 -1.908169008464707E-003 -1.908196640451215E-003
 -1.908187996771666E-003 -1.908177580566663E-003
 -1.908195309257934E-003 -1.908170295890466E-003
 -1.908171225723901E-003 -1.908194424824603E-003
 -1.908193110441322E-003 -1.908172511639781E-003
 -1.908165901384872E-003 -1.908199714644915E-003
 -1.908177662196311E-003 -1.908187987349694E-003
 -1.908182376110189E-003 -1.908183258832463E-003
 -1.908175163118324E-003 -1.908190465007425E-003
 -1.908181886451954E-003 -1.908183749341980E-003
 -1.908174628180337E-003 -1.908190975442984E-003
 -1.908163382071697E-003 -1.908202234034002E-003
 -1.908176245192771E-003 -1.908189399377291E-003
 -1.908180438785458E-003 -1.908185175522279E-003
 -1.908164861847531E-003 -1.908200790013380E-003
 -1.908195794240283E-003 -1.908169810076522E-003
 -1.908189852719041E-003 -1.908175906670314E-003
 -1.908202363975215E-003 -1.908163270425309E-003
 -1.908169997524006E-003 -1.908195603617857E-003
 -1.908173521026289E-003 -1.908192246652954E-003
 -1.908219285516271E-003 -1.908146319456943E-003
 -1.908155272733364E-003 -1.908210348301376E-003
 -1.908179316744918E-003 -1.908186449185478E-003
 -1.908187707408516E-003 -1.908177946483777E-003
 -1.908206794611035E-003 -1.908158818188218E-003
 -1.908175578288914E-003 -1.908190151612583E-003
 -1.908168379248024E-003 -1.908197254485017E-003
 -1.908161583197017E-003 -1.908204056143999E-003
 -1.908183877616427E-003 -1.908181852861572E-003
 -1.908196745134068E-003 -1.908168873769489E-003
 -1.908196614505635E-003 -1.908169018444758E-003
 -1.908172642757494E-003 -1.908193100634719E-003
 -1.908182258546097E-003 -1.908183381743767E-003
 -1.908161424527616E-003 -1.908204193538044E-003
 -1.908189227660043E-003 -1.908176507220049E-003
 -1.908169845893862E-003 -1.908195832100654E-003
 -1.908163951178607E-003 -1.908201649031744E-003
 -1.908188658367744E-003 -1.908176936247875E-003
 -1.908162807706299E-003 -1.908202827760563E-003
 -1.908171878230565E-003 -1.908193739119738E-003
 -1.908192764715544E-003 -1.908172946401327E-003
 -1.908147241220592E-003 -1.908218387415543E-003
 -1.908205171019799E-003 -1.908160447810127E-003
 -1.908194875105493E-003 -1.908170881172623E-003
 -1.908174200412368E-003 -1.908191433078115E-003
 -1.908205832751814E-003 -1.908159781164990E-003
 -1.908188338980177E-003 -1.908177376412152E-003
 -1.908161055347792E-003 -1.908204581334802E-003
 -1.908187939173662E-003 -1.908177680141715E-003
 -1.908191015713972E-003 -1.908174740277566E-003
 -1.908187320071261E-003 -1.908178363951189E-003
 -1.908207563018893E-003 -1.908158018724988E-003
 -1.908177794386713E-003 -1.908187943401960E-003
 -1.908168846992766E-003 -1.908196805855095E-003
 -1.908159456573549E-003 -1.908206167136307E-003
 -1.908182333345073E-003 -1.908183394864910E-003
 -1.908145440111389E-003 -1.908220208415447E-003
 -1.908191503406476E-003 -1.908174096793170E-003
 -1.908194963935247E-003 -1.908170793627200E-003
 -1.908187557205285E-003 -1.908178069431901E-003
 -1.908167342209855E-003 -1.908198305931182E-003
 -1.908168572773841E-003 -1.908197025592099E-003
 -1.908161956030717E-003 -1.908203676570552E-003
 -1.908179921082023E-003 -1.908185674246289E-003
 -1.908194679501710E-003 -1.908171012404988E-003
 -1.908189912849150E-003 -1.908175723351786E-003
 -1.908159520566306E-003 -1.908206088381002E-003
 -1.908180065851559E-003 -1.908185654098558E-003
 -1.908199181461991E-003 -1.908166419189704E-003
 -1.908169290367870E-003 -1.908196320051398E-003
 -1.908192267053925E-003 -1.908173426029876E-003
 -1.908203744620227E-003 -1.908161875473695E-003
 -1.908173430693094E-003 -1.908192187690891E-003
 -1.908171835693723E-003 -1.908193934940708E-003
 -1.908225348234858E-003 -1.908140272290812E-003
 -1.908178128695904E-003 -1.908187474689912E-003
 -1.908171710770983E-003 -1.908194060918016E-003
 -1.908192696513979E-003 -1.908172936354730E-003
 -1.908201753401005E-003 -1.908163869462177E-003
 -1.908179747204392E-003 -1.908185988364537E-003
 -1.908183542394757E-003 -1.908182121467260E-003
 -1.908160310522861E-003 -1.908205272199675E-003
 -1.908178782930326E-003 -1.908186967120019E-003
 -1.908178689115474E-003 -1.908186944111958E-003
 -1.908203056557911E-003 -1.908162585411754E-003
 -1.908180170810609E-003 -1.908185430425481E-003
 -1.908204456898680E-003 -1.908161156195668E-003
 -1.908184069713538E-003 -1.908181526566195E-003
 -1.908185595249047E-003 -1.908180105085355E-003
 -1.908191328289857E-003 -1.908174320254498E-003
 -1.908168299639756E-003 -1.908197297576968E-003
 -1.908172956114542E-003 -1.908192811738375E-003
 -1.908168096357523E-003 -1.908197541255580E-003
 -1.908169663657159E-003 -1.908195957211922E-003
 -1.908184498856582E-003 -1.908181246745057E-003
 -1.908180499184409E-003 -1.908185163836359E-003
 -1.908201811955060E-003 -1.908163778636941E-003
 -1.908180263441407E-003 -1.908185485226071E-003
 -1.908196842998347E-003 -1.908168776624973E-003
 -1.908182656335146E-003 -1.908182971991141E-003
 -1.908169969358623E-003 -1.908195793162607E-003
 -1.908197404533888E-003 -1.908168252043343E-003
 -1.908203191772237E-003 -1.908162382412552E-003
 -1.908173582585265E-003 -1.908192162947487E-003
 -1.908180643538685E-003 -1.908184976595421E-003
 -1.908154594741946E-003 -1.908211017671891E-003
 -1.908179816762686E-003 -1.908185921198176E-003
 -1.908189877463499E-003 -1.908175777025326E-003
 -1.908166171520341E-003 -1.908199420477659E-003
 -1.908176719686036E-003 -1.908188956826896E-003
 -1.908198354784426E-003 -1.908167249611865E-003
 -1.908190090836773E-003 -1.908175539158912E-003
 -1.908173987777467E-003 -1.908191683586275E-003
 -1.908170032245225E-003 -1.908195585994683E-003
 -1.908199228506680E-003 -1.908166373252222E-003
 -1.908195252998550E-003 -1.908170440737981E-003
 -1.908195667719044E-003 -1.908170007112322E-003
 -1.908186906292299E-003 -1.908178684702547E-003
 -1.908165672750529E-003 -1.908199943020229E-003
 -1.908199433242775E-003 -1.908166179703502E-003
 -1.908188175341421E-003 -1.908177460831490E-003
 -1.908172841310053E-003 -1.908192828533722E-003
 -1.908190032877633E-003 -1.908175613177380E-003
 -1.908164476689773E-003 -1.908201107721925E-003
 -1.908176950991235E-003 -1.908188728950041E-003
 -1.908179981029040E-003 -1.908185621518251E-003
 -1.908207414347326E-003 -1.908158204159022E-003
 -1.908173474903588E-003 -1.908192290622627E-003
 -1.908164443075687E-003 -1.908201156945732E-003
 -1.908175666891453E-003 -1.908189961276456E-003
 -1.908181145889005E-003 -1.908184544197600E-003
 -1.908171798495651E-003 -1.908193840348922E-003
 -1.908199779034123E-003 -1.908165817831950E-003
 -1.908178592599882E-003 -1.908187091289430E-003
 -1.908167351875322E-003 -1.908198286034143E-003
 -1.908160413764916E-003 -1.908205173610817E-003
 -1.908180333578097E-003 -1.908185432559459E-003
 -1.908164433320916E-003 -1.908201169024358E-003
 -1.908174389048933E-003 -1.908191245853278E-003
 -1.908181614541947E-003 -1.908184068634460E-003
 -1.908171300865092E-003 -1.908194337426894E-003
 -1.908198764825600E-003 -1.908166835666009E-003
 -1.908176467903281E-003 -1.908189223363234E-003
 -1.908167581660609E-003 -1.908198071116986E-003
 -1.908185260325327E-003 -1.908180347458990E-003
 -1.908206739833210E-003 -1.908158860603394E-003
 -1.908175392005789E-003 -1.908190265949341E-003
 -1.908192801475268E-003 -1.908172806284300E-003
 -1.908185079948738E-003 -1.908180588451835E-003
 -1.908152456421931E-003 -1.908213178130969E-003
 -1.908181559590903E-003 -1.908184043556145E-003
 -1.908172259146969E-003 -1.908193337041592E-003
 -1.908158285773191E-003 -1.908207319596491E-003
 -1.908200844996270E-003 -1.908164794288481E-003
 -1.908173635105564E-003 -1.908191960534863E-003
 -1.908169736087360E-003 -1.908195904365947E-003
 -1.908180967383851E-003 -1.908184660028344E-003
 -1.908184657734054E-003 -1.908181002027255E-003
 -1.908171884014072E-003 -1.908193739012389E-003
 -1.908197271974486E-003 -1.908168370430207E-003
 -1.908204552852701E-003 -1.908161038032259E-003
 -1.908214261050671E-003 -1.908151390248518E-003
 -1.908174346160318E-003 -1.908191266405271E-003
 -1.908190034799820E-003 -1.908175556527621E-003
 -1.908200076813813E-003 -1.908165562919785E-003
 -1.908184319186049E-003 -1.908181285918888E-003
 -1.908168121083014E-003 -1.908197472329897E-003
 -1.908202163650143E-003 -1.908163480659597E-003
 -1.908164200535898E-003 -1.908201414125026E-003
 -1.908199853140294E-003 -1.908165798871014E-003
 -1.908210932080609E-003 -1.908154692963255E-003
 -1.908172301961736E-003 -1.908193338346747E-003
 -1.908194267158907E-003 -1.908171325627192E-003
 -1.908207133802150E-003 -1.908158502444002E-003
 -1.908189346369966E-003 -1.908176274218137E-003
 -1.908196142869709E-003 -1.908169516141198E-003
 -1.908192967985572E-003 -1.908172642988481E-003
 -1.908164663633096E-003 -1.908200973127763E-003
 -1.908169927892015E-003 -1.908195665313211E-003
 -1.908191415644901E-003 -1.908174196102627E-003
 -1.908188528483035E-003 -1.908177108230258E-003
 -1.908216426617446E-003 -1.908149171770338E-003
 -1.908170126848593E-003 -1.908195482681710E-003
 -1.908179193734193E-003 -1.908186436197755E-003
 -1.908206951275531E-003 -1.908158671350789E-003
 -1.908174386571440E-003 -1.908191244091975E-003
 -1.908195594472592E-003 -1.908170039205071E-003
 -1.908210234001260E-003 -1.908155347226337E-003
 -1.908188401775213E-003 -1.908177209227915E-003
 -1.908182259162479E-003 -1.908183361425715E-003
 -1.908219363680292E-003 -1.908146253953888E-003
 -1.908170606263074E-003 -1.908195010065781E-003
 -1.908186975509782E-003 -1.908178659948785E-003
 -1.908211100927596E-003 -1.908154486050797E-003
 -1.908176548452720E-003 -1.908189058372293E-003
 -1.908200012171946E-003 -1.908165626194879E-003
 -1.908202665632684E-003 -1.908162957063485E-003
 -1.908187020050136E-003 -1.908178607239344E-003
 -1.908165344227004E-003 -1.908200281785101E-003
 -1.908163392591981E-003 -1.908202222300261E-003
 -1.908169085375466E-003 -1.908196526504707E-003
 -1.908170897313199E-003 -1.908194715471354E-003
 -1.908151862813028E-003 -1.908213780476507E-003
 -1.908189916736295E-003 -1.908175697238811E-003
 -1.908173689975358E-003 -1.908191947588402E-003
 -1.908161440217670E-003 -1.908204180181278E-003
 -1.908193861383448E-003 -1.908171757679338E-003
 -1.908185973016143E-003 -1.908179670348453E-003
 -1.908161480057748E-003 -1.908204124456578E-003
 -1.908190203576996E-003 -1.908175420240136E-003
 -1.908179146420231E-003 -1.908186475681822E-003
 -1.908160402118762E-003 -1.908205224089728E-003
 -1.908174755003989E-003 -1.908190865452499E-003
 -1.908192869878940E-003 -1.908172742247759E-003
 -1.908148953625088E-003 -1.908216680934629E-003
 -1.908152698598728E-003 -1.908212925020866E-003
 -1.908141489767411E-003 -1.908224155990754E-003
 -1.908195461531464E-003 -1.908170261923694E-003
 -1.908184652098368E-003 -1.908180947343908E-003
 -1.908213468854143E-003 -1.908152198856356E-003
 -1.908176783210146E-003 -1.908188926917433E-003
 -1.908188225945483E-003 -1.908177379936324E-003
 -1.908200008006557E-003 -1.908165656132512E-003
 -1.908178908546203E-003 -1.908186720563249E-003
 -1.908192024682736E-003 -1.908173580943741E-003
 -1.908211969909521E-003 -1.908153692092461E-003
 -1.908171681929655E-003 -1.908194031706714E-003
 -1.908174339334407E-003 -1.908191228171547E-003
 -1.908181548884446E-003 -1.908184107187600E-003
 -1.908203824048653E-003 -1.908161812314431E-003
 -1.908182880835109E-003 -1.908182685315807E-003
 -1.908168512969540E-003 -1.908197177341938E-003
 -1.908165110171254E-003 -1.908200494422902E-003
 -1.908187948488127E-003 -1.908177688525101E-003
 -1.908135349220339E-003 -1.908230289911757E-003
 -1.908197664535699E-003 -1.908168066705185E-003
 -1.908180592734793E-003 -1.908185017502540E-003
 -1.908173362790208E-003 -1.908192275577012E-003
 -1.908173161449979E-003 -1.908192394802526E-003
 -1.908182761162183E-003 -1.908182842567274E-003
 -1.908164111998845E-003 -1.908201526346448E-003
 -1.908187591014974E-003 -1.908178028345594E-003
 -1.908173783808462E-003 -1.908191807667611E-003
 -1.908166275193126E-003 -1.908199373091496E-003
 -1.908185576968506E-003 -1.908180044276022E-003
 -1.908168097816931E-003 -1.908197523607879E-003
 -1.908159860872280E-003 -1.908205751517032E-003
 -1.908191894081574E-003 -1.908173812077795E-003
 -1.908211675036656E-003 -1.908153918404833E-003
 -1.908198032455141E-003 -1.908167634182035E-003
 -1.908175637396866E-003 -1.908190070480369E-003
 -1.908160383134261E-003 -1.908205234015575E-003
 -1.908142187261721E-003 -1.908223452108998E-003
[...]
  2.626   2.628   2.641   2.653   2.660   2.675   2.682   2.685
  2.686   2.688   2.689   2.691   2.696   2.698   2.702   2.704
  2.704   2.705   2.706   2.707   2.712   2.713   2.714   2.716
  2.725   2.731   2.732   2.732   2.734   2.737   2.738   2.744
  2.745   2.758   2.760   2.762   2.771   2.775   2.787   2.791
  2.795   2.797   2.797   2.799   2.804   2.804   2.806   2.807
  2.809   2.810   2.813   2.817   2.818   2.819   2.820   2.830
  2.836   2.837   2.840   2.843   2.850   2.851   2.855   2.866
  2.872   2.875   2.877   2.885   2.887   2.889   2.891   2.903
  2.905   2.914   2.914   2.928   2.931   2.932   2.939   2.944
  2.953   2.960   2.961   2.971   2.974   2.976   2.976   2.979
  2.995   3.007   3.010   3.011   3.016   3.020   3.021   3.025
  3.036   3.055   3.059   3.069   3.084   3.088   3.116   3.122
  3.123   3.145   3.155   3.187   3.188   3.193   3.208   3.212
  3.246   3.251   3.285   3.413   3.415   3.431   3.433   3.434
  3.471   3.515   3.517   3.531   3.550   3.576   3.577   3.582
  3.587   3.661   3.677   9.644   9.784  13.151  13.189  13.254
 13.256  13.344  13.344  13.424  13.431  13.470  13.509  13.545
 13.548  13.653  13.654  13.663  13.675  13.692  13.698  13.713
 13.716  13.745  13.746  13.752  13.755  13.779  13.781  13.781
 13.788  13.799  13.824  13.828  13.838  13.873  13.874  13.886
 13.891  13.892  13.896  13.906  13.910  13.949  14.006  14.015
 14.028  14.033  14.042  14.044  14.048  14.050  14.065  14.071
 14.076  14.158  14.160  14.170  14.170  14.171  14.184  14.188
 14.191  14.203  14.214  14.219  14.223  14.228  14.229  14.238
 14.250  14.254  14.265  14.267  14.293  14.298  14.300  14.318
 14.320  14.425  14.437  14.532  14.542  14.547  14.548  14.575
 14.577  14.600  14.600  14.612  14.614  14.621  14.626  19.651
 19.654
 --------------------------------------------------------------
 
          Ground-State Mulliken Net Atomic Charges

     Atom                 Charge (a.u.)    Spin (a.u.)
  --------------------------------------------------------
      1 C                    -0.079720       0.195308
      2 C                    -0.079032       0.179685
      3 B                     0.540425       0.260071
      4 C                    -0.082896       0.187979
      5 C                    -0.079436       0.200058
      6 B                     0.535093       0.268560
      7 C                    -0.436289      -0.106936
      8 C                     0.113962       0.207874
      9 C                     0.108328       0.230313
     10 C                    -0.431669      -0.121496
     11 C                    -0.427009      -0.102409
     12 C                     0.118870       0.201209
     13 C                     0.108018       0.223310
     14 C                    -0.428572      -0.116511
     15 H                     0.237447       0.003579
     16 C                    -0.206253      -0.026790
     17 C                    -0.191065      -0.029067
     18 C                     0.047060       0.004973
     19 C                    -0.288324      -0.002061
     20 C                     0.188886       0.002611
     21 C                    -0.298997      -0.002094
     22 C                     0.061878       0.005296
     23 C                    -0.535072       0.002702
     24 C                    -0.545351       0.003690
     25 H                     0.223326       0.000403
     26 N                    -0.721466      -0.000101
     27 H                     0.220907       0.000425
     28 C                    -0.645127       0.000100
     29 H                     0.226387       0.000267
     30 H                     0.252075      -0.001639
     31 C                    -0.644483      -0.000186
     32 H                     0.229552       0.000439
     33 H                     0.260661      -0.002774
     34 C                     0.059034       0.006834
     35 C                    -0.301572      -0.002755
     36 C                     0.183185       0.003627
     37 C                    -0.291452      -0.002607
     38 C                     0.049197       0.006057
     39 C                    -0.543976       0.002479
     40 C                    -0.533543       0.002475
     41 H                     0.219714       0.000481
     42 N                    -0.717023      -0.000146
     43 H                     0.224394       0.000437
     44 H                     0.229887       0.000700
     45 C                    -0.648289       0.001343
     46 H                     0.255880      -0.001926
     47 H                     0.252046      -0.001491
     48 H                     0.226058       0.000322
     49 C                    -0.647076       0.000681
     50 C                     0.128180      -0.069623
     51 C                     0.130747      -0.075143
     52 C                    -0.388058       0.097085
     53 C                     0.143966      -0.051090
     54 C                    -0.259285       0.090329
     55 C                    -0.258349       0.101984
     56 C                     0.144874      -0.058571
     57 C                    -0.718967       0.004250
     58 H                     0.238218       0.004613
     59 C                    -0.383319       0.089855
     60 H                     0.237070       0.003747
     61 C                     0.130975      -0.077302
     62 C                    -0.259983       0.102627
     63 C                     0.147427      -0.059178
     64 C                    -0.385624       0.099923
     65 C                    -0.716995       0.004297
     66 H                     0.219946      -0.006155
     67 H                     0.237684       0.004447
     68 H                     0.221056      -0.005981
     69 C                     0.128269      -0.066986
     70 C                    -0.390757       0.087756
     71 C                     0.141744      -0.048932
     72 C                    -0.258397       0.086582
     73 C                    -0.718886       0.003460
     74 H                     0.222459      -0.005367
     75 C                     0.095942       0.051042
     76 C                     0.097449       0.054690
     77 C                     0.094449       0.066386
     78 C                     0.094507       0.066981
     79 C                    -0.307563      -0.032956
     80 C                    -0.307671      -0.041396
     81 H                     0.220440      -0.005955
     82 H                     0.209219       0.002051
     83 H                     0.217099      -0.005493
     84 C                    -0.709272       0.003633
     85 H                     0.220064      -0.005259
     86 H                     0.209645       0.001585
     87 C                    -0.307237      -0.030166
     88 H                     0.209099       0.001435
     89 H                     0.219970      -0.005046
     90 C                    -0.307296      -0.041916
     91 H                     0.220493      -0.005910
     92 H                     0.209409       0.002079
     93 H                     0.238761      -0.001615
     94 H                     0.233955      -0.000222
     95 H                     0.237392      -0.001307
     96 H                     0.236848      -0.001311
     97 H                     0.242631      -0.000311
     98 H                     0.237463      -0.002085
     99 H                     0.240993      -0.001863
    100 H                     0.232143      -0.001630
    101 H                     0.247284      -0.000239
    102 H                     0.240150      -0.001587
    103 H                     0.252788      -0.000216
    104 H                     0.231150      -0.001207
    105 H                     0.217068      -0.000057
    106 H                     0.217821       0.000118
    107 H                     0.247899      -0.001424
    108 H                     0.218149      -0.000014
    109 H                     0.241544      -0.000343
    110 H                     0.217279       0.000146
    111 H                     0.240688      -0.000635
    112 H                     0.220396      -0.000038
    113 H                     0.215103       0.000078
    114 H                     0.238740      -0.000307
    115 H                     0.215849       0.000023
    116 H                     0.220165      -0.000016
    117 C                     0.311638       0.000061
    118 C                     0.141910       0.000025
    119 C                    -0.209504      -0.000004
    120 C                     0.143855       0.000028
    121 C                    -0.592010       0.000003
    122 C                    -0.604720       0.000002
    123 C                     0.313482       0.000045
    124 H                     0.236363      -0.000000
    125 H                     0.216435      -0.000000
    126 H                     0.214870       0.000000
    127 C                    -0.292338      -0.000015
    128 C                    -0.228492       0.000024
    129 C                    -0.236402      -0.000014
    130 C                    -0.311663       0.000037
    131 H                     0.252884      -0.000012
    132 H                     0.208780      -0.000001
    133 H                     0.219353       0.000008
    134 H                     0.205325       0.000002
    135 C                    -0.293312      -0.000022
    136 C                    -0.302420       0.000051
    137 C                    -0.231219      -0.000024
    138 C                    -0.227209       0.000034
    139 H                     0.247949      -0.000020
    140 H                     0.208463       0.000001
    141 H                     0.205207       0.000002
    142 H                     0.209103      -0.000002
    143 C                     0.314535       0.000043
    144 C                     0.317732       0.000032
    145 C                     0.141272       0.000022
    146 C                    -0.211531      -0.000003
    147 C                     0.141328       0.000020
    148 C                    -0.599566       0.000002
    149 C                    -0.310230       0.000027
    150 C                    -0.234982      -0.000015
    151 C                    -0.228069       0.000018
    152 C                    -0.289875      -0.000014
    153 H                     0.205550       0.000002
    154 H                     0.216222       0.000003
    155 H                     0.208906      -0.000001
    156 H                     0.249827      -0.000009
    157 C                    -0.308527       0.000032
    158 C                    -0.234480      -0.000020
    159 C                    -0.227099       0.000027
    160 C                    -0.290254      -0.000017
    161 H                     0.205685       0.000002
    162 H                     0.246315      -0.000010
    163 H                     0.211759      -0.000000
    164 H                     0.209434      -0.000001
    165 H                     0.231613      -0.000000
    166 H                     0.214865       0.000000
    167 H                     0.215675       0.000000
    168 H                     0.234752      -0.000000
    169 H                     0.215105       0.000000
    170 H                     0.215420      -0.000000
    171 C                    -0.594716       0.000002
    172 H                     0.233253      -0.000000
    173 H                     0.215242       0.000000
    174 H                     0.214931       0.000000
  --------------------------------------------------------
  Sum of atomic charges =    -0.000000
  Sum of spin   charges =     2.000000

 -----------------------------------------------------------------
                    Cartesian Multipole Moments
 -----------------------------------------------------------------
    Charge (ESU x 10^10)
                -0.0000
    Dipole Moment (Debye)
         X       0.3546      Y      -0.2598      Z       0.2122
       Tot       0.4881
    Quadrupole Moments (Debye-Ang)
        XX    -475.0011     XY     -22.9934     YY    -519.6518
        XZ     -18.9126     YZ       6.5845     ZZ    -558.2723
    Octopole Moments (Debye-Ang^2)
       XXX    7887.2630    XXY   -1058.4097    XYY    2724.5277
       YYY   -4343.3874    XXZ    -498.0035    XYZ    -115.5787
       YYZ    -778.7029    XZZ    3029.5538    YZZ   -1514.5508
       ZZZ   -2406.8172
    Hexadecapole Moments (Debye-Ang^3)
      XXXX -134375.5080   XXXY   10042.7808   XXYY  -41879.6391
      XYYY   13137.6534   YYYY -120849.1936   XXXZ   14058.2001
      XXYZ    1299.6838   XYYZ    5507.2551   YYYZ   -1195.3178
      XXZZ  -28222.0838   XYZZ    4971.4841   YYZZ  -24457.1376
      XZZZ   19245.9384   YZZZ    -411.6714   ZZZZ  -16633.5818
 -----------------------------------------------------------------
Archival summary:
1\1\ctcp009\OPT\ProcedureUnspecified\BasisUnspecified\290280(3)\mewes\TueDec404:38:172018TueDec404:38:172018\0\\#,OPT,ProcedureUnspecified,BasisUnspecified,\\0,3\N\C,1,1.38931\C,1,1.38997,2,121.701\C,3,1.39876,1,120.783,2,3.00367,0\C,4,1.39156,3,118.35,1,179.596,0\H,5,1.08322,4,118.904,3,-179.654,0\C,5,1.38204,4,122.677,3,0.502803,0\H,7,1.08153,5,120.447,4,179.616,0\C,7,1.38491,5,118.49,4,-0.150727,0\H,9,1.08242,7,120.477,5,179.368,0\C,9,1.38095,7,120.331,5,-0.412596,0\H,11,1.08023,9,118.938,7,-179.975,0\C,2,1.39938,1,120.736,3,-2.69187,0\C,13,1.3907,2,118.303,1,-179.671,0\H,14,1.08315,13,118.82,2,179.672,0\C,14,1.38231,13,122.633,2,-0.121039,0\H,16,1.08144,14,120.424,13,179.843,0\C,16,1.38517,14,118.546,13,-0.0211168,0\H,18,1.08262,16,120.416,14,179.754,0\C,18,1.38097,16,120.326,14,0.0156918,0\H,20,1.08064,18,119.165,16,179.73,0\C,1,1.42199,2,119.392,3,-174.583,0\C,22,1.38239,1,119.58,2,92.902,0\H,23,1.08484,22,119.025,1,-0.892272,0\C,22,1.38364,1,120.596,2,-88.3051,0\H,25,1.08444,22,119.203,1,1.37989,0\C,23,1.38879,22,120.742,1,177.64,0\C,25,1.39121,22,120.389,1,-178.846,0\C,28,1.40379,25,120.278,22,0.972914,0\C,28,1.5051,25,118.693,22,-176.53,0\H,30,1.09263,28,110.484,25,-147.257,0\H,30,1.09304,28,109.607,25,-30.5236,0\C,27,1.50771,23,117.667,22,-175.02,0\H,33,1.09106,27,111.027,23,-153.582,0\H,33,1.09341,27,109.267,23,-37.01,0\C,4,1.51867,3,122.749,1,-0.33329,0\C,30,1.52685,28,111.577,25,90.8111,0\H,37,1.09031,30,111.011,28,61.2639,0\H,37,1.09035,30,111.242,28,-178.82,0\H,37,1.09084,30,111.009,28,-58.5763,0\C,33,1.52755,27,111.759,23,83.9378,0\H,41,1.09033,33,111.22,27,61.0949,0\H,41,1.0907,33,111.079,27,-178.936,0\H,41,1.09092,33,111.149,27,-58.8144,0\C,36,1.53885,4,109.032,3,-122.683,0\H,45,1.08962,36,110.922,4,60.1768,0\H,45,1.09031,36,111.464,4,-179.504,0\H,45,1.09036,36,111.433,4,-60.0477,0\C,36,1.53895,4,108.997,3,117.957,0\H,49,1.08974,36,110.917,4,-60.8104,0\H,49,1.09097,36,111.337,4,179.016,0\H,49,1.091,36,111.255,4,59.2891,0\B,29,1.58019,28,122.477,25,176.984,0\C,53,1.52788,29,121.703,28,104.691,0\C,54,1.39167,53,120.254,29,-5.12207,0\H,55,1.08096,54,116.539,53,-3.66036,0\C,55,1.38406,54,123.672,53,174.464,0\C,57,1.44847,55,121.7,54,-174.287,0\C,58,1.40547,57,121.078,55,2.5633,0\H,59,1.08115,58,119.871,57,-0.324072,0\C,59,1.37844,58,122.81,57,178.378,0\C,61,1.39543,59,117.595,58,-0.202587,0\H,62,1.08344,61,119.85,59,-179.411,0\C,62,1.3786,61,120.775,59,-0.0777461,0\H,64,1.08014,62,117.572,61,-179.103,0\C,64,1.3969,62,121.984,61,0.229725,0\C,57,1.44951,55,118.267,54,3.60823,0\C,67,1.38483,57,118.23,55,-3.50528,0\H,68,1.08126,67,119.738,57,-177.37,0\C,68,1.39776,67,123.635,57,0.667749,0\C,67,1.45056,57,119.192,55,177.342,0\C,71,1.40363,67,120.978,57,-177.114,0\H,72,1.08091,71,119.558,67,0.231719,0\C,72,1.37851,71,122.742,67,-179.88,0\C,74,1.39542,72,117.666,71,-0.309283,0\H,75,1.08334,74,119.872,72,-179.778,0\C,75,1.3783,74,120.769,72,0.19513,0\H,77,1.08025,75,117.773,74,-179.711,0\C,77,1.39622,75,121.934,74,0.183573,0\C,74,1.49889,72,121.433,71,-179.924,0\H,80,1.08933,74,111.578,72,-5.85024,0\H,80,1.0907,74,111.324,72,-126.075,0\H,80,1.0912,74,111.239,72,114.31,0\C,61,1.49973,59,121.32,58,179.685,0\H,84,1.08973,61,111.681,59,12.1913,0\H,84,1.09049,61,111.547,59,132.487,0\H,84,1.09179,61,111.107,59,-107.961,0\C,53,1.528,29,120.421,28,-81.6411,0\C,88,1.39195,53,120.386,29,6.15401,0\H,89,1.0809,88,116.75,53,1.86075,0\C,89,1.38448,88,123.724,53,-176.264,0\C,88,1.44782,53,121.275,29,-169.54,0\C,92,1.39786,88,117.841,53,175.54,0\H,93,1.08069,92,116.754,88,-177.215,0\C,93,1.38373,92,123.742,88,0.872148,0\C,91,1.4487,89,121.74,88,178.408,0\C,96,1.4064,91,121.159,89,3.52604,0\H,97,1.08111,96,119.839,91,1.92214,0\C,97,1.37827,96,122.757,91,-178.296,0\C,99,1.39597,97,117.617,96,0.163494,0\H,100,1.08356,99,119.773,97,179.529,0\C,100,1.37772,99,120.835,97,-0.723281,0\H,102,1.08013,100,117.586,99,-179.663,0\C,102,1.39728,100,121.924,99,0.283339,0\C,95,1.4515,93,122.386,92,-179.107,0\C,105,1.40446,95,121.121,93,-4.13246,0\H,106,1.08136,105,119.712,95,-1.66935,0\C,106,1.37939,105,122.714,95,178.872,0\C,108,1.39534,106,117.653,105,-0.370727,0\H,109,1.08343,108,119.836,106,-179.501,0\C,109,1.37789,108,120.819,106,0.896161,0\H,111,1.08027,109,117.729,108,179.488,0\C,111,1.3966,109,121.898,108,-0.308449,0\C,108,1.49861,106,121.547,105,178.904,0\H,114,1.08897,108,111.994,106,7.42144,0\H,114,1.09087,108,111.433,106,127.853,0\H,114,1.09146,108,111.028,106,-112.867,0\C,99,1.49943,97,121.665,96,-179.646,0\H,118,1.08932,99,112.011,97,-3.53781,0\H,118,1.09128,99,111.221,97,116.716,0\H,118,1.09133,99,111.302,97,-124.047,0\B,70,1.52897,68,121.345,67,-174.554,0\C,122,1.57659,70,122.764,68,7.48473,0\C,123,1.40358,122,121.82,70,-109.694,0\C,124,1.39114,123,120.173,122,-172.343,0\H,125,1.08404,124,120.447,123,178.708,0\C,125,1.3839,124,120.24,123,-0.814591,0\C,127,1.38336,125,119.97,124,-1.25035,0\H,128,1.08466,127,119.02,125,-179.633,0\C,128,1.38919,127,120.796,125,2.13188,0\N,127,1.41892,125,120.477,124,177.51,0\C,131,1.38858,127,119.164,125,89.6242,0\C,131,1.38895,127,118.55,125,-97.6666,0\C,132,1.39808,131,120.648,127,178.991,0\C,134,1.3907,132,118.005,131,179.252,0\H,135,1.08294,134,118.901,132,-179.16,0\C,135,1.38318,134,122.603,132,0.742909,0\H,137,1.08133,135,120.345,134,179.896,0\C,137,1.38513,135,118.724,134,0.0231645,0\H,139,1.08257,137,120.531,135,179.544,0\C,139,1.38001,137,120.208,135,-0.423935,0\H,141,1.08072,139,119.275,137,179.777,0\C,133,1.3981,131,120.6,127,-178.809,0\C,143,1.39176,133,118.045,131,-179.774,0\H,144,1.08296,143,118.957,133,179.282,0\C,144,1.38313,143,122.739,133,-0.880897,0\H,146,1.08151,144,120.388,143,-179.416,0\C,146,1.38494,144,118.629,143,0.341688,0\H,148,1.08264,146,120.682,144,-179.193,0\C,148,1.38052,146,120.19,144,0.495911,0\H,150,1.0809,148,118.776,146,-179.655,0\C,124,1.5061,123,120.63,122,9.21505,0\H,152,1.09281,124,110.395,123,-42.2564,0\H,152,1.09285,124,109.567,123,-158.778,0\C,130,1.50967,128,118.092,127,175.657,0\H,155,1.09132,130,110.805,128,145.41,0\H,155,1.09305,130,108.949,128,29.3048,0\C,143,1.51895,133,122.478,131,-0.478509,0\C,152,1.52693,124,112.102,123,79.6501,0\H,159,1.09036,152,111.263,124,-62.2189,0\H,159,1.09046,152,111.057,124,178.075,0\H,159,1.09067,152,111.072,124,57.9272,0\C,155,1.52782,130,112.743,128,-91.7821,0\H,163,1.08983,155,111.539,130,-62.4538,0\H,163,1.09066,155,111.215,130,57.7504,0\H,163,1.09084,155,110.795,130,177.745,0\C,158,1.53724,143,108.718,133,-113.864,0\H,167,1.08998,158,110.733,143,60.8299,0\H,167,1.09089,158,111.116,143,-59.065,0\H,167,1.09105,158,111.311,143,-179.093,0\C,158,1.53814,143,108.872,133,126.459,0\H,171,1.0897,158,111.648,143,-179.727,0\H,171,1.08979,158,110.729,143,-59.3893,0\H,171,1.08998,158,111.511,143,60.7726,0\\\@

 Total job time:  219566.54s(wall), 656731.82s(cpu) 
 Tue Dec  4 04:38:17 2018

        *************************************************************
        *                                                           *
        *  Thank you very much for using Q-Chem.  Have a nice day.  *
        *                                                           *
        *************************************************************


0 sent ACK to 0 
now end server 0 ... 
