mFile = /cm/shared/apps/q-chem/intel/QCHEM_5.0.1_Trunk/bin/mpi/machines
Process 0 of 1 is on ctcp006 - thread support 0
initial socket setup ...start
initial socket setup ...done 
now start server 0 ... 
ctcp006.cm.cluster 10.141.0
Q-Chem Developer Version! Running on 10.141.0.*
                  Welcome to Q-Chem
     A Quantum Leap Into The Future Of Chemistry


 Q-Chem 5.0, Q-Chem, Inc., Pleasanton, CA (2017)

 Yihan Shao,  Zhengting Gan,  E. Epifanovsky,  A. T. B. Gilbert,  M. Wormit,  
 J. Kussmann,  A. W. Lange,  A. Behn,  Jia Deng,  Xintian Feng,  D. Ghosh,  
 M. Goldey,  P. R. Horn,  L. D. Jacobson,  I. Kaliman,  T. Kus,  A. Landau,  
 Jie Liu,  E. I. Proynov,  R. M. Richard,  R. P. Steele,  E. J. Sundstrom,  
 H. L. Woodcock III,  P. M. Zimmerman,  D. Zuev,  B. Albrecht,  E. Alguire,  
 S. A. Baeppler,  Z. Benda,  Y. A. Bernard,  E. J. Berquist,  K. B. Bravaya,  
 D. Casanova,  Chun-Min Chang,  Yunqing Chen,  A. Chien,  K. D. Closser,  
 M. P. Coons,  S. Dasgupta,  M. Diedenhofen,  Hainam Do,  R. G. Edgar,  
 Po-Tung Fang,  S. Fatehi,  Qingguo Feng,  Qinghui Ge,  A. Ghysels,  
 J. Gomes,  J. Gonthier,  A. Gunina,  M. W. D. Hanson-Heine,  
 P. H. P. Harbach,  A. W. Hauser,  J. E. Herr,  E. G. Hohenstein,  
 Z. C. Holden,  Kerwin Hui,  T.-C. Jagau,  Hyunjun Ji,  B. Kaduk,  
 K. Khistyaev,  Jaehoon Kim,  P. Klunzinger,  K. Koh,  D. Kosenkov,  
 T. Kowalczyk,  C. M. Krauter,  A. Kunitsa,  Ka Un Lao,  A. Laurent,  
 K. V. Lawler,  Joonho Lee,  D. Lefrancois,  S. Lehtola,  D. S. Levine,  
 Yi-Pei Li,  You-Sheng Lin,  Fenglai Liu,  E. Livshits,  A. Luenser,  
 P. Manohar,  E. Mansoor,  S. F. Manzer,  Shan-Ping Mao,  Yuezhi Mao,  
 N. Mardirossian,  A. V. Marenich,  L. A. Martinez-Martinez,  S. A. Maurer,  
 N. J. Mayhall,  S. C. McKenzie,  J.-M. Mewes,  A. F. Morrison,  K. Nanda,  
 T. S. Nguyen-Beck,  R. Olivares-Amaya,  J. A. Parkhill,  T. M. Perrine,  
 F. Plasser,  S. Prager,  A. Prociuk,  D. R. Rehn,  F. Rob,  M. Schneider,  
 N. Sergueev,  S. M. Sharada,  S. Sharma,  D. W. Small,  T. Stauch,  
 T. Stein,  Yu-Chuan Su,  A. J. W. Thom,  T. Tsuchimochi,  L. Vogt,  
 O. Vydrov,  M. A. Watson,  J. Wenzel,  M. de Wergifosse,  T. A. Wesolowski,  
 A. White,  J. Witte,  A. Yamada,  Jun Yang,  K. Yao,  S. Yeganeh,  
 S. R. Yost,  Zhi-Qiang You,  A. Zech,  Igor Ying Zhang,  Xing Zhang,  
 Yan Zhao,  Ying Zhu,  B. R. Brooks,  G. K. L. Chan,  C. J. Cramer,  
 M. S. Gordon,  W. J. Hehre,  A. Klamt,  M. W. Schmidt,  C. D. Sherrill,  
 D. G. Truhlar,  A. Aspuru-Guzik,  R. Baer,  A. T. Bell,  N. A. Besley,  
 Jeng-Da Chai,  A. Dreuw,  B. D. Dunietz,  T. R. Furlani,  Chao-Ping Hsu,  
 Yousung Jung,  Jing Kong,  D. S. Lambrecht,  WanZhen Liang,  C. Ochsenfeld,  
 V. A. Rassolov,  L. V. Slipchenko,  J. E. Subotnik,  T. Van Voorhis,  
 J. M. Herbert,  A. I. Krylov,  P. M. W. Gill,  M. Head-Gordon

 Contributors to earlier versions of Q-Chem not listed above: 
 R. D. Adamson,  B. Austin,  J. Baker,  G. J. O. Beran,  K. Brandhorst,  
 S. T. Brown,  E. F. C. Byrd,  A. K. Chakraborty,  C.-L. Cheng,  
 Siu Hung Chien,  D. M. Chipman,  D. L. Crittenden,  H. Dachsel,  
 R. A. DiStasio Jr.,  R. J. Doerksen,  A. D. Dutoi,  L. Fusti-Molnar,  
 W. A. Goddard III,  A. Golubeva-Zadorozhnaya,  S. R. Gwaltney,  G. Hawkins,  
 A. Heyden,  S. Hirata,  G. Kedziora,  F. J. Keil,  C. Kelley,  Jihan Kim,  
 R. A. King,  R. Z. Khaliullin,  P. P. Korambath,  W. Kurlancheek,  
 A. M. Lee,  M. S. Lee,  S. V. Levchenko,  Ching Yeh Lin,  D. Liotard,  
 R. C. Lochan,  I. Lotan,  P. E. Maslen,  N. Nair,  D. P. O'Neill,  
 D. Neuhauser,  E. Neuscamman,  C. M. Oana,  R. Olson,  B. Peters,  
 R. Peverati,  P. A. Pieniazek,  Y. M. Rhee,  J. Ritchie,  M. A. Rohrdanz,  
 E. Rosta,  N. J. Russ,  H. F. Schaefer III,  N. E. Schultz,  N. Shenvi,  
 A. C. Simmonett,  A. Sodt,  D. Stuck,  K. S. Thanthiriwatte,  V. Vanovschi,  
 Tao Wang,  A. Warshel,  C. F. Williams,  Q. Wu,  X. Xu,  W. Zhang

 Please cite Q-Chem as follows:
 Y. Shao et al., Mol. Phys. 113, 184-215 (2015)
 DOI: 10.1080/00268976.2014.952696

 Q-Chem 5.0.1 for Intel X86 EM64T Linux

 Parts of Q-Chem use Armadillo 5.200.1 (Boston Tea Smuggler).
 http://arma.sourceforge.net/

 Q-Chem begins on Sat Dec  1 15:38:51 2018  

Host: 32512

     Scratch files written to /scratch/mewes/141052/qchem126341//
 Parallel job on  1  processors
The previous job contains 0 fragments, simply inherited here
Symmetry turned off for PCM/SM12/SMD calculation

Checking the input file for inconsistencies... 	...done.

--------------------------------------------------------------
User input:
--------------------------------------------------------------
$rem
threads 8
jobtype opt
method PBEh-3c
basis def2-mSVP
mem_static      1024
mem_total       8000
sym_ignore      true
unrestricted true
scf_algorithm   diis
scf_max_cycles  250
solvent_method  pcm
geom_opt_tol_energy 25
geom_opt_tol_gradient 75
$end

$pcm
theory  iefpcm
HPoints 194
HeavyPoints 194
$end

$solvent
dielectric      2.03
$end

$molecule
read utLEincoords.mol
$end

--------------------------------------------------------------
 Adding empirical dispersion correction 
 ----------------------------------------------------------------
 Doing -D3(BJ) with
 s6 =   1.00000
 s8 =   0.00000
 a1 =   0.48600
 a2 =   4.50000
 -D3 energy including 3body term =     -0.1735819945 hartrees
 ----------------------------------------------------------------
 Adding gCP correction 
 ----------------------------------------------------------------
 gCP energy =      0.2390955478 hartrees
 ----------------------------------------------------------------
             Standard Nuclear Orientation (Angstroms)
    I     Atom           X                Y                Z
 ----------------------------------------------------------------
    1      C      -6.1172940000     3.8967720000     2.1794220000
    2      C      -6.6029450000     2.5449160000     2.3993560000
    3      B      -5.7098560000     1.3258720000     2.1484420000
    4      C      -4.2608600000     1.5856180000     1.7363550000
    5      C      -3.7675800000     2.9354370000     1.5222270000
    6      B      -4.6890030000     4.1451620000     1.6891950000
    7      C      -2.4420810000     3.0869090000     1.1232390000
    8      C      -1.5781650000     2.0268430000     0.8868660000
    9      C      -2.0768680000     0.6844470000     1.0829950000
   10      C      -3.3851260000     0.5288880000     1.5151610000
   11      C      -7.0225340000     4.9460340000     2.3245350000
   12      C      -8.3549890000     4.7776000000     2.6707940000
   13      C      -8.8355650000     3.4307560000     2.8951120000
   14      C      -7.9407300000     2.3831340000     2.7426140000
   15      H      -6.6487200000     5.9412160000     2.1249450000
   16      C      -6.3271080000    -0.1269340000     2.2049050000
   17      C      -4.2450950000     5.5916840000     1.2524030000
   18      C      -6.6113210000    -0.8144140000     1.0120300000
   19      C      -7.2320380000    -2.0562310000     1.0592850000
   20      C      -7.6216530000    -2.6100130000     2.2626400000
   21      C      -7.3391740000    -1.9499620000     3.4445480000
   22      C      -6.6762420000    -0.7275440000     3.4271950000
   23      C      -6.3251520000    -0.0863220000     4.7447980000
   24      C      -6.3305970000    -0.2272170000    -0.3487280000
   25      H      -7.4644170000    -2.5838300000     0.1407940000
   26      N      -8.3529400000    -3.8289510000     2.2675510000
   27      H      -7.6363020000    -2.3984140000     4.3856450000
   28      C      -4.8484670000    -0.2337260000     5.0989510000
   29      H      -6.9250130000    -0.5452440000     5.5329530000
   30      H      -6.5947700000     0.9717830000     4.7422300000
   31      C      -7.3684510000     0.8032550000    -0.7846440000
   32      H      -6.3165900000    -1.0387260000    -1.0793190000
   33      H      -5.3355180000     0.2186610000    -0.3841670000
   34      C      -4.0084350000     6.5989380000     2.2023610000
   35      C      -3.6686550000     7.8807450000     1.7844340000
   36      C      -3.5450020000     8.1695380000     0.4376440000
   37      C      -3.7633230000     7.1816060000    -0.5029940000
   38      C      -4.1201710000     5.8967960000    -0.1137990000
   39      C      -4.3819720000     4.8750820000    -1.1941560000
   40      C      -4.0887810000     6.3172150000     3.6815020000
   41      H      -3.4860210000     8.6636040000     2.5117590000
   42      N      -3.1902910000     9.4756340000     0.0146910000
   43      H      -3.6605010000     7.4250170000    -1.5544940000
   44      H      -3.9416200000     5.2390870000    -2.1244800000
   45      C      -5.8612780000     4.5885210000    -1.4398870000
   46      H      -3.8639000000     3.9406910000    -0.9692330000
   47      H      -5.0196460000     5.7965710000     3.9193670000
   48      H      -4.1353900000     7.2668140000     4.2175050000
   49      C      -2.9081150000     5.5076610000     4.2100110000
   50      C      -0.2150210000     2.2221500000     0.4309870000
   51      C     -10.2253260000     3.2048140000     3.2422860000
   52      C     -10.7157570000     1.9110530000     3.4926120000
   53      C       1.5847410000     3.7397980000    -0.2197940000
   54      C       2.3896020000     2.6253070000    -0.4691910000
   55      C     -12.8979080000     2.7518970000     3.8925090000
   56      C     -12.0308200000     1.6593310000     3.8180520000
   57      C     -12.5238590000     0.2702340000     4.0873750000
   58      H      -3.7758290000    -0.4659470000     1.6849060000
   59      C       0.3020030000     3.5105780000     0.2251280000
   60      H      -2.0904910000     4.1001360000     0.9811640000
   61      C      -1.2214870000    -0.4536840000     0.8060530000
   62      C       0.3911300000    -2.6554440000     0.2451340000
   63      C      -0.9157310000    -2.8756760000     0.6868270000
   64      C      -1.6901110000    -1.7693810000     0.9571320000
   65      C      -1.4522930000    -4.2655600000     0.8519270000
   66      H      -2.7052810000    -1.9408380000     1.2887160000
   67      H      -8.2927540000     1.3684900000     2.8697500000
   68      H     -10.0447580000     1.0642620000     3.4407720000
   69      C      -9.2779220000     5.8916960000     2.7853630000
   70      C      -8.8502430000     7.2141780000     2.5859190000
   71      C      -9.6992680000     8.2958360000     2.6753990000
   72      C     -11.0397130000     8.0425760000     2.9739560000
   73      C      -9.2106620000     9.6956190000     2.4640140000
   74      H      -7.8109030000     7.4076150000     2.3571930000
   75      C     -10.6292660000     5.6563150000     3.0969430000
   76      C       0.6061540000     1.1107740000     0.1706280000
   77      C       0.0937160000    -0.2500140000     0.3562940000
   78      C     -11.1113130000     4.2925520000     3.3324020000
   79      C       1.9061570000     1.3497670000    -0.2784260000
   80      C       0.8746640000    -1.3760750000     0.0860770000
   81      H       1.0332770000    -3.4982790000     0.0189560000
   82      H       1.8908030000    -1.2613800000    -0.2633860000
   83      H      -0.3257870000     4.3704950000     0.4136820000
   84      C       2.0995310000     5.1300360000    -0.4362870000
   85      H       3.4051770000     2.7606520000    -0.8212740000
   86      H       2.5667210000     0.5210550000    -0.4913040000
   87      C     -11.4849060000     6.7558310000     3.1792510000
   88      H     -12.5303530000     6.6130520000     3.4135160000
   89      H     -11.7401570000     8.8654490000     3.0518740000
   90      C     -12.4437500000     4.0297730000     3.6559680000
   91      H     -13.9401810000     2.5958210000     4.1443090000
   92      H     -13.1550190000     4.8397540000     3.7331860000
   93      H       2.9708170000     5.3343360000     0.1864580000
   94      H       1.3441730000     5.8787460000    -0.2039090000
   95      H       2.4034340000     5.2855210000    -1.4714780000
   96      H      -1.4281140000    -4.8165610000    -0.0884770000
   97      H      -2.4836750000    -4.2597830000     1.1992130000
   98      H      -0.8654460000    -4.8371830000     1.5712990000
   99      H     -12.9335250000     0.1817540000     5.0938960000
  100      H     -13.3201070000    -0.0101670000     3.3968840000
  101      H     -11.7325730000    -0.4703390000     3.9925670000
  102      H      -9.3820470000    10.3146550000     3.3447530000
  103      H      -8.1439110000     9.7240870000     2.2512620000
  104      H      -9.7278780000    10.1758790000     1.6325360000
  105      H      -5.9834420000     3.8969560000    -2.2729870000
  106      H      -6.4044520000     5.5014950000    -1.6819740000
  107      H      -6.3448340000     4.1412040000    -0.5738140000
  108      H      -7.1569800000     1.1610780000    -1.7917280000
  109      H      -7.3861930000     1.6689160000    -0.1249640000
  110      H      -8.3705120000     0.3746360000    -0.7869950000
  111      H      -2.8597110000     4.5177610000     3.7596360000
  112      H      -2.9851300000     5.3713050000     5.2880380000
  113      H      -1.9632320000     6.0093070000     4.0032010000
  114      H      -4.2048480000     0.2603790000     4.3725200000
  115      H      -4.5574240000    -1.2832020000     5.1336420000
  116      H      -4.6384020000     0.2032170000     6.0744200000
  117      C      -4.1919320000    10.3672930000    -0.3289490000
  118      C      -3.8781750000    11.6618980000    -0.7509760000
  119      C      -2.4482900000    12.1646250000    -0.8565150000
  120      C      -1.4514220000    11.0837350000    -0.4694700000
  121      C      -2.2745510000    13.3702510000     0.0789120000
  122      C      -2.1799700000    12.5889250000    -2.3101550000
  123      C      -1.8478880000     9.8035210000    -0.0745940000
  124      H      -2.3040390000    11.7451730000    -2.9870190000
  125      H      -1.1670840000    12.9719810000    -2.4300740000
  126      H      -2.8658080000    13.3747440000    -2.6258110000
  127      C      -4.9279990000    12.5071900000    -1.0920720000
  128      C      -6.2531920000    12.1167350000    -1.0365220000
  129      C      -6.5481330000    10.8301780000    -0.6153230000
  130      C      -5.5329410000     9.9673260000    -0.2570740000
  131      H      -5.7786190000     8.9663570000     0.0696430000
  132      H      -7.0385700000    12.8030520000    -1.3217460000
  133      H      -7.5741780000    10.4885220000    -0.5647750000
  134      H      -4.6997770000    13.5128080000    -1.4236280000
  135      C      -0.0894750000    11.3542340000    -0.5214060000
  136      C      -0.8809490000     8.8372320000     0.2250990000
  137      C       0.4629250000     9.1397110000     0.1577570000
  138      C       0.8728780000    10.4101100000    -0.2134690000
  139      H      -1.1884860000     7.8420700000     0.5137610000
  140      H       1.1894640000     8.3744410000     0.4003310000
  141      H       0.2344690000    12.3442580000    -0.8182030000
  142      H       1.9226620000    10.6634170000    -0.2652990000
  143      C      -9.7135590000    -3.7809330000     2.0012380000
  144      C      -7.6969550000    -5.0278700000     2.5073220000
  145      C      -8.4030290000    -6.2355020000     2.5291210000
  146      C      -9.8960500000    -6.3234700000     2.2598870000
  147      C     -10.4799290000    -4.9505360000     1.9769000000
  148      C     -10.1313790000    -7.2322530000     1.0411650000
  149      C     -10.3379760000    -2.5526090000     1.7469640000
  150      C     -11.6844440000    -2.4847660000     1.4509970000
  151      C     -12.4517950000    -3.6370650000     1.4163630000
  152      C     -11.8348710000    -4.8436560000     1.6848410000
  153      H     -12.4347050000    -5.7454900000     1.6604790000
  154      H     -12.1298030000    -1.5201220000     1.2449810000
  155      H     -13.5071220000    -3.6004870000     1.1834970000
  156      H      -9.7593340000    -1.6402840000     1.7650600000
  157      C      -6.3135230000    -5.0395260000     2.7173180000
  158      C      -5.6433080000    -6.2192670000     2.9706810000
  159      C      -6.3338640000    -7.4194350000     3.0155500000
  160      C      -7.6969450000    -7.4036710000     2.7898560000
  161      H      -8.2370040000    -8.3426760000     2.8150390000
  162      H      -5.7604440000    -4.1121480000     2.6828150000
  163      H      -4.5736640000    -6.1941400000     3.1342610000
  164      H      -5.8229730000    -8.3508600000     3.2171490000
  165      H      -2.4663760000    13.0872560000     1.1126310000
  166      H      -2.9633230000    14.1727890000    -0.1817650000
  167      H      -1.2638880000    13.7732790000     0.0211880000
  168      H      -9.6412410000    -6.8333320000     0.1548120000
  169      H     -11.1939380000    -7.3302760000     0.8193520000
  170      H      -9.7427800000    -8.2354880000     1.2155990000
  171      C     -10.6022030000    -6.9262030000     3.4855130000
  172      H     -10.4557490000    -6.3035830000     4.3660450000
  173      H     -10.2194000000    -7.9211560000     3.7106720000
  174      H     -11.6745770000    -7.0215010000     3.3165890000
 ----------------------------------------------------------------
 Nuclear Repulsion Energy = 16357.4925830406 hartrees
 There are      323 alpha and      321 beta electrons
 Requested basis set is def2-mSVP
 There are 818 shells and 1570 basis functions

 Total QAlloc Memory Limit   8000 MB
 Mega-Array Size      1001 MB
 MEM_STATIC part      1024 MB
 Discretize the solute cavity surface with Lebedev spheres
	Using 194 Lebedev grid points for each H atom
	Using 194 Lebedev grid points for other atoms
	Atomic van der Waals radii will be scaled by 1.20
 Remove points where switching function is < 1.0e-08
 Keep 12355 surface tesserae and discard 21401 interior tesserae
 Molecular Surface Area = 1248.186 Angst**2
 A cutoff of  1.0D-11 yielded  83126 shell pairs
 There are    317704 function pairs (    348650 Cartesian)
 
 -------------------------------------------------------
 OpenMP Integral Computing Module                       
 Release: version 1.0, May 2013, Q-Chem Inc. Pittsburgh 
 -------------------------------------------------------
 Integral Job Info:
 Integral job number is                      11
 Integral operator is                         1
 short-range coefficients                     0
 long-range coefficients              100000000
 Omega coefficients                           0
 if combine SR and LR in K                    0
 Integral screening is                        0
 Integral computing path is                   2
 max size of driver memory is            800000
 size of driver memory is                593474
 size of scratch memory is              1809772
 max col of scratch BK array               1296
 max len of scratch array in speh3          155
 max len of scratch index in speh4           18
 max int batch size is                      520
 min int batch size is                       52
 fixed nKL is                                52
 max L of basis functions is                  2
 order of int derivative is                   0
 number of shells is                        818
 number of basis is                        1664
 number of cartesian basis is              1664
 number of contracted shell pairs         83126
 number of primitive shell pairs         169463
 maxK2 (contraction) of shell pair           25
 max number of K2 of shell pair               1
 max number of CS2 of shell pair          20888
 max number of PS2 of shell pair          29070
 mem total for path MDJ                  821592
 -------------------------------------------------------
 Smallest overlap matrix eigenvalue = 1.16E-04

 Scale SEOQF with 1.000000e-02/1.000000e-02/1.000000e-02

 Standard Electronic Orientation quadrupole field applied
 Nucleus-field energy     =     0.0000002543 hartrees
 Guess from superposition of atomic densities
 Warning:  Energy on first SCF cycle will be non-variational
 An unrestricted hybrid HF-DFT SCF calculation will be
 performed using Pulay DIIS extrapolation
 Polarizable Continuum solvation model will be applied
 Exchange:     0.4200 Hartree-Fock + 0.5800 PBEh-3c
 Correlation:  1.0000 PBEh-3c
 Using SG-1 standard quadrature grid
 Dispersion:   Grimme D3
 SCF converges when DIIS error is below 1.0E-08
 using 8 threads for integral computing
 -------------------------------------------------------
 OpenMP Integral computing Module                
 Release: version 1.0, May 2013, Q-Chem Inc. Pittsburgh 
 -------------------------------------------------------
 ---------------------------------------
  Cycle       Energy         DIIS Error
 ---------------------------------------
    1   -3660.5065257975      2.11E-02
 Using non-symmetric K matrix
    2   -3628.2452642481      1.61E-03
    3   -3627.5486241965      2.01E-03
    4   -3628.8074008526      9.59E-04
    5   -3629.1588821858      1.68E-04
    6   -3629.1683244105      1.13E-04
    7   -3629.1730333200      3.22E-05
    8   -3629.1735716701      1.28E-05
    9   -3629.1737933176      4.70E-06
   10   -3629.1738853363      2.61E-06
   11   -3629.1739566355      1.44E-06
   12   -3629.1739965536      1.17E-06
   13   -3629.1740165447      5.65E-07
   14   -3629.1740277992      4.66E-07
   15   -3629.1740342020      2.29E-07
   16   -3629.1740366213      1.60E-07
   17   -3629.1740375741      9.68E-08
   18   -3629.1740378249      4.57E-08
   19   -3629.1740379860      3.38E-08
   20   -3629.1740380983      2.30E-08
   21   -3629.1740381976      1.58E-08
   22   -3629.1740382332      8.65E-09 Convergence criterion met
 ---------------------------------------

************** Final PCM Free Energy Summary **************
 G_electrostatic  =      -0.02951150 hartree =     -18.51874414 kcal/mol
 G_cavitation     =       0.00000000 hartree =       0.00000000 kcal/mol
 G_dispersion     =       0.00000000 hartree =       0.00000000 kcal/mol
 G_repulsion      =       0.00000000 hartree =       0.00000000 kcal/mol
 --------------------------------------------------
 Non-electrostatic Free Energy =       0.00000000 hartree =       0.00000000 kcal/mol
 Total                         =      -0.02951150 hartree =     -18.51874414 kcal/mol
 --------------------------------------------------
 SCF Energy (H0 + V/2)                       =   -3629.17403823 
 Solute Internal Energy (H0)                 =   -3629.14452674 
 Total Free Energy (H0 + V/2 + non-elec)     =   -3629.17403823 hartree
                                             = -2277341.08089867 kcal/mol
***********************************************************

 <S^2> = 2.0761
 SCF time:  CPU 24629.35 s  wall 8024.38 s
 SCF   energy in the final basis set = -3629.17403823
 Total energy in the final basis set = -3629.17403823
 
 --------------------------------------------------------------
 
                    Orbital Energies (a.u.)
 --------------------------------------------------------------
 
 Alpha MOs
 -- Occupied --
-14.802 -14.660 -10.558 -10.557 -10.523 -10.522 -10.522 -10.512
-10.504 -10.503 -10.503 -10.503 -10.496 -10.496 -10.494 -10.493
-10.478 -10.478 -10.468 -10.468 -10.466 -10.464 -10.462 -10.462
-10.461 -10.456 -10.448 -10.448 -10.447 -10.446 -10.446 -10.446
-10.443 -10.442 -10.442 -10.442 -10.441 -10.440 -10.437 -10.437
-10.437 -10.437 -10.436 -10.435 -10.435 -10.434 -10.434 -10.434
-10.434 -10.433 -10.433 -10.433 -10.433 -10.432 -10.432 -10.431
-10.431 -10.430 -10.430 -10.430 -10.430 -10.429 -10.429 -10.429
-10.428 -10.426 -10.425 -10.425 -10.424 -10.423 -10.423 -10.421
-10.419 -10.419 -10.418 -10.418 -10.416 -10.415 -10.414 -10.413
-10.413 -10.413 -10.411 -10.411 -10.410 -10.404 -10.399 -10.398
-10.395 -10.395 -10.392 -10.392  -6.884  -6.884  -1.184  -1.073
 -1.027  -1.024  -0.978  -0.977  -0.977  -0.966  -0.954  -0.946
 -0.945  -0.945  -0.932  -0.925  -0.923  -0.918  -0.898  -0.896
 -0.896  -0.894  -0.885  -0.884  -0.873  -0.868  -0.857  -0.856
 -0.854  -0.851  -0.846  -0.843  -0.837  -0.836  -0.835  -0.822
 -0.817  -0.814  -0.813  -0.803  -0.802  -0.796  -0.792  -0.791
 -0.784  -0.784  -0.783  -0.776  -0.776  -0.775  -0.771  -0.757
 -0.742  -0.741  -0.737  -0.728  -0.722  -0.709  -0.708  -0.705
 -0.696  -0.695  -0.694  -0.691  -0.685  -0.684  -0.679  -0.678
 -0.673  -0.669  -0.667  -0.661  -0.656  -0.649  -0.646  -0.644
 -0.639  -0.626  -0.621  -0.620  -0.613  -0.605  -0.603  -0.602
 -0.598  -0.594  -0.592  -0.592  -0.588  -0.587  -0.581  -0.579
 -0.567  -0.562  -0.550  -0.549  -0.547  -0.545  -0.543  -0.541
 -0.536  -0.536  -0.530  -0.530  -0.526  -0.525  -0.523  -0.523
 -0.515  -0.514  -0.512  -0.512  -0.510  -0.508  -0.502  -0.502
 -0.502  -0.495  -0.494  -0.492  -0.491  -0.488  -0.485  -0.484
 -0.483  -0.481  -0.479  -0.479  -0.478  -0.476  -0.475  -0.473
 -0.472  -0.471  -0.470  -0.467  -0.467  -0.467  -0.466  -0.466
 -0.464  -0.464  -0.462  -0.459  -0.457  -0.456  -0.454  -0.453
 -0.453  -0.452  -0.449  -0.448  -0.445  -0.444  -0.441  -0.440
 -0.439  -0.436  -0.433  -0.433  -0.430  -0.428  -0.427  -0.425
 -0.424  -0.423  -0.421  -0.418  -0.414  -0.413  -0.411  -0.410
 -0.407  -0.407  -0.406  -0.404  -0.403  -0.401  -0.399  -0.397
 -0.395  -0.394  -0.394  -0.393  -0.392  -0.391  -0.385  -0.384
 -0.383  -0.379  -0.375  -0.373  -0.370  -0.369  -0.369  -0.367
 -0.363  -0.361  -0.359  -0.358  -0.356  -0.353  -0.347  -0.347
 -0.340  -0.337  -0.335  -0.326  -0.317  -0.311  -0.310  -0.309
 -0.308  -0.307  -0.305  -0.297  -0.295  -0.286  -0.285  -0.275
 -0.270  -0.266  -0.258  -0.258  -0.254  -0.248  -0.239  -0.231
 -0.224  -0.207  -0.133
 -- Virtual --
 -0.048  -0.043  -0.031  -0.029  -0.011  -0.006  -0.004   0.001
  0.003   0.010   0.013   0.021   0.024   0.025   0.034   0.035
  0.053   0.055   0.069   0.073   0.076   0.081   0.087   0.089
  0.104   0.108   0.112   0.126   0.128   0.134   0.136   0.137
  0.139   0.140   0.141   0.148   0.151   0.154   0.155   0.157
  0.160   0.161   0.163   0.168   0.169   0.170   0.172   0.174
  0.179   0.181   0.182   0.184   0.185   0.187   0.188   0.189
  0.190   0.192   0.192   0.192   0.195   0.196   0.198   0.200
  0.202   0.203   0.204   0.205   0.206   0.207   0.209   0.211
  0.212   0.213   0.214   0.215   0.215   0.217   0.219   0.221
  0.222   0.224   0.226   0.227   0.229   0.230   0.231   0.231
  0.232   0.233   0.235   0.236   0.237   0.239   0.240   0.241
  0.242   0.243   0.245   0.246   0.248   0.249   0.249   0.251
  0.253   0.254   0.255   0.256   0.257   0.258   0.260   0.261
  0.264   0.265   0.265   0.266   0.266   0.268   0.271   0.273
  0.275   0.277   0.277   0.279   0.280   0.282   0.284   0.285
  0.286   0.290   0.293   0.296   0.297   0.298   0.300   0.302
  0.304   0.306   0.307   0.309   0.310   0.312   0.315   0.316
  0.317   0.318   0.319   0.320   0.321   0.322   0.325   0.326
  0.331   0.332   0.332   0.339   0.341   0.342   0.345   0.347
  0.351   0.352   0.357   0.358   0.361   0.363   0.368   0.375
  0.378   0.380   0.382   0.385   0.388   0.389   0.390   0.394
  0.395   0.396   0.398   0.402   0.405   0.410   0.411   0.416
  0.419   0.424   0.427   0.428   0.432   0.440   0.444   0.447
  0.449   0.453   0.456   0.457   0.458   0.460   0.462   0.463
  0.464   0.464   0.474   0.476   0.478   0.482   0.485   0.489
  0.491   0.493   0.494   0.496   0.498   0.499   0.501   0.503
  0.504   0.507   0.508   0.509   0.511   0.514   0.515   0.515
  0.518   0.518   0.519   0.522   0.523   0.525   0.525   0.527
  0.527   0.528   0.529   0.530   0.532   0.535   0.535   0.537
  0.540   0.541   0.544   0.545   0.546   0.551   0.551   0.553
  0.555   0.559   0.560   0.561   0.563   0.564   0.565   0.566
  0.567   0.568   0.569   0.570   0.571   0.574   0.574   0.575
  0.575   0.577   0.578   0.578   0.581   0.582   0.583   0.585
  0.585   0.586   0.589   0.590   0.593   0.595   0.597   0.600
  0.602   0.604   0.607   0.607   0.609   0.612   0.614   0.615
  0.617   0.618   0.619   0.621   0.622   0.622   0.624   0.624
  0.626   0.626   0.628   0.628   0.629   0.631   0.633   0.635
  0.636   0.637   0.639   0.640   0.640   0.641   0.641   0.643
  0.645   0.646   0.648   0.648   0.650   0.652   0.653   0.653
  0.655   0.658   0.661   0.662   0.665   0.667   0.668   0.670
  0.671   0.674   0.675   0.678   0.679   0.681   0.686   0.686
  0.689   0.691   0.693   0.696   0.698   0.700   0.702   0.704
  0.707   0.708   0.711   0.712   0.713   0.714   0.716   0.719
  0.721   0.723   0.724   0.725   0.729   0.730   0.730   0.732
  0.734   0.738   0.740   0.743   0.744   0.752   0.754   0.755
  0.757   0.758   0.760   0.760   0.762   0.767   0.770   0.771
  0.771   0.773   0.778   0.779   0.779   0.780   0.782   0.785
  0.788   0.789   0.791   0.792   0.793   0.794   0.796   0.799
  0.802   0.803   0.804   0.810   0.811   0.813   0.814   0.818
  0.820   0.821   0.824   0.826   0.827   0.829   0.831   0.836
  0.839   0.841   0.843   0.844   0.847   0.848   0.853   0.858
  0.861   0.863   0.867   0.871   0.875   0.878   0.882   0.884
  0.888   0.893   0.896   0.898   0.905   0.910   0.915   0.917
  0.919   0.922   0.922   0.924   0.926   0.931   0.933   0.934
  0.940   0.940   0.945   0.951   0.953   0.954   0.956   0.958
  0.962   0.964   0.966   0.968   0.969   0.971   0.975   0.975
  0.980   0.981   0.983   0.986   0.990   0.994   0.995   0.996
  0.998   0.999   1.003   1.005   1.006   1.008   1.009   1.011
  1.013   1.016   1.016   1.017   1.018   1.020   1.021   1.023
  1.024   1.028   1.030   1.032   1.034   1.037   1.039   1.040
  1.044   1.045   1.046   1.048   1.050   1.053   1.053   1.055
  1.057   1.059   1.060   1.060   1.062   1.065   1.066   1.067
  1.069   1.071   1.072   1.073   1.073   1.075   1.077   1.078
  1.080   1.082   1.085   1.086   1.088   1.090   1.091   1.093
  1.094   1.097   1.097   1.099   1.101   1.102   1.105   1.107
  1.109   1.110   1.111   1.114   1.116   1.117   1.120   1.121
  1.123   1.125   1.127   1.128   1.133   1.133   1.138   1.141
  1.142   1.143   1.145   1.148   1.150   1.155   1.156   1.159
  1.159   1.162   1.163   1.164   1.169   1.169   1.172   1.175
  1.180   1.182   1.183   1.186   1.187   1.190   1.192   1.194
  1.198   1.201   1.206   1.207   1.210   1.213   1.217   1.222
  1.223   1.227   1.229   1.237   1.240   1.246   1.250   1.252
  1.253   1.255   1.257   1.259   1.260   1.266   1.272   1.274
  1.278   1.280   1.281   1.284   1.285   1.287   1.288   1.292
  1.295   1.301   1.304   1.306   1.307   1.311   1.314   1.316
  1.317   1.321   1.326   1.328   1.328   1.330   1.333   1.336
  1.339   1.344   1.348   1.349   1.351   1.352   1.356   1.361
  1.364   1.368   1.372   1.373   1.378   1.381   1.384   1.388
  1.395   1.401   1.402   1.405   1.405   1.408   1.411   1.415
  1.417   1.420   1.420   1.421   1.422   1.423   1.428   1.431
  1.431   1.435   1.437   1.440   1.442   1.446   1.446   1.448
  1.451   1.452   1.455   1.460   1.463   1.466   1.473   1.480
  1.481   1.482   1.483   1.486   1.490   1.496   1.499   1.501
  1.502   1.506   1.507   1.510   1.512   1.515   1.516   1.519
  1.522   1.524   1.528   1.531   1.532   1.533   1.539   1.541
  1.545   1.547   1.548   1.549   1.551   1.553   1.559   1.561
  1.565   1.566   1.569   1.571   1.572   1.573   1.574   1.578
  1.579   1.580   1.585   1.589   1.591   1.596   1.598   1.604
  1.607   1.608   1.610   1.615   1.616   1.619   1.632   1.633
  1.637   1.638   1.641   1.642   1.654   1.657   1.657   1.664
  1.671   1.676   1.681   1.683   1.686   1.690   1.695   1.711
  1.712   1.717   1.723   1.727   1.730   1.733   1.743   1.752
  1.754   1.759   1.763   1.765   1.771   1.774   1.777   1.779
  1.785   1.793   1.799   1.799   1.801   1.804   1.807   1.812
  1.813   1.816   1.823   1.824   1.825   1.826   1.830   1.834
  1.836   1.843   1.845   1.849   1.851   1.852   1.863   1.865
  1.867   1.869   1.873   1.875   1.876   1.876   1.878   1.881
  1.883   1.885   1.893   1.899   1.900   1.902   1.904   1.905
  1.909   1.913   1.915   1.916   1.920   1.925   1.930   1.933
  1.934   1.937   1.937   1.945   1.945   1.947   1.950   1.951
  1.954   1.956   1.958   1.959   1.960   1.963   1.965   1.966
  1.967   1.971   1.971   1.981   1.982   1.987   1.989   1.990
  1.993   1.998   2.000   2.006   2.008   2.015   2.016   2.017
  2.022   2.026   2.030   2.034   2.039   2.040   2.044   2.047
  2.052   2.054   2.063   2.065   2.066   2.069   2.073   2.075
  2.081   2.084   2.086   2.089   2.093   2.093   2.094   2.097
  2.099   2.100   2.105   2.110   2.113   2.118   2.125   2.131
  2.133   2.136   2.144   2.147   2.148   2.152   2.154   2.156
  2.158   2.159   2.162   2.163   2.169   2.173   2.176   2.177
  2.186   2.188   2.193   2.196   2.201   2.203   2.205   2.209
  2.210   2.216   2.216   2.223   2.224   2.230   2.231   2.233
  2.235   2.236   2.238   2.242   2.243   2.247   2.252   2.254
  2.258   2.262   2.264   2.267   2.270   2.271   2.275   2.281
  2.286   2.292   2.292   2.294   2.298   2.298   2.303   2.305
  2.307   2.311   2.314   2.318   2.320   2.321   2.325   2.326
  2.327   2.328   2.329   2.333   2.336   2.337   2.340   2.341
  2.344   2.346   2.347   2.353   2.354   2.354   2.357   2.358
  2.361   2.366   2.368   2.369   2.370   2.374   2.377   2.380
  2.382   2.383   2.386   2.386   2.390   2.391   2.393   2.395
  2.398   2.400   2.404   2.404   2.407   2.409   2.412   2.415
  2.417   2.418   2.420   2.421   2.424   2.426   2.428   2.432
  2.435   2.440   2.450   2.458   2.458   2.460   2.464   2.465
  2.468   2.470   2.472   2.476   2.477   2.480   2.482   2.485
  2.489   2.492   2.495   2.496   2.498   2.500   2.507   2.512
  2.514   2.517   2.526   2.528   2.529   2.531   2.536   2.543
  2.545   2.548   2.551   2.555   2.562   2.566   2.570   2.581
  2.602   2.608   2.612   2.613   2.626   2.630   2.631   2.640
  2.642   2.644   2.652   2.664   2.670   2.672   2.679   2.684
  2.689   2.697   2.702   2.703   2.712   2.715   2.717   2.718
  2.719   2.722   2.726   2.729   2.730   2.730   2.731   2.732
  2.734   2.735   2.739   2.743   2.745   2.745   2.748   2.754
  2.755   2.759   2.761   2.770   2.775   2.777   2.780   2.782
  2.788   2.789   2.792   2.801   2.812   2.814   2.818   2.820
  2.821   2.826   2.827   2.828   2.833   2.834   2.836   2.839
  2.843   2.846   2.847   2.856   2.867   2.876   2.882   2.883
  2.887   2.892   2.895   2.898   2.902   2.907   2.908   2.909
  2.923   2.933   2.940   2.943   2.954   2.955   2.960   2.964
  2.966   2.975   2.979   2.982   2.984   2.987   2.989   2.995
  3.007   3.018   3.022   3.031   3.036   3.040   3.045   3.063
  3.070   3.073   3.087   3.105   3.121   3.134   3.146   3.148
  3.177   3.187   3.213   3.218   3.222   3.223   3.236   3.274
  3.316   3.351   3.427   3.459   3.460   3.460   3.479   3.505
  3.512   3.531   3.542   3.565   3.582   3.588   3.602   3.694
  3.711   9.669   9.815  13.180  13.190  13.219  13.263  13.278
 13.353  13.450  13.456  13.458  13.528  13.540  13.579  13.595
 13.651  13.663  13.679  13.685  13.690  13.712  13.715  13.723
 13.725  13.754  13.774  13.779  13.791  13.807  13.817  13.820
 13.830  13.844  13.848  13.850  13.855  13.882  13.886  13.902
 13.910  13.912  13.919  13.946  14.012  14.039  14.041  14.043
 14.049  14.061  14.067  14.077  14.102  14.106  14.107  14.114
 14.130  14.165  14.181  14.188  14.189  14.199  14.200  14.201
 14.207  14.221  14.237  14.238  14.241  14.244  14.245  14.267
 14.272  14.276  14.286  14.311  14.316  14.336  14.338  14.461
 14.475  14.534  14.548  14.564  14.575  14.576  14.581  14.601
 14.606  14.611  14.611  14.624  14.639  19.528  19.661
 
 Beta MOs
 -- Occupied --
-14.790 -14.660 -10.559 -10.559 -10.523 -10.519 -10.519 -10.512
-10.501 -10.501 -10.500 -10.500 -10.498 -10.498 -10.496 -10.495
-10.478 -10.478 -10.468 -10.467 -10.465 -10.464 -10.462 -10.462
-10.461 -10.456 -10.448 -10.448 -10.447 -10.447 -10.446 -10.446
-10.443 -10.443 -10.442 -10.442 -10.441 -10.440 -10.437 -10.437
-10.437 -10.437 -10.435 -10.435 -10.434 -10.434 -10.434 -10.434
-10.433 -10.433 -10.433 -10.433 -10.432 -10.432 -10.431 -10.431
-10.431 -10.430 -10.430 -10.430 -10.430 -10.429 -10.429 -10.428
-10.428 -10.425 -10.425 -10.425 -10.424 -10.423 -10.423 -10.421
-10.419 -10.419 -10.418 -10.417 -10.416 -10.416 -10.415 -10.413
-10.413 -10.413 -10.411 -10.411 -10.410 -10.404 -10.399 -10.398
-10.395 -10.395 -10.391 -10.391  -6.882  -6.881  -1.164  -1.073
 -1.021  -1.020  -0.977  -0.976  -0.975  -0.963  -0.954  -0.946
 -0.945  -0.945  -0.931  -0.924  -0.922  -0.914  -0.896  -0.895
 -0.893  -0.893  -0.885  -0.884  -0.870  -0.868  -0.856  -0.855
 -0.852  -0.847  -0.845  -0.843  -0.837  -0.836  -0.835  -0.822
 -0.815  -0.812  -0.811  -0.803  -0.802  -0.794  -0.792  -0.788
 -0.784  -0.784  -0.783  -0.774  -0.773  -0.771  -0.770  -0.757
 -0.742  -0.741  -0.735  -0.726  -0.719  -0.709  -0.707  -0.704
 -0.696  -0.695  -0.693  -0.691  -0.684  -0.683  -0.677  -0.676
 -0.670  -0.669  -0.667  -0.661  -0.656  -0.648  -0.646  -0.640
 -0.638  -0.625  -0.621  -0.618  -0.613  -0.603  -0.602  -0.602
 -0.594  -0.592  -0.591  -0.586  -0.586  -0.580  -0.578  -0.573
 -0.567  -0.559  -0.549  -0.548  -0.544  -0.543  -0.539  -0.538
 -0.535  -0.535  -0.530  -0.529  -0.525  -0.524  -0.523  -0.523
 -0.515  -0.512  -0.511  -0.510  -0.508  -0.502  -0.501  -0.499
 -0.496  -0.494  -0.493  -0.490  -0.490  -0.487  -0.485  -0.483
 -0.482  -0.481  -0.479  -0.479  -0.476  -0.475  -0.474  -0.473
 -0.471  -0.470  -0.467  -0.467  -0.466  -0.466  -0.466  -0.464
 -0.463  -0.462  -0.461  -0.459  -0.457  -0.456  -0.454  -0.452
 -0.452  -0.452  -0.447  -0.443  -0.443  -0.440  -0.440  -0.439
 -0.438  -0.434  -0.432  -0.430  -0.428  -0.427  -0.425  -0.424
 -0.423  -0.419  -0.417  -0.415  -0.414  -0.413  -0.411  -0.409
 -0.407  -0.407  -0.405  -0.403  -0.403  -0.400  -0.398  -0.394
 -0.394  -0.393  -0.392  -0.391  -0.391  -0.390  -0.384  -0.384
 -0.382  -0.378  -0.374  -0.372  -0.370  -0.369  -0.368  -0.367
 -0.362  -0.358  -0.358  -0.356  -0.353  -0.346  -0.343  -0.338
 -0.335  -0.334  -0.333  -0.318  -0.314  -0.309  -0.307  -0.306
 -0.305  -0.304  -0.296  -0.294  -0.285  -0.285  -0.275  -0.270
 -0.261  -0.258  -0.256  -0.253  -0.238  -0.235  -0.229  -0.218
 -0.207
 -- Virtual --
 -0.179  -0.043  -0.038  -0.034  -0.023  -0.019  -0.005  -0.000
  0.001   0.003   0.013   0.015   0.017   0.024   0.024   0.030
  0.034   0.037   0.053   0.061   0.072   0.074   0.078   0.083
  0.088   0.097   0.104   0.109   0.126   0.128   0.131   0.135
  0.138   0.141   0.144   0.148   0.149   0.149   0.152   0.154
  0.155   0.158   0.160   0.162   0.163   0.169   0.169   0.171
  0.172   0.175   0.180   0.181   0.183   0.186   0.187   0.188
  0.188   0.190   0.191   0.192   0.193   0.195   0.196   0.196
  0.201   0.201   0.203   0.204   0.205   0.206   0.207   0.208
  0.210   0.211   0.212   0.213   0.214   0.215   0.216   0.218
  0.219   0.221   0.223   0.227   0.228   0.228   0.230   0.230
  0.231   0.232   0.232   0.235   0.235   0.237   0.238   0.239
  0.240   0.241   0.243   0.244   0.245   0.247   0.249   0.249
  0.250   0.252   0.253   0.255   0.256   0.256   0.258   0.258
  0.261   0.262   0.264   0.265   0.266   0.267   0.268   0.269
  0.272   0.275   0.277   0.278   0.278   0.279   0.281   0.284
  0.285   0.286   0.287   0.291   0.294   0.297   0.297   0.299
  0.301   0.304   0.305   0.306   0.309   0.310   0.311   0.314
  0.315   0.317   0.317   0.318   0.321   0.321   0.322   0.323
  0.326   0.327   0.331   0.332   0.334   0.341   0.344   0.344
  0.345   0.348   0.352   0.353   0.358   0.358   0.362   0.364
  0.370   0.377   0.379   0.381   0.383   0.388   0.389   0.391
  0.393   0.396   0.396   0.398   0.399   0.403   0.408   0.412
  0.413   0.419   0.421   0.425   0.427   0.429   0.433   0.440
  0.445   0.449   0.452   0.455   0.458   0.458   0.459   0.461
  0.463   0.464   0.465   0.465   0.476   0.479   0.481   0.483
  0.487   0.489   0.492   0.494   0.494   0.497   0.499   0.500
  0.502   0.504   0.505   0.508   0.510   0.510   0.513   0.516
  0.516   0.519   0.519   0.520   0.521   0.523   0.524   0.526
  0.527   0.527   0.528   0.529   0.531   0.531   0.533   0.536
  0.537   0.539   0.541   0.542   0.545   0.547   0.547   0.553
  0.554   0.557   0.557   0.559   0.562   0.564   0.564   0.565
  0.566   0.567   0.567   0.569   0.570   0.571   0.572   0.574
  0.576   0.576   0.577   0.578   0.579   0.580   0.582   0.584
  0.585   0.586   0.586   0.587   0.590   0.593   0.595   0.596
  0.599   0.601   0.603   0.605   0.608   0.609   0.610   0.614
  0.615   0.617   0.618   0.619   0.620   0.622   0.623   0.623
  0.624   0.625   0.626   0.627   0.628   0.629   0.630   0.632
  0.634   0.636   0.637   0.638   0.640   0.640   0.641   0.641
  0.643   0.644   0.647   0.647   0.649   0.649   0.651   0.653
  0.654   0.654   0.657   0.659   0.662   0.663   0.666   0.667
  0.668   0.670   0.672   0.675   0.676   0.679   0.680   0.682
  0.686   0.687   0.690   0.692   0.694   0.697   0.699   0.701
  0.703   0.705   0.708   0.709   0.712   0.713   0.714   0.715
  0.717   0.720   0.721   0.724   0.726   0.727   0.729   0.731
  0.731   0.733   0.735   0.738   0.740   0.744   0.745   0.753
  0.755   0.755   0.757   0.758   0.761   0.761   0.763   0.768
  0.771   0.771   0.772   0.774   0.779   0.779   0.780   0.781
  0.782   0.786   0.789   0.790   0.791   0.793   0.794   0.796
  0.798   0.800   0.802   0.804   0.805   0.811   0.813   0.814
  0.815   0.819   0.820   0.822   0.825   0.827   0.829   0.830
  0.834   0.837   0.840   0.843   0.843   0.845   0.848   0.849
  0.854   0.859   0.861   0.864   0.868   0.872   0.876   0.878
  0.884   0.885   0.889   0.893   0.897   0.899   0.906   0.911
  0.915   0.918   0.919   0.923   0.923   0.925   0.928   0.932
  0.934   0.935   0.941   0.941   0.947   0.952   0.954   0.955
  0.958   0.959   0.963   0.965   0.967   0.968   0.970   0.971
  0.976   0.976   0.980   0.982   0.984   0.986   0.991   0.995
  0.995   0.997   0.999   1.001   1.004   1.006   1.007   1.009
  1.011   1.012   1.014   1.016   1.017   1.018   1.018   1.020
  1.022   1.024   1.025   1.030   1.031   1.032   1.036   1.038
  1.040   1.041   1.044   1.046   1.048   1.049   1.051   1.053
  1.054   1.056   1.057   1.060   1.060   1.061   1.063   1.065
  1.066   1.068   1.070   1.071   1.072   1.073   1.074   1.075
  1.077   1.079   1.080   1.082   1.086   1.086   1.088   1.091
  1.092   1.093   1.094   1.097   1.098   1.100   1.103   1.104
  1.106   1.108   1.109   1.111   1.114   1.116   1.117   1.120
  1.121   1.122   1.124   1.126   1.127   1.129   1.133   1.134
  1.139   1.142   1.143   1.144   1.146   1.148   1.151   1.155
  1.157   1.160   1.160   1.163   1.163   1.164   1.169   1.170
  1.172   1.175   1.180   1.183   1.184   1.186   1.187   1.191
  1.193   1.195   1.199   1.202   1.207   1.208   1.210   1.214
  1.218   1.222   1.224   1.228   1.230   1.241   1.243   1.248
  1.251   1.254   1.255   1.256   1.259   1.260   1.261   1.267
  1.274   1.275   1.279   1.281   1.282   1.285   1.286   1.289
  1.289   1.293   1.296   1.302   1.305   1.307   1.308   1.312
  1.315   1.316   1.318   1.322   1.326   1.328   1.328   1.330
  1.334   1.336   1.340   1.346   1.350   1.350   1.352   1.355
  1.357   1.362   1.365   1.370   1.374   1.375   1.379   1.381
  1.385   1.389   1.395   1.402   1.403   1.405   1.407   1.408
  1.413   1.418   1.418   1.420   1.422   1.422   1.423   1.425
  1.429   1.431   1.433   1.436   1.438   1.443   1.443   1.447
  1.449   1.450   1.452   1.452   1.458   1.460   1.463   1.466
  1.474   1.480   1.482   1.483   1.487   1.489   1.491   1.498
  1.500   1.502   1.504   1.507   1.508   1.511   1.512   1.516
  1.519   1.520   1.522   1.526   1.529   1.531   1.533   1.534
  1.539   1.542   1.545   1.547   1.548   1.550   1.552   1.554
  1.559   1.561   1.566   1.566   1.569   1.572   1.573   1.574
  1.578   1.578   1.580   1.580   1.586   1.589   1.592   1.596
  1.599   1.605   1.608   1.609   1.611   1.616   1.617   1.620
  1.633   1.634   1.638   1.639   1.643   1.643   1.656   1.658
  1.659   1.665   1.673   1.677   1.683   1.685   1.686   1.692
  1.701   1.713   1.713   1.722   1.725   1.729   1.733   1.736
  1.744   1.752   1.756   1.760   1.764   1.766   1.771   1.774
  1.778   1.780   1.786   1.794   1.800   1.800   1.802   1.805
  1.807   1.813   1.814   1.816   1.824   1.825   1.827   1.827
  1.831   1.835   1.840   1.844   1.848   1.849   1.853   1.854
  1.864   1.867   1.868   1.870   1.873   1.876   1.876   1.878
  1.879   1.882   1.886   1.894   1.894   1.900   1.901   1.903
  1.906   1.907   1.910   1.913   1.915   1.917   1.922   1.926
  1.931   1.933   1.935   1.937   1.939   1.945   1.945   1.948
  1.950   1.954   1.956   1.958   1.958   1.960   1.961   1.964
  1.966   1.966   1.968   1.972   1.973   1.982   1.983   1.988
  1.990   1.991   1.995   1.999   2.001   2.008   2.010   2.016
  2.018   2.019   2.024   2.029   2.031   2.038   2.041   2.041
  2.045   2.048   2.054   2.054   2.065   2.066   2.067   2.070
  2.076   2.078   2.082   2.085   2.086   2.090   2.093   2.093
  2.094   2.098   2.101   2.102   2.106   2.111   2.113   2.120
  2.126   2.132   2.134   2.137   2.145   2.147   2.150   2.153
  2.155   2.159   2.160   2.161   2.163   2.166   2.170   2.174
  2.177   2.177   2.187   2.189   2.193   2.199   2.202   2.203
  2.207   2.210   2.212   2.217   2.219   2.224   2.225   2.231
  2.232   2.234   2.235   2.236   2.240   2.244   2.246   2.248
  2.254   2.255   2.259   2.263   2.265   2.268   2.271   2.273
  2.276   2.283   2.287   2.292   2.295   2.296   2.299   2.299
  2.304   2.305   2.309   2.314   2.315   2.318   2.320   2.321
  2.327   2.327   2.328   2.330   2.331   2.334   2.336   2.338
  2.340   2.343   2.344   2.346   2.349   2.353   2.354   2.355
  2.357   2.361   2.362   2.368   2.368   2.370   2.372   2.375
  2.378   2.381   2.384   2.384   2.386   2.388   2.391   2.392
  2.394   2.396   2.399   2.402   2.404   2.405   2.407   2.410
  2.412   2.415   2.417   2.419   2.421   2.424   2.425   2.427
  2.431   2.433   2.435   2.440   2.451   2.458   2.460   2.462
  2.465   2.467   2.469   2.471   2.472   2.477   2.478   2.481
  2.483   2.488   2.490   2.493   2.496   2.497   2.499   2.500
  2.509   2.513   2.517   2.520   2.527   2.529   2.529   2.532
  2.538   2.545   2.546   2.549   2.552   2.557   2.564   2.567
  2.573   2.582   2.602   2.608   2.614   2.618   2.627   2.630
  2.632   2.641   2.643   2.648   2.655   2.664   2.672   2.674
  2.680   2.685   2.689   2.697   2.702   2.703   2.714   2.716
  2.719   2.719   2.720   2.723   2.728   2.730   2.730   2.731
  2.732   2.733   2.735   2.736   2.739   2.743   2.745   2.746
  2.750   2.754   2.756   2.761   2.762   2.770   2.777   2.778
  2.781   2.783   2.788   2.790   2.793   2.801   2.813   2.814
  2.818   2.821   2.823   2.827   2.828   2.829   2.833   2.835
  2.837   2.839   2.843   2.846   2.848   2.856   2.867   2.877
  2.883   2.885   2.888   2.893   2.895   2.899   2.903   2.908
  2.909   2.911   2.924   2.934   2.941   2.944   2.955   2.956
  2.961   2.965   2.966   2.976   2.982   2.983   2.984   2.988
  2.990   2.998   3.008   3.018   3.022   3.033   3.037   3.041
  3.045   3.065   3.071   3.074   3.090   3.106   3.123   3.135
  3.148   3.149   3.178   3.188   3.213   3.218   3.222   3.223
  3.237   3.274   3.317   3.352   3.427   3.459   3.460   3.461
  3.480   3.505   3.513   3.532   3.543   3.565   3.582   3.588
  3.602   3.694   3.711   9.673   9.819  13.181  13.191  13.219
 13.263  13.279  13.353  13.450  13.456  13.458  13.528  13.540
 13.580  13.597  13.652  13.663  13.680  13.685  13.690  13.712
 13.717  13.723  13.725  13.754  13.774  13.779  13.791  13.807
 13.817  13.820  13.830  13.844  13.848  13.850  13.854  13.882
 13.887  13.902  13.910  13.912  13.919  13.946  14.013  14.039
 14.041  14.043  14.049  14.061  14.067  14.077  14.103  14.106
 14.107  14.114  14.131  14.165  14.181  14.188  14.189  14.199
 14.200  14.201  14.207  14.221  14.237  14.238  14.241  14.244
 14.246  14.267  14.273  14.276  14.287  14.311  14.316  14.336
 14.338  14.461  14.475  14.535  14.549  14.565  14.575  14.576
 14.581  14.601  14.607  14.611  14.612  14.624  14.639  19.544
 19.661
 --------------------------------------------------------------
 
          Ground-State Mulliken Net Atomic Charges

     Atom                 Charge (a.u.)    Spin (a.u.)
  --------------------------------------------------------
      1 C                    -0.090126       0.004961
      2 C                    -0.103432       0.054520
      3 B                     0.512643       0.298882
      4 C                    -0.094089       0.052013
      5 C                    -0.090459       0.005853
      6 B                     0.481601       0.391323
      7 C                    -0.447670       0.010231
      8 C                     0.082021       0.031627
      9 C                     0.074559       0.085275
     10 C                    -0.444513      -0.041109
     11 C                    -0.441566       0.011875
     12 C                     0.084199       0.030592
     13 C                     0.076746       0.087189
     14 C                    -0.432934      -0.042299
     15 H                     0.204539      -0.001825
     16 C                    -0.177404      -0.033362
     17 C                    -0.147354      -0.032048
     18 C                     0.042703       0.008931
     19 C                    -0.309898      -0.004285
     20 C                     0.190260       0.006193
     21 C                    -0.313259      -0.004601
     22 C                     0.053241       0.009807
     23 C                    -0.533840       0.000929
     24 C                    -0.538339       0.000594
     25 H                     0.226621       0.000532
     26 N                    -0.717932      -0.000326
     27 H                     0.225552       0.000597
     28 C                    -0.657265       0.001274
     29 H                     0.224178       0.000251
     30 H                     0.257292      -0.000920
     31 C                    -0.660342       0.001403
     32 H                     0.224550       0.000255
     33 H                     0.259380      -0.000868
     34 C                     0.053957       0.009062
     35 C                    -0.308987       0.014144
     36 C                     0.136474      -0.023384
     37 C                    -0.309493       0.015411
     38 C                     0.042790       0.008167
     39 C                    -0.538484       0.002370
     40 C                    -0.533311       0.002362
     41 H                     0.233659       0.000013
     42 N                    -0.603839       0.464910
     43 H                     0.235257      -0.000174
     44 H                     0.220645       0.000428
     45 C                    -0.660877       0.001570
     46 H                     0.279390      -0.000842
     47 H                     0.274946      -0.000924
     48 H                     0.220984       0.000327
     49 C                    -0.660118       0.002143
     50 C                     0.122488      -0.009313
     51 C                     0.125510      -0.029974
     52 C                    -0.411237       0.026774
     53 C                     0.146243      -0.004668
     54 C                    -0.285407       0.011451
     55 C                    -0.284216       0.031403
     56 C                     0.139684      -0.018277
     57 C                    -0.722005       0.001437
     58 H                     0.231143       0.001424
     59 C                    -0.403247       0.008847
     60 H                     0.206655      -0.001780
     61 C                     0.124760      -0.029129
     62 C                    -0.284307       0.030622
     63 C                     0.140248      -0.017782
     64 C                    -0.406865       0.026042
     65 C                    -0.716520       0.001397
     66 H                     0.223125      -0.001585
     67 H                     0.228265       0.001526
     68 H                     0.225003      -0.001629
     69 C                     0.120682      -0.008825
     70 C                    -0.407205       0.008423
     71 C                     0.142219      -0.004261
     72 C                    -0.284957       0.010873
     73 C                    -0.720362       0.000295
     74 H                     0.205738      -0.000462
     75 C                     0.077305       0.005529
     76 C                     0.078354       0.006177
     77 C                     0.074325       0.027514
     78 C                     0.072836       0.028397
     79 C                    -0.320587      -0.003384
     80 C                    -0.321186      -0.018303
     81 H                     0.216162      -0.001861
     82 H                     0.210969       0.000945
     83 H                     0.204112      -0.000477
     84 C                    -0.722893       0.000337
     85 H                     0.214926      -0.000745
     86 H                     0.215173       0.000109
     87 C                    -0.319343      -0.002869
     88 H                     0.215207       0.000080
     89 H                     0.214607      -0.000711
     90 C                    -0.319554      -0.018851
     91 H                     0.216043      -0.001908
     92 H                     0.210562       0.000976
     93 H                     0.234863      -0.000166
     94 H                     0.221078      -0.000034
     95 H                     0.236769      -0.000163
     96 H                     0.235944      -0.000593
     97 H                     0.238773      -0.000078
     98 H                     0.233448      -0.000590
     99 H                     0.235259      -0.000615
    100 H                     0.231028      -0.000612
    101 H                     0.248816      -0.000079
    102 H                     0.239999      -0.000155
    103 H                     0.224946      -0.000040
    104 H                     0.227235      -0.000152
    105 H                     0.225753       0.000044
    106 H                     0.203400      -0.000025
    107 H                     0.275085      -0.002241
    108 H                     0.211913      -0.000058
    109 H                     0.259629      -0.001482
    110 H                     0.214465      -0.000043
    111 H                     0.269894      -0.001940
    112 H                     0.228161      -0.000029
    113 H                     0.202755       0.000061
    114 H                     0.252960      -0.001072
    115 H                     0.212257      -0.000016
    116 H                     0.216386      -0.000078
    117 C                     0.300290      -0.098679
    118 C                     0.192284       0.223523
    119 C                    -0.237740      -0.036737
    120 C                     0.193546       0.221721
    121 C                    -0.604663       0.019923
    122 C                    -0.606090       0.020008
    123 C                     0.300602      -0.099285
    124 H                     0.248721      -0.000738
    125 H                     0.242197       0.000218
    126 H                     0.241849       0.000237
    127 C                    -0.303954      -0.147387
    128 C                    -0.191166       0.242156
    129 C                    -0.246332      -0.130941
    130 C                    -0.269700       0.185029
    131 H                     0.314684      -0.010076
    132 H                     0.268754      -0.012855
    133 H                     0.274379       0.005965
    134 H                     0.251028       0.007008
    135 C                    -0.304936      -0.146234
    136 C                    -0.266772       0.184348
    137 C                    -0.248216      -0.130590
    138 C                    -0.190309       0.240594
    139 H                     0.311800      -0.010047
    140 H                     0.272197       0.006020
    141 H                     0.251490       0.006958
    142 H                     0.268507      -0.012793
    143 C                     0.309034       0.000118
    144 C                     0.315412       0.000099
    145 C                     0.134989       0.000004
    146 C                    -0.205547      -0.000000
    147 C                     0.136666       0.000007
    148 C                    -0.607765       0.000000
    149 C                    -0.319582       0.000037
    150 C                    -0.246614      -0.000018
    151 C                    -0.243251       0.000011
    152 C                    -0.302826      -0.000007
    153 H                     0.214371       0.000003
    154 H                     0.230144       0.000006
    155 H                     0.218126      -0.000000
    156 H                     0.267786      -0.000026
    157 C                    -0.318332       0.000056
    158 C                    -0.245607      -0.000016
    159 C                    -0.243528       0.000012
    160 C                    -0.302347      -0.000008
    161 H                     0.215041       0.000002
    162 H                     0.260927      -0.000032
    163 H                     0.224624       0.000002
    164 H                     0.218646      -0.000000
    165 H                     0.247469      -0.000735
    166 H                     0.242117       0.000194
    167 H                     0.242131       0.000267
    168 H                     0.236176      -0.000000
    169 H                     0.218537       0.000000
    170 H                     0.218389       0.000000
    171 C                    -0.605817       0.000000
    172 H                     0.235536      -0.000000
    173 H                     0.218100       0.000000
    174 H                     0.218619       0.000000
  --------------------------------------------------------
  Sum of atomic charges =     0.000000
  Sum of spin   charges =     2.000000

 -----------------------------------------------------------------
                    Cartesian Multipole Moments
 -----------------------------------------------------------------
    Charge (ESU x 10^10)
                 0.0000
    Dipole Moment (Debye)
         X       9.9626      Y      31.2873      Z      -8.6277
       Tot      33.9498
    Quadrupole Moments (Debye-Ang)
        XX    -608.0981     XY     -69.4184     YY    -127.9596
        XZ      44.6776     YZ     -41.5332     ZZ    -573.4970
    Octopole Moments (Debye-Ang^2)
       XXX    9461.9378    XXY   -1109.5420    XYY    1864.1201
       YYY     558.4561    XXZ   -1086.7458    XYZ     195.1703
       YYZ   -1188.8752    XZZ    3195.1604    YZZ   -1524.8805
       ZZZ   -2481.6077
    Hexadecapole Moments (Debye-Ang^3)
      XXXX -154022.5468   XXXY   12552.2607   XXYY  -39007.1689
      XYYY   -1031.9144   YYYY  -61894.5710   XXXZ   20745.5158
      XXYZ   -1316.2512   XYYZ    8147.6058   YYYZ   -5461.5836
      XXZZ  -30151.2187   XYZZ    5024.1632   YYZZ  -23984.8194
      XZZZ   20691.4237   YZZZ    -537.4797   ZZZZ  -17210.5202
 -----------------------------------------------------------------
 Calculating analytic gradient of the SCF energy
 -1.908191891997244E-003 -1.908173733799206E-003
 -1.908203529949226E-003 -1.908162101847648E-003
 -1.908179783372834E-003 -1.908185967483197E-003
 -1.908177632252193E-003 -1.908187997539050E-003
 -1.908156284870209E-003 -1.908209341764739E-003
 -1.908187116423571E-003 -1.908178633498375E-003
 -1.908181554700057E-003 -1.908184072436303E-003
 -1.908190400578501E-003 -1.908175222161807E-003
 -1.908184927755625E-003 -1.908180785242545E-003
 -1.908171346689818E-003 -1.908194284229957E-003
 -1.908162493256627E-003 -1.908203135553760E-003
 -1.908194091193840E-003 -1.908171653627312E-003
 -1.908185570770774E-003 -1.908180057181137E-003
 -1.908211379954790E-003 -1.908154248439671E-003
 -1.908187096886194E-003 -1.908178649442846E-003
 -1.908183701234649E-003 -1.908181932962219E-003
 -1.908174647591866E-003 -1.908190971523442E-003
 -1.908184913220318E-003 -1.908180798010143E-003
 -1.908161435997961E-003 -1.908204191158186E-003
 -1.908187196247878E-003 -1.908178413822872E-003
 -1.908191540437160E-003 -1.908174231875680E-003
 -1.908159532800857E-003 -1.908206092650094E-003
 -1.908209979932922E-003 -1.908155647694153E-003
 -1.908192720423080E-003 -1.908173036155989E-003
 -1.908152373370496E-003 -1.908213271181089E-003
 -1.908180085978722E-003 -1.908185526200879E-003
 -1.908195672824724E-003 -1.908170084288657E-003
 -1.908161717534957E-003 -1.908203910894425E-003
 -1.908198899875991E-003 -1.908166719865223E-003
 -1.908191550536192E-003 -1.908174214798693E-003
 -1.908198635668079E-003 -1.908166978605867E-003
 -1.908162805858821E-003 -1.908202813915700E-003
 -1.908178404209332E-003 -1.908187374195013E-003
 -1.908216779468546E-003 -1.908148843415921E-003
 -1.908187307376418E-003 -1.908178315363549E-003
 -1.908169749559874E-003 -1.908196021300969E-003
 -1.908206531514203E-003 -1.908159080108486E-003
 -1.908150126603139E-003 -1.908215509717410E-003
 -1.908175601719805E-003 -1.908190166489517E-003
 -1.908203620233308E-003 -1.908162000067467E-003
 -1.908185146510696E-003 -1.908180457167872E-003
 -1.908176484010319E-003 -1.908189298316906E-003
 -1.908202169028092E-003 -1.908163463720795E-003
 -1.908195353035108E-003 -1.908170262921089E-003
 -1.908173594094077E-003 -1.908192123561367E-003
 -1.908167371084578E-003 -1.908198242681340E-003
 -1.908149913506964E-003 -1.908215718134830E-003
 -1.908169162938644E-003 -1.908196449480340E-003
 -1.908191736382874E-003 -1.908173878781148E-003
 -1.908210911424559E-003 -1.908154720143550E-003
 -1.908156790398802E-003 -1.908208823388787E-003
 -1.908200155393965E-003 -1.908165453860433E-003
 -1.908235457058216E-003 -1.908130176041161E-003
 -1.908159619616325E-003 -1.908205983853445E-003
 -1.908171247373469E-003 -1.908194370351287E-003
 -1.908149920291508E-003 -1.908215729042102E-003
 -1.908166655577758E-003 -1.908198911766774E-003
 -1.908207693218763E-003 -1.908157906517775E-003
 -1.908230138450321E-003 -1.908135473612936E-003
 -1.908192477724093E-003 -1.908173157846391E-003
 -1.908160086614193E-003 -1.908205538993154E-003
 -1.908153187241013E-003 -1.908212445066921E-003
 -1.908180907129843E-003 -1.908184666158480E-003
 -1.908206940004689E-003 -1.908158679828891E-003
 -1.908218562466522E-003 -1.908147062545799E-003
 -1.908206606936620E-003 -1.908159001588063E-003
 -1.908187460285456E-003 -1.908178153613092E-003
 -1.908176075744077E-003 -1.908189564348295E-003
 -1.908153223935874E-003 -1.908212378135845E-003
 -1.908171315229925E-003 -1.908194280368591E-003
 -1.908188232148306E-003 -1.908177417915924E-003
 -1.908198808317973E-003 -1.908166782245865E-003
 -1.908188565610562E-003 -1.908177039751297E-003
 -1.908197317048224E-003 -1.908168322748251E-003
 -1.908178098672064E-003 -1.908187464742122E-003
 -1.908179893926866E-003 -1.908185727363531E-003
 -1.908200934146381E-003 -1.908164706132701E-003
 -1.908183773764327E-003 -1.908181936828243E-003
 -1.908178392609742E-003 -1.908187238974730E-003
 -1.908195182564613E-003 -1.908170451706510E-003
 -1.908191513834272E-003 -1.908174048920378E-003
 -1.908174306643592E-003 -1.908191335764194E-003
 -1.908201653322344E-003 -1.908163966345221E-003
 -1.908178905659859E-003 -1.908186705117424E-003
 -1.908173265485400E-003 -1.908192365979255E-003
 -1.908188308584807E-003 -1.908177333281386E-003
 -1.908173273162889E-003 -1.908192319744037E-003
 -1.908171637320177E-003 -1.908193990103102E-003
 -1.908199397231710E-003 -1.908166241666260E-003
 -1.908179389439927E-003 -1.908186242756572E-003
 -1.908197301521709E-003 -1.908168288709105E-003
 -1.908194536324318E-003 -1.908171133397673E-003
 -1.908184765411182E-003 -1.908180826145260E-003
 -1.908188670906560E-003 -1.908176947710624E-003
 -1.908196980783772E-003 -1.908168670506299E-003
 -1.908191004905617E-003 -1.908174571637383E-003
 -1.908200268464313E-003 -1.908165346946666E-003
 -1.908187977444985E-003 -1.908177662686945E-003
 -1.908189533918140E-003 -1.908176099069690E-003
 -1.908181766165743E-003 -1.908183850592148E-003
 -1.908149363184553E-003 -1.908216270676516E-003
 -1.908219913083848E-003 -1.908145689502717E-003
 -1.908188848873368E-003 -1.908176769425805E-003
 -1.908216980807893E-003 -1.908148661133055E-003
 -1.908170084585505E-003 -1.908195486436317E-003
 -1.908167171325886E-003 -1.908198420876508E-003
 -1.908136261017921E-003 -1.908229357602288E-003
 -1.908207737104960E-003 -1.908157899287071E-003
 -1.908192011431881E-003 -1.908173612235218E-003
 -1.908209679785498E-003 -1.908155948494919E-003
 -1.908154806376021E-003 -1.908210775990333E-003
 -1.908158890652683E-003 -1.908206732333960E-003
 -1.908127706505819E-003 -1.908237921408612E-003
 -1.908178736462384E-003 -1.908186862244827E-003
 -1.908175338677267E-003 -1.908190266522007E-003
 -1.908186542828744E-003 -1.908179113236475E-003
 -1.908198575006566E-003 -1.908166995411669E-003
 -1.908194147824188E-003 -1.908171451611358E-003
 -1.908173024444643E-003 -1.908192613184895E-003
 -1.908154948102326E-003 -1.908210670273249E-003
 -1.908178229696632E-003 -1.908187385935832E-003
 -1.908178371762130E-003 -1.908187279871493E-003
 -1.908194367576422E-003 -1.908171193772857E-003
 -1.908173701947921E-003 -1.908191896087038E-003
 -1.908170072264581E-003 -1.908195595727990E-003
 -1.908189217616828E-003 -1.908176500001306E-003
 -1.908177514143536E-003 -1.908188099674416E-003
 -1.908168138091633E-003 -1.908197474588607E-003
 -1.908182284605760E-003 -1.908183300623463E-003
 -1.908181296928123E-003 -1.908184335771046E-003
 -1.908169665949901E-003 -1.908195977563994E-003
 -1.908194377235085E-003 -1.908171194727193E-003
 -1.908186700724678E-003 -1.908178927428317E-003
 -1.908169008464707E-003 -1.908196640451215E-003
 -1.908187996771666E-003 -1.908177580566663E-003
 -1.908195309257934E-003 -1.908170295890466E-003
 -1.908171225723901E-003 -1.908194424824603E-003
 -1.908193110441322E-003 -1.908172511639781E-003
 -1.908165901384872E-003 -1.908199714644915E-003
 -1.908177662196311E-003 -1.908187987349694E-003
 -1.908182376110189E-003 -1.908183258832463E-003
 -1.908175163118324E-003 -1.908190465007425E-003
 -1.908181886451954E-003 -1.908183749341980E-003
 -1.908174628180337E-003 -1.908190975442984E-003
 -1.908163382071697E-003 -1.908202234034002E-003
 -1.908176245192771E-003 -1.908189399377291E-003
 -1.908180438785458E-003 -1.908185175522279E-003
 -1.908164861847531E-003 -1.908200790013380E-003
 -1.908195794240283E-003 -1.908169810076522E-003
 -1.908189852719041E-003 -1.908175906670314E-003
 -1.908202363975215E-003 -1.908163270425309E-003
 -1.908169997524006E-003 -1.908195603617857E-003
 -1.908173521026289E-003 -1.908192246652954E-003
 -1.908219285516271E-003 -1.908146319456943E-003
 -1.908155272733364E-003 -1.908210348301376E-003
 -1.908179316744918E-003 -1.908186449185478E-003
 -1.908187707408516E-003 -1.908177946483777E-003
 -1.908206794611035E-003 -1.908158818188218E-003
 -1.908175578288914E-003 -1.908190151612583E-003
 -1.908168379248024E-003 -1.908197254485017E-003
 -1.908161583197017E-003 -1.908204056143999E-003
 -1.908183877616427E-003 -1.908181852861572E-003
 -1.908196745134068E-003 -1.908168873769489E-003
 -1.908196614505635E-003 -1.908169018444758E-003
 -1.908172642757494E-003 -1.908193100634719E-003
 -1.908182258546097E-003 -1.908183381743767E-003
 -1.908161424527616E-003 -1.908204193538044E-003
 -1.908189227660043E-003 -1.908176507220049E-003
 -1.908169845893862E-003 -1.908195832100654E-003
 -1.908163951178607E-003 -1.908201649031744E-003
 -1.908188658367744E-003 -1.908176936247875E-003
 -1.908162807706299E-003 -1.908202827760563E-003
 -1.908171878230565E-003 -1.908193739119738E-003
 -1.908192764715544E-003 -1.908172946401327E-003
 -1.908147241220592E-003 -1.908218387415543E-003
 -1.908205171019799E-003 -1.908160447810127E-003
 -1.908194875105493E-003 -1.908170881172623E-003
 -1.908174200412368E-003 -1.908191433078115E-003
 -1.908205832751814E-003 -1.908159781164990E-003
 -1.908188338980177E-003 -1.908177376412152E-003
 -1.908161055347792E-003 -1.908204581334802E-003
 -1.908187939173662E-003 -1.908177680141715E-003
 -1.908191015713972E-003 -1.908174740277566E-003
 -1.908187320071261E-003 -1.908178363951189E-003
 -1.908207563018893E-003 -1.908158018724988E-003
 -1.908177794386713E-003 -1.908187943401960E-003
 -1.908168846992766E-003 -1.908196805855095E-003
 -1.908159456573549E-003 -1.908206167136307E-003
 -1.908182333345073E-003 -1.908183394864910E-003
 -1.908145440111389E-003 -1.908220208415447E-003
 -1.908191503406476E-003 -1.908174096793170E-003
 -1.908194963935247E-003 -1.908170793627200E-003
 -1.908187557205285E-003 -1.908178069431901E-003
 -1.908167342209855E-003 -1.908198305931182E-003
 -1.908168572773841E-003 -1.908197025592099E-003
 -1.908161956030717E-003 -1.908203676570552E-003
 -1.908179921082023E-003 -1.908185674246289E-003
 -1.908194679501710E-003 -1.908171012404988E-003
 -1.908189912849150E-003 -1.908175723351786E-003
 -1.908159520566306E-003 -1.908206088381002E-003
 -1.908180065851559E-003 -1.908185654098558E-003
 -1.908199181461991E-003 -1.908166419189704E-003
 -1.908169290367870E-003 -1.908196320051398E-003
 -1.908192267053925E-003 -1.908173426029876E-003
 -1.908203744620227E-003 -1.908161875473695E-003
 -1.908173430693094E-003 -1.908192187690891E-003
 -1.908171835693723E-003 -1.908193934940708E-003
 -1.908225348234858E-003 -1.908140272290812E-003
 -1.908178128695904E-003 -1.908187474689912E-003
 -1.908171710770983E-003 -1.908194060918016E-003
 -1.908192696513979E-003 -1.908172936354730E-003
 -1.908201753401005E-003 -1.908163869462177E-003
 -1.908179747204392E-003 -1.908185988364537E-003
 -1.908183542394757E-003 -1.908182121467260E-003
 -1.908160310522861E-003 -1.908205272199675E-003
 -1.908178782930326E-003 -1.908186967120019E-003
 -1.908178689115474E-003 -1.908186944111958E-003
 -1.908203056557911E-003 -1.908162585411754E-003
 -1.908180170810609E-003 -1.908185430425481E-003
 -1.908204456898680E-003 -1.908161156195668E-003
 -1.908184069713538E-003 -1.908181526566195E-003
 -1.908185595249047E-003 -1.908180105085355E-003
 -1.908191328289857E-003 -1.908174320254498E-003
 -1.908168299639756E-003 -1.908197297576968E-003
 -1.908172956114542E-003 -1.908192811738375E-003
 -1.908168096357523E-003 -1.908197541255580E-003
 -1.908169663657159E-003 -1.908195957211922E-003
 -1.908184498856582E-003 -1.908181246745057E-003
 -1.908180499184409E-003 -1.908185163836359E-003
 -1.908201811955060E-003 -1.908163778636941E-003
 -1.908180263441407E-003 -1.908185485226071E-003
 -1.908196842998347E-003 -1.908168776624973E-003
 -1.908182656335146E-003 -1.908182971991141E-003
 -1.908169969358623E-003 -1.908195793162607E-003
 -1.908197404533888E-003 -1.908168252043343E-003
 -1.908203191772237E-003 -1.908162382412552E-003
 -1.908173582585265E-003 -1.908192162947487E-003
 -1.908180643538685E-003 -1.908184976595421E-003
 -1.908154594741946E-003 -1.908211017671891E-003
 -1.908179816762686E-003 -1.908185921198176E-003
 -1.908189877463499E-003 -1.908175777025326E-003
 -1.908166171520341E-003 -1.908199420477659E-003
 -1.908176719686036E-003 -1.908188956826896E-003
 -1.908198354784426E-003 -1.908167249611865E-003
 -1.908190090836773E-003 -1.908175539158912E-003
 -1.908173987777467E-003 -1.908191683586275E-003
 -1.908170032245225E-003 -1.908195585994683E-003
 -1.908199228506680E-003 -1.908166373252222E-003
 -1.908195252998550E-003 -1.908170440737981E-003
 -1.908195667719044E-003 -1.908170007112322E-003
 -1.908186906292299E-003 -1.908178684702547E-003
 -1.908165672750529E-003 -1.908199943020229E-003
 -1.908199433242775E-003 -1.908166179703502E-003
 -1.908188175341421E-003 -1.908177460831490E-003
 -1.908172841310053E-003 -1.908192828533722E-003
 -1.908190032877633E-003 -1.908175613177380E-003
 -1.908164476689773E-003 -1.908201107721925E-003
 -1.908176950991235E-003 -1.908188728950041E-003
 -1.908179981029040E-003 -1.908185621518251E-003
 -1.908207414347326E-003 -1.908158204159022E-003
 -1.908173474903588E-003 -1.908192290622627E-003
 -1.908164443075687E-003 -1.908201156945732E-003
 -1.908175666891453E-003 -1.908189961276456E-003
 -1.908181145889005E-003 -1.908184544197600E-003
 -1.908171798495651E-003 -1.908193840348922E-003
 -1.908199779034123E-003 -1.908165817831950E-003
 -1.908178592599882E-003 -1.908187091289430E-003
 -1.908167351875322E-003 -1.908198286034143E-003
 -1.908160413764916E-003 -1.908205173610817E-003
 -1.908180333578097E-003 -1.908185432559459E-003
 -1.908164433320916E-003 -1.908201169024358E-003
 -1.908174389048933E-003 -1.908191245853278E-003
 -1.908181614541947E-003 -1.908184068634460E-003
 -1.908171300865092E-003 -1.908194337426894E-003
 -1.908198764825600E-003 -1.908166835666009E-003
 -1.908176467903281E-003 -1.908189223363234E-003
 -1.908167581660609E-003 -1.908198071116986E-003
 -1.908185260325327E-003 -1.908180347458990E-003
 -1.908206739833210E-003 -1.908158860603394E-003
 -1.908175392005789E-003 -1.908190265949341E-003
 -1.908192801475268E-003 -1.908172806284300E-003
 -1.908185079948738E-003 -1.908180588451835E-003
 -1.908152456421931E-003 -1.908213178130969E-003
 -1.908181559590903E-003 -1.908184043556145E-003
 -1.908172259146969E-003 -1.908193337041592E-003
 -1.908158285773191E-003 -1.908207319596491E-003
 -1.908200844996270E-003 -1.908164794288481E-003
 -1.908173635105564E-003 -1.908191960534863E-003
 -1.908169736087360E-003 -1.908195904365947E-003
 -1.908180967383851E-003 -1.908184660028344E-003
 -1.908184657734054E-003 -1.908181002027255E-003
 -1.908171884014072E-003 -1.908193739012389E-003
 -1.908197271974486E-003 -1.908168370430207E-003
 -1.908204552852701E-003 -1.908161038032259E-003
 -1.908214261050671E-003 -1.908151390248518E-003
 -1.908174346160318E-003 -1.908191266405271E-003
 -1.908190034799820E-003 -1.908175556527621E-003
 -1.908200076813813E-003 -1.908165562919785E-003
 -1.908184319186049E-003 -1.908181285918888E-003
 -1.908168121083014E-003 -1.908197472329897E-003
 -1.908202163650143E-003 -1.908163480659597E-003
 -1.908164200535898E-003 -1.908201414125026E-003
 -1.908199853140294E-003 -1.908165798871014E-003
 -1.908210932080609E-003 -1.908154692963255E-003
 -1.908172301961736E-003 -1.908193338346747E-003
 -1.908194267158907E-003 -1.908171325627192E-003
 -1.908207133802150E-003 -1.908158502444002E-003
 -1.908189346369966E-003 -1.908176274218137E-003
 -1.908196142869709E-003 -1.908169516141198E-003
 -1.908192967985572E-003 -1.908172642988481E-003
 -1.908164663633096E-003 -1.908200973127763E-003
 -1.908169927892015E-003 -1.908195665313211E-003
 -1.908191415644901E-003 -1.908174196102627E-003
 -1.908188528483035E-003 -1.908177108230258E-003
 -1.908216426617446E-003 -1.908149171770338E-003
 -1.908170126848593E-003 -1.908195482681710E-003
 -1.908179193734193E-003 -1.908186436197755E-003
 -1.908206951275531E-003 -1.908158671350789E-003
 -1.908174386571440E-003 -1.908191244091975E-003
 -1.908195594472592E-003 -1.908170039205071E-003
 -1.908210234001260E-003 -1.908155347226337E-003
 -1.908188401775213E-003 -1.908177209227915E-003
 -1.908182259162479E-003 -1.908183361425715E-003
 -1.908219363680292E-003 -1.908146253953888E-003
 -1.908170606263074E-003 -1.908195010065781E-003
 -1.908186975509782E-003 -1.908178659948785E-003
 -1.908211100927596E-003 -1.908154486050797E-003
 -1.908176548452720E-003 -1.908189058372293E-003
 -1.908200012171946E-003 -1.908165626194879E-003
 -1.908202665632684E-003 -1.908162957063485E-003
 -1.908187020050136E-003 -1.908178607239344E-003
 -1.908165344227004E-003 -1.908200281785101E-003
 -1.908163392591981E-003 -1.908202222300261E-003
 -1.908169085375466E-003 -1.908196526504707E-003
 -1.908170897313199E-003 -1.908194715471354E-003
 -1.908151862813028E-003 -1.908213780476507E-003
 -1.908189916736295E-003 -1.908175697238811E-003
 -1.908173689975358E-003 -1.908191947588402E-003
 -1.908161440217670E-003 -1.908204180181278E-003
 -1.908193861383448E-003 -1.908171757679338E-003
 -1.908185973016143E-003 -1.908179670348453E-003
 -1.908161480057748E-003 -1.908204124456578E-003
 -1.908190203576996E-003 -1.908175420240136E-003
 -1.908179146420231E-003 -1.908186475681822E-003
 -1.908160402118762E-003 -1.908205224089728E-003
 -1.908174755003989E-003 -1.908190865452499E-003
 -1.908192869878940E-003 -1.908172742247759E-003
 -1.908148953625088E-003 -1.908216680934629E-003
 -1.908152698598728E-003 -1.908212925020866E-003
 -1.908141489767411E-003 -1.908224155990754E-003
 -1.908195461531464E-003 -1.908170261923694E-003
 -1.908184652098368E-003 -1.908180947343908E-003
 -1.908213468854143E-003 -1.908152198856356E-003
 -1.908176783210146E-003 -1.908188926917433E-003
 -1.908188225945483E-003 -1.908177379936324E-003
 -1.908200008006557E-003 -1.908165656132512E-003
 -1.908178908546203E-003 -1.908186720563249E-003
 -1.908192024682736E-003 -1.908173580943741E-003
 -1.908211969909521E-003 -1.908153692092461E-003
 -1.908171681929655E-003 -1.908194031706714E-003
 -1.908174339334407E-003 -1.908191228171547E-003
 -1.908181548884446E-003 -1.908184107187600E-003
 -1.908203824048653E-003 -1.908161812314431E-003
 -1.908182880835109E-003 -1.908182685315807E-003
 -1.908168512969540E-003 -1.908197177341938E-003
 -1.908165110171254E-003 -1.908200494422902E-003
 -1.908187948488127E-003 -1.908177688525101E-003
 -1.908135349220339E-003 -1.908230289911757E-003
 -1.908197664535699E-003 -1.908168066705185E-003
 -1.908180592734793E-003 -1.908185017502540E-003
 -1.908173362790208E-003 -1.908192275577012E-003
 -1.908173161449979E-003 -1.908192394802526E-003
 -1.908182761162183E-003 -1.908182842567274E-003
 -1.908164111998845E-003 -1.908201526346448E-003
 -1.908187591014974E-003 -1.908178028345594E-003
 -1.908173783808462E-003 -1.908191807667611E-003
 -1.908166275193126E-003 -1.908199373091496E-003
 -1.908185576968506E-003 -1.908180044276022E-003
 -1.908168097816931E-003 -1.908197523607879E-003
 -1.908159860872280E-003 -1.908205751517032E-003
 -1.908191894081574E-003 -1.908173812077795E-003
 -1.908211675036656E-003 -1.908153918404833E-003
 -1.908198032455141E-003 -1.908167634182035E-003
 -1.908175637396866E-003 -1.908190070480369E-003
 -1.908160383134261E-003 -1.908205234015575E-003
 -1.908142187261721E-003 -1.908223452108998E-003
 -1.908179208839200E-003 -1.908186496093742E-003
 -1.908198321799221E-003 -1.908167274086270E-003
 -1.908168508091191E-003 -1.908197132645725E-003
 -1.908176618588983E-003 -1.908189102628435E-003
 -1.908175823719148E-003 -1.908189804998024E-003
 -1.908153112336443E-003 -1.908212515615328E-003
 -1.908181122442331E-003 -1.908184563893461E-003
 -1.908177738145440E-003 -1.908187861796601E-003
 -1.908179398786437E-003 -1.908186261427730E-003
 -1.908184156259929E-003 -1.908181502909212E-003
 -1.908189692319777E-003 -1.908175942301565E-003
 -1.908166302772002E-003 -1.908199315934875E-003
 -1.908169945853501E-003 -1.908195692508072E-003
 -1.908195407676810E-003 -1.908170241986316E-003
 -1.908202539099695E-003 -1.908163057237575E-003
 -1.908180514947656E-003 -1.908185158726102E-003
 -1.908185750514941E-003 -1.908179866842880E-003
 -1.908157289192572E-003 -1.908208330632397E-003
 -1.908189000858737E-003 -1.908176707524867E-003
 -1.908156643332992E-003 -1.908208957533291E-003
 -1.908181559860636E-003 -1.908184070521391E-003
 -1.908187153095518E-003 -1.908178579723731E-003
 -1.908188479287331E-003 -1.908177137673732E-003
 -1.908151197097829E-003 -1.908214426889447E-003
 -1.908201013353955E-003 -1.908164707117353E-003
 -1.908163667911635E-003 -1.908201930298034E-003
 -1.908210781162923E-003 -1.908154878437445E-003
 -1.908174823402494E-003 -1.908190893413639E-003
 -1.908175522884847E-003 -1.908190110478889E-003
 -1.908162214867967E-003 -1.908203402385773E-003
 -1.908197160717569E-003 -1.908168530939401E-003
 -1.908168826452088E-003 -1.908196792993530E-003
 -1.908186071620978E-003 -1.908179556447601E-003
 -1.908196855227262E-003 -1.908168795395722E-003
 -1.908180723930648E-003 -1.908184927041730E-003
 -1.908204894102263E-003 -1.908160703239625E-003
[...]
     0.024205    0.024245    0.024272    0.024303    0.024319    0.024401
     0.024411    0.024440    0.024471    0.024483    0.024488    0.024498
     0.024506    0.024543    0.024561    0.024565    0.024598    0.024604
     0.024614    0.024731    0.024754    0.024766    0.024832    0.024988
     0.026292    0.028259    0.032580    0.032873    0.036439    0.041667
     0.042594    0.044083    0.045148    0.052094    0.053918    0.054229
     0.054371    0.054874    0.055101    0.055135    0.055170    0.055205
     0.055299    0.055370    0.055398    0.055537    0.055551    0.055570
     0.055626    0.055681    0.055766    0.055836    0.055918    0.056642
     0.056659    0.056702    0.057087    0.060005    0.064705    0.071408
     0.071957    0.072082    0.072168    0.072641    0.072669    0.072775
     0.072977    0.078742    0.079935    0.094801    0.095537    0.095942
     0.097002    0.100303    0.129432    0.130030    0.130278    0.131824
     0.132550    0.133635    0.154201    0.157532    0.157678    0.158832
     0.159086    0.159640    0.159701    0.159749    0.159792    0.159833
     0.159852    0.159896    0.159933    0.159940    0.159968    0.159976
     0.159980    0.159987    0.159989    0.159990    0.159992    0.159993
     0.159995    0.159997    0.159997    0.159997    0.159997    0.159998
     0.159998    0.159998    0.159998    0.159998    0.159998    0.159999
     0.159999    0.159999    0.159999    0.159999    0.160000    0.160000
     0.160000    0.160000    0.160000    0.160000    0.160000    0.160000
     0.160000    0.160000    0.160016    0.160021    0.160078    0.160218
     0.160297    0.160359    0.160477    0.160567    0.160675    0.160782
     0.160918    0.161261    0.162074    0.162452    0.163368    0.173915
     0.177273    0.180098    0.213696    0.218053    0.219680    0.220016
     0.220069    0.220167    0.220762    0.223336    0.224184    0.224313
     0.224370    0.224830    0.225116    0.226008    0.226443    0.227140
     0.230575    0.231490    0.234079    0.234471    0.234517    0.234844
     0.234992    0.235223    0.235242    0.236538    0.237020    0.239735
     0.240374    0.243219    0.244469    0.244781    0.245674    0.246130
     0.246244    0.246503    0.246801    0.247952    0.248045    0.248480
     0.249011    0.249278    0.249335    0.249551    0.249659    0.249694
     0.249785    0.249844    0.249894    0.249913    0.249927    0.249940
     0.249962    0.250000    0.250016    0.250254    0.250787    0.251495
     0.252331    0.253805    0.254946    0.259527    0.260089    0.268911
     0.272827    0.276897    0.286853    0.287235    0.287318    0.288341
     0.290353    0.290946    0.293377    0.295707    0.297048    0.297596
     0.297890    0.298019    0.298301    0.300874    0.307939    0.308403
     0.312334    0.315350    0.316088    0.317112    0.319726    0.325478
     0.325585    0.326461    0.327300    0.336673    0.341404    0.344381
     0.345254    0.345747    0.346033    0.346195    0.346238    0.346499
     0.346816    0.347316    0.347482    0.347667    0.347733    0.347801
     0.347822    0.347877    0.347967    0.348023    0.348120    0.348275
     0.348285    0.348393    0.348404    0.348494    0.348542    0.348565
     0.348614    0.348640    0.348663    0.348716    0.348826    0.348906
     0.348920    0.349390    0.349505    0.349629    0.349679    0.349763
     0.349792    0.349908    0.350058    0.350276    0.350588    0.350645
     0.351246    0.351638    0.354634    0.354754    0.354978    0.355071
     0.355151    0.355530    0.355682    0.355698    0.355799    0.355837
     0.355901    0.355918    0.356009    0.356384    0.356846    0.356993
     0.357126    0.357281    0.357551    0.357776    0.357989    0.358016
     0.358119    0.358336    0.358355    0.358381    0.358395    0.358469
     0.358558    0.358850    0.358965    0.359114    0.359134    0.359308
     0.359439    0.359546    0.360961    0.365637    0.370559    0.372164
     0.375349    0.381385    0.382720    0.383347    0.390625    0.398167
     0.404988    0.406677    0.411943    0.412368    0.414745    0.418688
     0.420334    0.421709    0.422790    0.423006    0.423117    0.424120
     0.424534    0.425585    0.426306    0.427303    0.428041    0.428233
     0.435459    0.437106    0.438053    0.446039    0.448548    0.450134
     0.450181    0.451013    0.451420    0.455058    0.456039    0.457485
     0.457879    0.458177    0.458386    0.459142    0.460192    0.462021
     0.462677    0.462906    0.467093    0.468440    0.472122    0.473447
     0.473619    0.473913    0.474127    0.474310    0.474517    0.474899
     0.475155    0.475622    0.477256    0.479543    0.480158    0.480634
     0.480873    0.481371    0.482321    0.482452    0.482924    0.483439
     0.486033    0.486809    0.487617    0.487864    0.488280    0.491363
     0.491949    0.492326    0.492448    0.502510    0.528187    0.554776
     0.630571    1.282199    3.344018

 Minimum Search - Taking Simple RFO Step
 Searching for Lamda that Minimizes Along All modes
 Value Taken    Lamda =  -0.00081570
 Step Taken.  Stepsize is  0.167494

                             Maximum     Tolerance    Cnvgd?
         Gradient           0.008268      0.000075      NO
         Displacement       0.054047      0.001200      NO
         Energy change     -0.000812      0.000000      NO


 New Cartesian Coordinates Obtained by Inverse Iteration

 Displacement from previous Coordinates is:  4.213934
 Adding empirical dispersion correction 
 ----------------------------------------------------------------
 Doing -D3(BJ) with
 s6 =   1.00000
 s8 =   0.00000
 a1 =   0.48600
 a2 =   4.50000
 -D3 energy including 3body term =     -0.1771935408 hartrees
 ----------------------------------------------------------------
 Adding gCP correction 
 ----------------------------------------------------------------
 gCP energy =      0.2391173065 hartrees
 ----------------------------------------------------------------
             Standard Nuclear Orientation (Angstroms)
    I     Atom           X                Y                Z
 ----------------------------------------------------------------
    1      C      -5.4429170556     3.9883070217     2.3183112448
    2      C      -6.1243444948     2.7413208454     2.4682137570
    3      B      -5.3861636425     1.4138884503     2.2602142619
    4      C      -3.8817903667     1.4556983643     1.9578907936
    5      C      -3.1868195299     2.6952338861     1.8050145127
    6      B      -3.9569443992     4.0103561885     1.9116688146
    7      C      -1.8217184528     2.6405771633     1.4981222508
    8      C      -1.1188829893     1.4537693368     1.3100030109
    9      C      -1.8333106101     0.2294578518     1.3920623311
   10      C      -3.1780717343     0.2760214094     1.7382280555
   11      C      -6.2101694737     5.1515476769     2.4489003563
   12      C      -7.5728832395     5.1621449017     2.7139638954
   13      C      -8.2486256842     3.9205749455     2.8340997670
   14      C      -7.4964241222     2.7586277774     2.7135992508
   15      H      -5.7104174075     6.0999302154     2.3111467597
   16      C      -6.1953277924     0.0508960813     2.2353840564
   17      C      -3.4495480522     5.4184607993     1.3859835852
   18      C      -6.5884427986    -0.4909866104     1.0001252936
   19      C      -7.3192545434    -1.6721785970     0.9537407565
   20      C      -7.6967143386    -2.3128727176     2.1190924122
   21      C      -7.3308137709    -1.7840320487     3.3444558142
   22      C      -6.5731449875    -0.6187056814     3.4101189274
   23      C      -6.1227923802    -0.1289494102     4.7601020522
   24      C      -6.3080700428     0.2096182039    -0.3051701844
   25      H      -7.6142712135    -2.0945866051    -0.0013464401
   26      N      -8.4576305171    -3.5146823048     2.0505470315
   27      H      -7.6303237270    -2.2955430697     4.2530248568
   28      C      -4.7772967554    -0.7336045312     5.1562406846
   29      H      -6.8720536198    -0.3868048694     5.5133856579
   30      H      -6.0467372226     0.9606475396     4.7616170715
   31      C      -7.4772678370     1.0972058010    -0.7285321041
   32      H      -6.1200151105    -0.5350499597    -1.0835685627
   33      H      -5.4010011266     0.8122213001    -0.2344794488
   34      C      -3.2858607309     6.5109688040     2.2590594527
   35      C      -3.3364915253     7.8127273885     1.7742322530
   36      C      -3.5119354908     8.0150911830     0.4161362264
   37      C      -3.5223811110     6.9610773808    -0.4766119375
   38      C      -3.4800463224     5.6560166648    -0.0007330549
   39      C      -3.6059017106     4.5414316089    -1.0112292624
   40      C      -3.1233683268     6.2764458589     3.7364472398
   41      H      -3.3087263678     8.6567095304     2.4542865055
   42      N      -3.8358597006     9.3235706724    -0.0713487407
   43      H      -3.6365163992     7.1518248849    -1.5384746424
   44      H      -3.1324456196     4.8601934562    -1.9439605191
   45      C      -5.0550982203     4.1478832272    -1.2963134498
   46      H      -3.0579018617     3.6628229743    -0.6735956839
   47      H      -3.9054673148     5.6001187529     4.0884802046
   48      H      -3.2610109231     7.2164173036     4.2773230617
   49      C      -1.7595691768     5.6825976476     4.0801642887
   50      C       0.3130586642     1.4233750194     1.0283874792
   51      C      -9.6919416446     3.8900174130     3.0281816876
   52      C     -10.3841548786     2.6785245008     3.1942405720
   53      C       2.4350106520     2.6060054036     0.7690969252
   54      C       3.0628067848     1.3800799115     0.5302082570
   55      C     -12.4714839827     3.8129845563     3.3252545812
   56      C     -11.7523087030     2.6137252802     3.3457948943
   57      C     -12.4569481060     1.3028242200     3.5334557987
   58      H      -3.7329650554    -0.6477687190     1.8338796691
   59      C       1.0791008348     2.5992070286     1.0149977654
   60      H      -1.3058719016     3.5862788247     1.3837085040
   61      C      -1.1733914939    -1.0314820087     1.0841230444
   62      C       0.0695853953    -3.4522227744     0.4447158815
   63      C      -1.2984699401    -3.4473749839     0.7354857461
   64      C      -1.8870204854    -2.2415212141     1.0470547027
   65      C      -2.0954483117    -4.7179784410     0.7052609870
   66      H      -2.9488538366    -2.2450173014     1.2523568543
   67      H      -7.9916039782     1.7986399327     2.7808354578
   68      H      -9.8357754922     1.7464090795     3.2116716142
   69      C      -8.3281282009     6.4046127075     2.8180092994
   70      C      -7.6870638280     7.6528961329     2.8079743328
   71      C      -8.3730232348     8.8481423831     2.8315444437
   72      C      -9.7688518582     8.7989183208     2.8743754323
   73      C      -7.6481880555    10.1609642984     2.8230206845
   74      H      -6.6057538897     7.6938062526     2.7886619395
   75      C      -9.7311410589     6.3686841419     2.9168010990
   76      C       0.9569552035     0.1967951621     0.7840356196
   77      C       0.1971250666    -1.0495049420     0.7793707968
   78      C     -10.4262231205     5.0889211937     3.0298769404
   79      C       2.3383504710     0.2127257518     0.5412740867
   80      C       0.7898034207    -2.2821936069     0.4648570672
   81      H       0.5648935608    -4.3821085352     0.1906818485
   82      H       1.8403620093    -2.3351152916     0.2166269619
   83      H       0.5978306756     3.5470538973     1.2151488944
   84      C       3.2240560579     3.8812114524     0.7741114521
   85      H       4.1290592965     1.3456280423     0.3393858414
   86      H       2.8679916630    -0.7120852587     0.3614281832
   87      C     -10.4219978560     7.5892890041     2.9267483116
   88      H     -11.5015239961     7.6010373734     2.9808181570
   89      H     -10.3446575221     9.7171061650     2.8845208754
   90      C     -11.8200242737     5.0132155161     3.1744351544
   91      H     -13.5494476139     3.7987611032     3.4372586300
   92      H     -12.4192924172     5.9129321492     3.1779449316
   93      H       3.9447514804     3.8982735813     1.5939471805
   94      H       2.5772780026     4.7507669328     0.8868773716
   95      H       3.7881014700     4.0041049237    -0.1519180392
   96      H      -1.9549381512    -5.2565234950    -0.2332440932
   97      H      -3.1624067514    -4.5251361967     0.8155331679
   98      H      -1.7963573641    -5.3926454654     1.5103523348
   99      H     -12.9667632162     1.2618683455     4.4977164169
  100      H     -13.2155511144     1.1457441110     2.7642540044
  101      H     -11.7647216708     0.4624306421     3.4933374994
  102      H      -7.7467745183    10.6746405614     3.7813419582
  103      H      -6.5836576213    10.0258012798     2.6306474582
  104      H      -8.0411116933    10.8308568164     2.0561927779
  105      H      -5.0923108099     3.3665465489    -2.0565198180
  106      H      -5.6372375855     4.9963726354    -1.6609143833
  107      H      -5.5485296847     3.7635485951    -0.4045164225
  108      H      -7.2747162333     1.5854412819    -1.6831863018
  109      H      -7.6628833883     1.8753325142     0.0118996113
  110      H      -8.3942639792     0.5158426223    -0.8372688379
  111      H      -1.6283028525     4.7055226090     3.6149187458
  112      H      -1.6588342061     5.5470649825     5.1571470062
  113      H      -0.9477002020     6.3296441246     3.7448990632
  114      H      -4.0011508878    -0.4603026712     4.4412286455
  115      H      -4.8312587970    -1.8229989579     5.1887379170
  116      H      -4.4615287558    -0.3834047575     6.1398249776
  117      C      -5.1563985137     9.5782019311    -0.3711456024
  118      C      -5.5350968424    10.8428372826    -0.8624892369
  119      C      -4.5517581930    11.9755894272    -1.0261852211
  120      C      -3.1469935051    11.5585337262    -0.6626426180
  121      C      -4.9871916559    13.1295980944    -0.1012126751
  122      C      -4.5640483653    12.4420464476    -2.4953348965
  123      C      -2.8391460106    10.2591013198    -0.2224592858
  124      H      -4.2543435244    11.6404892401    -3.1653719545
  125      H      -3.8935719904    13.2877850676    -2.6424476905
  126      H      -5.5611625089    12.7645902048    -2.7912766015
  127      C      -6.8734275064    11.0369870033    -1.1718229283
  128      C      -7.8188494929    10.0376005282    -1.0006021461
  129      C      -7.4404392928     8.8007073407    -0.4863977947
  130      C      -6.1260314735     8.5698008242    -0.1675077495
  131      H      -5.8538127346     7.6105988176     0.2453201283
  132      H      -8.8531926844    10.2271049465    -1.2537387235
  133      H      -8.1727241504     8.0245893178    -0.3131680106
  134      H      -7.1989077359    11.9952967936    -1.5540650302
  135      C      -2.0999283484    12.4610875766    -0.7734076942
  136      C      -1.5109071069     9.8826439929     0.0527632276
  137      C      -0.5004465207    10.8031125277    -0.0726636187
  138      C      -0.7945760976    12.1024912441    -0.4794972694
  139      H      -1.2869031862     8.8691842959     0.3515426094
  140      H       0.5185799332    10.5116110245     0.1389831891
  141      H      -2.2997694366    13.4717683273    -1.1039974219
  142      H      -0.0033769828    12.8329260630    -0.5783491311
  143      C      -9.8326707440    -3.4379046921     1.8728159383
  144      C      -7.7964049188    -4.7356304958     2.0969632033
  145      C      -8.5072383913    -5.9397449706     2.0297401246
  146      C     -10.0205431065    -5.9938171413     1.8996376918
  147      C     -10.6119258890    -4.5983165937     1.7942341756
  148      C     -10.3904292322    -6.7939116340     0.6383220581
  149      C     -10.4605106357    -2.1879171369     1.7728330765
  150      C     -11.8263701345    -2.0897215271     1.5909721379
  151      C     -12.6070981325    -3.2322194726     1.5158429921
  152      C     -11.9862777864    -4.4631514744     1.6213624084
  153      H     -12.5969241555    -5.3564323811     1.5682875870
  154      H     -12.2782553239    -1.1095421964     1.5085876486
  155      H     -13.6781246654    -3.1681195140     1.3778669162
  156      H      -9.8740859855    -1.2822790086     1.8316427374
  157      C      -6.4003014364    -4.7730185621     2.2141446569
  158      C      -5.7238511922    -5.9758350030     2.2754297407
  159      C      -6.4183931933    -7.1736796215     2.2180356318
  160      C      -7.7950396017    -7.1333789183     2.0941867265
  161      H      -8.3386318227    -8.0694237257     2.0497376925
  162      H      -5.8375245865    -3.8518831329     2.2636537449
  163      H      -4.6456597376    -5.9706443072     2.3718655489
  164      H      -5.9001424310    -8.1218146081     2.2684290308
  165      H      -4.9889396465    12.8174403690     0.9429608069
  166      H      -5.9906115271    13.4692863938    -0.3546091416
  167      H      -4.3172480009    13.9825777138    -0.2013102189
  168      H      -9.9901951916    -6.3166763065    -0.2560131822
  169      H     -11.4715271577    -6.8751101784     0.5206069920
  170      H      -9.9969884248    -7.8098526219     0.6828255519
  171      C     -10.6084714533    -6.6933639235     3.1380534302
  172      H     -10.3631147289    -6.1451177665     4.0475801696
  173      H     -10.2204825321    -7.7077164356     3.2421357417
  174      H     -11.6950919585    -6.7645618909     3.0711194186
 ----------------------------------------------------------------
 Nuclear Repulsion Energy = 16538.7166803386 hartrees
 There are      323 alpha and      321 beta electrons
 Discretize the solute cavity surface with Lebedev spheres
	Using 194 Lebedev grid points for each H atom
	Using 194 Lebedev grid points for other atoms
	Atomic van der Waals radii will be scaled by 1.20
 Remove points where switching function is < 1.0e-08
 Keep 12376 surface tesserae and discard 21380 interior tesserae
 Molecular Surface Area = 1227.861 Angst**2
 Nucleus-field energy     =     0.0000002516 hartrees
 Requested basis set is def2-mSVP
 There are 818 shells and 1570 basis functions
 A cutoff of  1.0D-11 yielded  85043 shell pairs
 There are    325885 function pairs (    357646 Cartesian)
 Smallest overlap matrix eigenvalue = 1.18E-04
 Guess MOs from SCF MO coefficient file
 Reading MOs from coefficient file
 Reading MOs from coefficient file
 An unrestricted hybrid HF-DFT SCF calculation will be
 performed using Pulay DIIS extrapolation
 Polarizable Continuum solvation model will be applied
 Exchange:     0.4200 Hartree-Fock + 0.5800 PBEh-3c
 Correlation:  1.0000 PBEh-3c
 Using SG-1 standard quadrature grid
 Dispersion:   Grimme D3
 SCF converges when DIIS error is below 1.0E-08
 Geometry optimization detected.  Setting ReadMinima to 0
 Setting SaveMinima to 0
 using 8 threads for integral computing
 -------------------------------------------------------
 OpenMP Integral computing Module                
 Release: version 1.0, May 2013, Q-Chem Inc. Pittsburgh 
 -------------------------------------------------------
 ---------------------------------------
  Cycle       Energy         DIIS Error
 ---------------------------------------
    1   -3629.0736379849      5.67E-04
 Using non-symmetric K matrix
    2   -3629.0708355303      4.42E-04
    3   -3629.0560041967      5.81E-04
    4   -3629.1587854189      2.07E-04
    5   -3629.1680118221      1.51E-04
    6   -3629.1754280186      7.69E-05
    7   -3629.1772419592      4.42E-05
    8   -3629.1781462911      1.45E-05
    9   -3629.1782722143      6.14E-06
   10   -3629.1783081487      2.81E-06
   11   -3629.1783226751      9.92E-07
   12   -3629.1783281556      3.81E-07
   13   -3629.1783305799      2.32E-07
