mFile = /cm/shared/apps/q-chem/intel/QCHEM_5.1.0_Trunk/bin/mpi/machines
Process 0 of 1 is on ctcp007 - thread support 0
initial socket setup ...start
initial socket setup ...done 
now start server 0 ... 
Q-Chem Developer Version!
                  Welcome to Q-Chem
     A Quantum Leap Into The Future Of Chemistry


 Q-Chem 5.1, Q-Chem, Inc., Pleasanton, CA (2018)

 Yihan Shao,  Zhengting Gan,  E. Epifanovsky,  A. T. B. Gilbert,  M. Wormit,  
 J. Kussmann,  A. W. Lange,  A. Behn,  Jia Deng,  Xintian Feng,  D. Ghosh,  
 M. Goldey,  P. R. Horn,  L. D. Jacobson,  I. Kaliman,  T. Kus,  A. Landau,  
 Jie Liu,  E. I. Proynov,  R. M. Richard,  R. P. Steele,  E. J. Sundstrom,  
 H. L. Woodcock III,  P. M. Zimmerman,  D. Zuev,  B. Albrecht,  E. Alguire,  
 S. A. Baeppler,  D. Barton,  Z. Benda,  Y. A. Bernard,  E. J. Berquist,  
 K. B. Bravaya,  H. Burton,  D. Casanova,  Chun-Min Chang,  Yunqing Chen,  
 A. Chien,  K. D. Closser,  M. P. Coons,  S. Coriani,  S. Dasgupta,  
 A. L. Dempwolff,  M. Diedenhofen,  Hainam Do,  R. G. Edgar,  Po-Tung Fang,  
 S. Faraji,  S. Fatehi,  Qingguo Feng,  K. D. Fenk,  J. Fosso-Tande,  
 Qinghui Ge,  A. Ghysels,  G. Gidofalvi,  J. Gomes,  J. Gonthier,  A. Gunina,  
 D. Hait,  M. W. D. Hanson-Heine,  P. H. P. Harbach,  A. W. Hauser,  
 J. E. Herr,  E. G. Hohenstein,  Z. C. Holden,  Kerwin Hui,  B. C. Huynh,  
 T.-C. Jagau,  Hyunjun Ji,  B. Kaduk,  K. Khistyaev,  Jaehoon Kim,  
 P. Klunzinger,  K. Koh,  D. Kosenkov,  L. Koulias,  T. Kowalczyk,  
 C. M. Krauter,  A. Kunitsa,  Ka Un Lao,  A. Laurent,  K. V. Lawler,  
 Joonho Lee,  D. Lefrancois,  S. Lehtola,  D. S. Levine,  Yi-Pei Li,  
 You-Sheng Lin,  Fenglai Liu,  E. Livshits,  A. Luenser,  P. Manohar,  
 E. Mansoor,  S. F. Manzer,  Shan-Ping Mao,  Yuezhi Mao,  N. Mardirossian,  
 A. V. Marenich,  T. Markovich,  L. A. Martinez-Martinez,  S. A. Maurer,  
 N. J. Mayhall,  S. C. McKenzie,  J.-M. Mewes,  A. F. Morrison,  
 J. W. Mullinax,  K. Nanda,  T. S. Nguyen-Beck,  R. Olivares-Amaya,  
 J. A. Parkhill,  T. M. Perrine,  F. Plasser,  P. Pokhilko,  S. Prager,  
 A. Prociuk,  E. Ramos,  D. R. Rehn,  F. Rob,  M. Schneider,  N. Sergueev,  
 S. M. Sharada,  S. Sharma,  D. W. Small,  T. Stauch,  T. Stein,  
 Yu-Chuan Su,  A. J. W. Thom,  A. Tkatchenko,  T. Tsuchimochi,  N. M. Tubman,  
 L. Vogt,  M. L. Vidal,  O. Vydrov,  M. A. Watson,  J. Wenzel,  
 M. de Wergifosse,  T. A. Wesolowski,  A. White,  J. Witte,  A. Yamada,  
 Jun Yang,  K. Yao,  S. Yeganeh,  S. R. Yost,  Zhi-Qiang You,  A. Zech,  
 Igor Ying Zhang,  Xing Zhang,  Yan Zhao,  Ying Zhu,  B. R. Brooks,  
 G. K. L. Chan,  C. J. Cramer,  M. S. Gordon,  W. J. Hehre,  A. Klamt,  
 M. W. Schmidt,  C. D. Sherrill,  D. G. Truhlar,  A. Aspuru-Guzik,  R. Baer,  
 A. T. Bell,  N. A. Besley,  Jeng-Da Chai,  A. E. DePrince, III,  
 R. A. DiStasio Jr.,  A. Dreuw,  B. D. Dunietz,  T. R. Furlani,  
 Chao-Ping Hsu,  Yousung Jung,  Jing Kong,  D. S. Lambrecht,  WanZhen Liang,  
 C. Ochsenfeld,  V. A. Rassolov,  L. V. Slipchenko,  J. E. Subotnik,  
 T. Van Voorhis,  J. M. Herbert,  A. I. Krylov,  P. M. W. Gill,  M. Head-Gordon

 Contributors to earlier versions of Q-Chem not listed above: 
 R. D. Adamson,  B. Austin,  J. Baker,  G. J. O. Beran,  K. Brandhorst,  
 S. T. Brown,  E. F. C. Byrd,  A. K. Chakraborty,  C.-L. Cheng,  
 Siu Hung Chien,  D. M. Chipman,  D. L. Crittenden,  H. Dachsel,  
 R. J. Doerksen,  A. D. Dutoi,  L. Fusti-Molnar,  W. A. Goddard III,  
 A. Golubeva-Zadorozhnaya,  S. R. Gwaltney,  G. Hawkins,  A. Heyden,  
 S. Hirata,  G. Kedziora,  F. J. Keil,  C. Kelley,  Jihan Kim,  R. A. King,  
 R. Z. Khaliullin,  P. P. Korambath,  W. Kurlancheek,  A. M. Lee,  M. S. Lee,  
 S. V. Levchenko,  Ching Yeh Lin,  D. Liotard,  R. C. Lochan,  I. Lotan,  
 P. E. Maslen,  N. Nair,  D. P. O'Neill,  D. Neuhauser,  E. Neuscamman,  
 C. M. Oana,  R. Olson,  B. Peters,  R. Peverati,  P. A. Pieniazek,  
 Y. M. Rhee,  J. Ritchie,  M. A. Rohrdanz,  E. Rosta,  N. J. Russ,  
 H. F. Schaefer III,  N. E. Schultz,  N. Shenvi,  A. C. Simmonett,  A. Sodt,  
 D. Stuck,  K. S. Thanthiriwatte,  V. Vanovschi,  Tao Wang,  A. Warshel,  
 C. F. Williams,  Q. Wu,  X. Xu,  W. Zhang

 Please cite Q-Chem as follows:
 Y. Shao et al., Mol. Phys. 113, 184-215 (2015)
 DOI: 10.1080/00268976.2014.952696

 Q-Chem 5.1.1 for Intel X86 EM64T Linux

 Parts of Q-Chem use Armadillo 8.300.2 (Tropical Shenanigans).
 http://arma.sourceforge.net/

 Q-Chem begins on Thu Mar 11 22:57:47 2021  

Host: ctcp007
0

     Scratch files written to /scratch/mewes/211199/s1opt_tda_tplots.out.plots//
 Parallel job on  1  processors
Input Ideriv = 1
Curr. Ideriv = -1
Max.  Ideriv = 1

Checking the input file for inconsistencies... 	...done.

--------------------------------------------------------------
User input:
--------------------------------------------------------------
$rem
threads 8
jobtype	sp
method PBEh-3c
basis def2-mSVP
mem_static	1024
mem_total	14000
sym_ignore	true
cis_n_roots             6
cis_singlets            false
cis_triplets		true
rpa                     false
state_analysis 		true
make_cube_files		true
cis_moments		true
sym_ignore              true
$end


$plots
att. det. elec. hole and diff. dens for s1opt.out
114 -6.15 9.30
138 -14.79 3.08
81 -3.72 8.40
0 0 0 2
1 2
$end


$molecule
0 1
C         0.1504746521   -4.5143578200    1.1103443641
C         0.0031383590   -4.3564452076    2.6241560565
C         1.6258342537   -4.1477895397    0.9512141656
C         2.3582017826   -4.1271199103   -0.2200183199
H         1.8815407386   -4.3446583213   -1.1682711173
C         3.7006256332   -3.7720764088   -0.1630208242
H         4.2800143320   -3.7142659749   -1.0757998014
C         4.2939865448   -3.4550932927    1.0553357672
H         5.3360361957   -3.1637837674    1.0835258751
C         3.5567517862   -3.4813005876    2.2305253373
H         4.0225139169   -3.2193570789    3.1721803230
C         2.2138866386   -3.8269976304    2.1720790622
C        -1.1352260845   -4.5215388491    3.3904151415
H        -2.0736625467   -4.8106029049    2.9362558562
C        -1.0672587367   -4.2709816641    4.7544160953
H        -1.9553124137   -4.3821786622    5.3629299731
C         0.1230843447   -3.8602689968    5.3442505679
H         0.1537038826   -3.6584571903    6.4066817968
C         1.2656253765   -3.6890835604    4.5757452155
H         2.1869538617   -3.3519550959    5.0341970093
C         1.1976881699   -3.9383748552    3.2144534488
C        -2.1573589287   -3.7391719232    0.1707997808
C        -2.9581687737   -2.6939068961   -0.2020478993
H        -4.0078487660   -2.8869536719   -0.3928864126
C        -2.4921260708   -1.3829159258   -0.4019341028
C        -3.3875250214   -0.3728648826   -0.7727322626
N        -4.1537368363    0.4423843132   -1.0856806863
C        -0.7494983802   -3.5132970719    0.3899866913
C        -0.2743952902   -2.2371321583    0.1615004637
H         0.7720505737   -2.0134703114    0.3146511352
C        -1.0747178975   -1.1702839711   -0.2517497222
C        -0.4676582102    0.0721463055   -0.5078375282
N         0.0546695537    1.0867643088   -0.7123381843
H         5.5716170217   -6.2628078508    0.1165904663
H         7.3029623779   -7.7713830574    1.0772519737
C         5.2896905247   -7.1694974389    0.6307630581
C         6.2538484291   -8.0145084389    1.1699515912
C         3.9584001742   -7.4732547862    0.7647297805
H         3.2232150141   -6.8011113636    0.3511183082
C         5.8753985051   -9.1860037594    1.8152088229
H         6.6491716640   -9.8400738196    2.1881603920
C         3.5723769243   -8.6279510431    1.4748448344
C         4.5463712411   -9.5260834318    1.9726818106
N         2.2428888499   -8.8819199078    1.7102374956
C         2.7425745436  -10.7747328833    3.1173625630
C         1.8287868861   -9.8180700064    2.6265265724
H         2.9509352081  -12.4238769850    4.4642093150
C         2.2862499803  -11.6726242105    4.0644857324
C         0.4960416296   -9.7943880225    3.0833526686
C         0.9747671015  -11.6452883648    4.5202887668
C         0.0794034600  -10.7044430651    4.0227246375
H        -0.1898195675   -9.0470217398    2.7154435050
H         0.6536744918  -12.3595293634    5.2654086132
H        -0.9396283206  -10.6753705092    4.3802074203
C         4.1099756922  -10.8763324882    2.4912822617
C         5.1347071503  -11.4928913150    3.4420309389
C         3.9666664731  -11.8056879432    1.2552449141
C         1.2345824969   -8.1152188269    1.0293523527
C         0.5043091538   -8.7174482486    0.0187201720
C        -0.4814780939   -7.9635025167   -0.5771692044
C        -0.7293305141   -6.6267034654   -0.2381786222
C         0.0739630925   -6.0099891925    0.7275169213
C         1.0075611083   -6.8105207355    1.3908871588
H         1.5907400182   -6.3886536219    2.1990765360
H         0.6833836838   -9.7435653518   -0.2757333506
H        -1.0975653475   -8.4227847111   -1.3400072210
C        -1.9143235894   -5.9726457306   -0.8869420660
C        -2.7167466489   -5.1256325625    0.1007815179
H        -2.5424778802   -6.7605008819   -1.3087219585
H        -1.6024152640   -5.3458538521   -1.7261154796
H        -2.7422631490   -5.6432656485    1.0685600771
H        -3.7546787770   -5.0744806944   -0.2317180371
H         3.2399320048  -11.4277766924    0.5356657779
H         3.6409941451  -12.7973206898    1.5701072158
H         4.9249267844  -11.8998452662    0.7443849536
H         5.2855700747  -10.8808894782    4.3306585040
H         6.0941770224  -11.6297859458    2.9475262200
H         4.8280445848  -12.4880238898    3.7576568251
$end
--------------------------------------------------------------
 Adding empirical dispersion correction 
 ----------------------------------------------------------------
 Doing -D3(BJ) with
 s6 =   1.00000
 s8 =   0.00000
 a1 =   0.48600
 a2 =   4.50000
 -D3 energy including 3body term =     -0.0786436631 hartrees
 ----------------------------------------------------------------
 Adding gCP correction 
 ----------------------------------------------------------------
 gCP energy =      0.1095194936 hartrees
 ----------------------------------------------------------------
             Standard Nuclear Orientation (Angstroms)
    I     Atom           X                Y                Z
 ----------------------------------------------------------------
    1      C       0.1504746521    -4.5143578200     1.1103443641
    2      C       0.0031383590    -4.3564452076     2.6241560565
    3      C       1.6258342537    -4.1477895397     0.9512141656
    4      C       2.3582017826    -4.1271199103    -0.2200183199
    5      H       1.8815407386    -4.3446583213    -1.1682711173
    6      C       3.7006256332    -3.7720764088    -0.1630208242
    7      H       4.2800143320    -3.7142659749    -1.0757998014
    8      C       4.2939865448    -3.4550932927     1.0553357672
    9      H       5.3360361957    -3.1637837674     1.0835258751
   10      C       3.5567517862    -3.4813005876     2.2305253373
   11      H       4.0225139169    -3.2193570789     3.1721803230
   12      C       2.2138866386    -3.8269976304     2.1720790622
   13      C      -1.1352260845    -4.5215388491     3.3904151415
   14      H      -2.0736625467    -4.8106029049     2.9362558562
   15      C      -1.0672587367    -4.2709816641     4.7544160953
   16      H      -1.9553124137    -4.3821786622     5.3629299731
   17      C       0.1230843447    -3.8602689968     5.3442505679
   18      H       0.1537038826    -3.6584571903     6.4066817968
   19      C       1.2656253765    -3.6890835604     4.5757452155
   20      H       2.1869538617    -3.3519550959     5.0341970093
   21      C       1.1976881699    -3.9383748552     3.2144534488
   22      C      -2.1573589287    -3.7391719232     0.1707997808
   23      C      -2.9581687737    -2.6939068961    -0.2020478993
   24      H      -4.0078487660    -2.8869536719    -0.3928864126
   25      C      -2.4921260708    -1.3829159258    -0.4019341028
   26      C      -3.3875250214    -0.3728648826    -0.7727322626
   27      N      -4.1537368363     0.4423843132    -1.0856806863
   28      C      -0.7494983802    -3.5132970719     0.3899866913
   29      C      -0.2743952902    -2.2371321583     0.1615004637
   30      H       0.7720505737    -2.0134703114     0.3146511352
   31      C      -1.0747178975    -1.1702839711    -0.2517497222
   32      C      -0.4676582102     0.0721463055    -0.5078375282
   33      N       0.0546695537     1.0867643088    -0.7123381843
   34      H       5.5716170217    -6.2628078508     0.1165904663
   35      H       7.3029623779    -7.7713830574     1.0772519737
   36      C       5.2896905247    -7.1694974389     0.6307630581
   37      C       6.2538484291    -8.0145084389     1.1699515912
   38      C       3.9584001742    -7.4732547862     0.7647297805
   39      H       3.2232150141    -6.8011113636     0.3511183082
   40      C       5.8753985051    -9.1860037594     1.8152088229
   41      H       6.6491716640    -9.8400738196     2.1881603920
   42      C       3.5723769243    -8.6279510431     1.4748448344
   43      C       4.5463712411    -9.5260834318     1.9726818106
   44      N       2.2428888499    -8.8819199078     1.7102374956
   45      C       2.7425745436   -10.7747328833     3.1173625630
   46      C       1.8287868861    -9.8180700064     2.6265265724
   47      H       2.9509352081   -12.4238769850     4.4642093150
   48      C       2.2862499803   -11.6726242105     4.0644857324
   49      C       0.4960416296    -9.7943880225     3.0833526686
   50      C       0.9747671015   -11.6452883648     4.5202887668
   51      C       0.0794034600   -10.7044430651     4.0227246375
   52      H      -0.1898195675    -9.0470217398     2.7154435050
   53      H       0.6536744918   -12.3595293634     5.2654086132
   54      H      -0.9396283206   -10.6753705092     4.3802074203
   55      C       4.1099756922   -10.8763324882     2.4912822617
   56      C       5.1347071503   -11.4928913150     3.4420309389
   57      C       3.9666664731   -11.8056879432     1.2552449141
   58      C       1.2345824969    -8.1152188269     1.0293523527
   59      C       0.5043091538    -8.7174482486     0.0187201720
   60      C      -0.4814780939    -7.9635025167    -0.5771692044
   61      C      -0.7293305141    -6.6267034654    -0.2381786222
   62      C       0.0739630925    -6.0099891925     0.7275169213
   63      C       1.0075611083    -6.8105207355     1.3908871588
   64      H       1.5907400182    -6.3886536219     2.1990765360
   65      H       0.6833836838    -9.7435653518    -0.2757333506
   66      H      -1.0975653475    -8.4227847111    -1.3400072210
   67      C      -1.9143235894    -5.9726457306    -0.8869420660
   68      C      -2.7167466489    -5.1256325625     0.1007815179
   69      H      -2.5424778802    -6.7605008819    -1.3087219585
   70      H      -1.6024152640    -5.3458538521    -1.7261154796
   71      H      -2.7422631490    -5.6432656485     1.0685600771
   72      H      -3.7546787770    -5.0744806944    -0.2317180371
   73      H       3.2399320048   -11.4277766924     0.5356657779
   74      H       3.6409941451   -12.7973206898     1.5701072158
   75      H       4.9249267844   -11.8998452662     0.7443849536
   76      H       5.2855700747   -10.8808894782     4.3306585040
   77      H       6.0941770224   -11.6297859458     2.9475262200
   78      H       4.8280445848   -12.4880238898     3.7576568251
 ----------------------------------------------------------------
 Nuclear Repulsion Energy =  5553.7333038795 hartrees
 There are      158 alpha and      158 beta electrons
 Requested basis set is def2-mSVP
 There are 391 shells and 767 basis functions

 Total QAlloc Memory Limit  14000 MB
 Mega-Array Size      1001 MB
 MEM_STATIC part      1024 MB
 A cutoff of  1.0D-11 yielded  35097 shell pairs
 There are    140985 function pairs (    155664 Cartesian)
 
 -------------------------------------------------------
 OpenMP Integral Computing Module                       
 Release: version 1.0, May 2013, Q-Chem Inc. Pittsburgh 
 -------------------------------------------------------
 Integral Job Info:
 Integral job number is                      11
 Integral operator is                         1
 short-range coefficients                     0
 long-range coefficients              100000000
 Omega coefficients                           0
 if combine SR and LR in K                    0
 Integral screening is                        0
 Integral computing path is                   2
 max size of driver memory is            800000
 size of driver memory is                593474
 size of scratch memory is              1809772
 max col of scratch BK array               1296
 max len of scratch array in speh3          155
 max len of scratch index in speh4           18
 max int batch size is                      520
 min int batch size is                       52
 fixed nKL is                                52
 max L of basis functions is                  2
 order of int derivative is                   0
 number of shells is                        391
 number of basis is                         814
 number of cartesian basis is               814
 number of contracted shell pairs         35097
 number of primitive shell pairs          73511
 maxK2 (contraction) of shell pair           25
 max number of K2 of shell pair               1
 max number of CS2 of shell pair           8337
 max number of PS2 of shell pair          13125
 mem total for path MDJ                  883084
 -------------------------------------------------------
 Smallest overlap matrix eigenvalue = 2.82E-04

 Scale SEOQF with 1.000000e-02/1.000000e-02/1.000000e-02

 Standard Electronic Orientation quadrupole field applied
 Nucleus-field energy     =     0.0000001023 hartrees
 Guess from superposition of atomic densities
 Warning:  Energy on first SCF cycle will be non-variational
 SAD guess density has 316.000000 electrons

 -----------------------------------------------------------------------
  General SCF calculation program by
  Eric Jon Sundstrom, Paul Horn, Yuezhi Mao, Dmitri Zuev, Alec White,
  David Stuck, Shaama M.S., Shane Yost, Joonho Lee, David Small,
  Daniel Levine, Susi Lehtola, Hugh Burton, Evgeny Epifanovsky
 -----------------------------------------------------------------------
 Exchange:     0.4200 Hartree-Fock + 0.5800 PBEh-3c
 Correlation:  1.0000 PBEh-3c
 Using SG-1 standard quadrature grid
 Dispersion:   Grimme D3
 using 8 threads for integral computing
 -------------------------------------------------------
 OpenMP Integral computing Module                
 Release: version 2.0, May 2017, Q-Chem Inc. Pleasanton 
 -------------------------------------------------------
 -------------------------------------------------------
 OpenMP BLAS3 based DFT computing Module                
 Release: version 1.0, May 2013, Q-Chem Inc. Pittsburgh 
 -------------------------------------------------------
 A restricted SCF calculation will be
 performed using DIIS
 SCF converges when DIIS error is below 1.0e-08
 ---------------------------------------
  Cycle       Energy         DIIS error
 ---------------------------------------
    1   -1871.0042616452      3.09e-02  
    2   -1855.1153262576      2.21e-03  
    3   -1855.0295141027      2.66e-03  
    4   -1855.4641467483      8.80e-04  
    5   -1855.5148345051      2.26e-04  
    6   -1855.5176381559      9.90e-05  
    7   -1855.5182979414      2.30e-05  
    8   -1855.5183360191      8.74e-06  
    9   -1855.5183417195      2.40e-06  
   10   -1855.5183420821      1.11e-06  
   11   -1855.5183421707      3.73e-07  
   12   -1855.5183421813      1.47e-07  
   13   -1855.5183421829      6.21e-08  
   14   -1855.5183421832      1.85e-08  
   15   -1855.5183421832      7.08e-09  Convergence criterion met
 ---------------------------------------
 SCF time:   CPU 4444.59s  wall 556.00s 
 SCF   energy in the final basis set =    -1855.5183421832
 Total energy in the final basis set =    -1855.5183421832
 
 Direct TDDFT/TDA calculation will be performed
 Exchange:     0.4200 Hartree-Fock + 0.5800 PBEh-3c
 Correlation:  1.0000 PBEh-3c
 Using SG-1 standard quadrature grid
 Dispersion:   Grimme D3
 Triplet excitation energies requested
 CIS energy converged when residual is below 10e- 6
 ---------------------------------------------------
 Iter    Rts Conv    Rts Left    Ttl Dev     Max Dev
 ---------------------------------------------------
   1         0           6      0.000158    0.000044
   2         0           6      0.000229    0.000065
   3         0           6      0.000198    0.000070
   4         0           6      0.000241    0.000075
   5         0           6      0.000194    0.000060
   6         0           6      0.000110    0.000032
   7         1           5      0.000051    0.000016
   8         1           5      0.000026    0.000011
   9         2           4      0.000017    0.000009
  10         3           3      0.000010    0.000005
  11         4           2      0.000006    0.000003
  12         5           1      0.000004    0.000002
  13         5           1      0.000003    0.000001
  14         6           0      0.000002    0.000001    Roots Converged
 ---------------------------------------------------
 
 ---------------------------------------------------
         TDDFT/TDA Excitation Energies              
 ---------------------------------------------------

 Excited state   1: excitation energy (eV) =    3.0005
 Total energy for state  1:                 -1855.40807459 au
    Multiplicity: Triplet
    Trans. Mom.:  0.0000 X   0.0000 Y   0.0000 Z
    Strength   :     0.0000000000
    D(150) --> V(  1) amplitude = -0.4262
    D(151) --> V(  1) amplitude = -0.7214
    D(153) --> V(  1) amplitude = -0.2216

 Excited state   2: excitation energy (eV) =    3.1195
 Total energy for state  2:                 -1855.40370411 au
    Multiplicity: Triplet
    Trans. Mom.:  0.0000 X   0.0000 Y   0.0000 Z
    Strength   :     0.0000000000
    D(158) --> V(  1) amplitude =  0.9887

 Excited state   3: excitation energy (eV) =    3.3670
 Total energy for state  3:                 -1855.39460781 au
    Multiplicity: Triplet
    Trans. Mom.:  0.0000 X   0.0000 Y   0.0000 Z
    Strength   :     0.0000000000
    D(157) --> V(  2) amplitude = -0.6213
    D(157) --> V(  3) amplitude = -0.5418

 Excited state   4: excitation energy (eV) =    3.4507
 Total energy for state  4:                 -1855.39153088 au
    Multiplicity: Triplet
    Trans. Mom.:  0.0000 X   0.0000 Y   0.0000 Z
    Strength   :     0.0000000000
    D(158) --> V(  7) amplitude =  0.6607
    D(158) --> V(  8) amplitude = -0.5438

 Excited state   5: excitation energy (eV) =    3.7699
 Total energy for state  5:                 -1855.37980042 au
    Multiplicity: Triplet
    Trans. Mom.:  0.0000 X   0.0000 Y   0.0000 Z
    Strength   :     0.0000000000
    D(152) --> V(  6) amplitude =  0.2936
    D(158) --> V(  4) amplitude =  0.3301
    D(158) --> V(  5) amplitude =  0.2177
    D(158) --> V(  6) amplitude = -0.3701
    D(158) --> V(  8) amplitude = -0.3112

 Excited state   6: excitation energy (eV) =    3.8612
 Total energy for state  6:                 -1855.37644745 au
    Multiplicity: Triplet
    Trans. Mom.:  0.0000 X   0.0000 Y   0.0000 Z
    Strength   :     0.0000000000
    D(148) --> V(  1) amplitude =  0.3549
    D(149) --> V(  1) amplitude =  0.4921
    D(157) --> V(  1) amplitude =  0.5799
 
 ---------------------------------------------------
  SETman timing summary (seconds)
  CPU time              6460.97s
  System time              0.00s
  Wall time              869.83s
================================================================================
                             Excited State Analysis
================================================================================

Created directory /scratch/mewes/211199/s1opt_tda_tplots.out.plots/plots
  ----------------------------------------------------------------------------
                            Density Matrix Analysis
  ----------------------------------------------------------------------------

  Excited state   1:
  ------------------
    NOs
      Occupation of frontier NOs:
         0.9075   1.0925
      Number of electrons: 316.000000
      Number of unpaired electrons: n_u =  2.00000, n_u,nl =  1.99330
      NO participation ratio (PR_NO):  2.417905
    
    
    Mulliken Population Analysis
    Atom      Charge (e)              h+              e-           Del q
    --------------------------------------------------------------------
     1 C       -0.415996        0.003644       -0.006774       -0.003130
     2 C        0.182881        0.014306       -0.007510        0.006795
     3 C        0.025330        0.003630       -0.000956        0.002674
     4 C       -0.256123        0.000688       -0.000544        0.000144
     5 H        0.231250        0.000117       -0.000346       -0.000230
     6 C       -0.240011        0.000879       -0.000234        0.000645
     7 H        0.232311        0.000021       -0.000006        0.000015
     8 C       -0.207252        0.001089       -0.000124        0.000965
     9 H        0.231376        0.000001       -0.000010       -0.000009
    10 C       -0.325694        0.000228       -0.000167        0.000061
    11 H        0.215233        0.000011       -0.000010        0.000001
    12 C        0.164161        0.001486       -0.000343        0.001143
    13 C       -0.283151        0.003405       -0.003148        0.000257
    14 H        0.214965        0.000099       -0.000073        0.000026
    15 C       -0.220043        0.001004       -0.000652        0.000352
    16 H        0.227441        0.000037       -0.000051       -0.000014
    17 C       -0.214329        0.005027       -0.003079        0.001948
    18 H        0.230185        0.000004       -0.000002        0.000002
    19 C       -0.320333        0.001004       -0.000638        0.000366
    20 H        0.214644        0.000133       -0.000119        0.000014
    21 C        0.131413        0.004280       -0.003110        0.001170
    22 C        0.154738        0.142626       -0.130682        0.011944
    23 C       -0.332715        0.021036       -0.039501       -0.018466
    24 H        0.246294        0.000010       -0.000432       -0.000422
    25 C        0.070858        0.199494       -0.204280       -0.004786
    26 C       -0.019448        0.014988       -0.028911       -0.013923
    27 N       -0.152513        0.094590       -0.088759        0.005831
    28 C        0.158392        0.173580       -0.169498        0.004081
    29 C       -0.292149        0.025544       -0.026402       -0.000859
    30 H        0.280915        0.000049       -0.000488       -0.000439
    31 C        0.074804        0.166197       -0.174137       -0.007939
    32 C       -0.015951        0.011257       -0.021135       -0.009878
    33 N       -0.153570        0.073506       -0.068505        0.005001
    34 H        0.211166        0.000007       -0.000001        0.000006
    35 H        0.207230        0.000000       -0.000000        0.000000
    36 C       -0.224958        0.000119       -0.000001        0.000118
    37 C       -0.228128        0.001769       -0.000004        0.001766
    38 C       -0.306262        0.001145       -0.000006        0.001139
    39 H        0.267057        0.000005       -0.000001        0.000004
    40 C       -0.311737        0.000119       -0.000001        0.000118
    41 H        0.209320        0.000000       -0.000000        0.000000
    42 C        0.317756        0.000715       -0.000005        0.000710
    43 C        0.151191        0.001282       -0.000006        0.001276
    44 N       -0.692882        0.003710       -0.000037        0.003673
    45 C        0.165250        0.001170       -0.000007        0.001163
    46 C        0.311145        0.000558       -0.000003        0.000555
    47 H        0.208916        0.000001       -0.000000        0.000001
    48 C       -0.313907        0.000084       -0.000000        0.000083
    49 C       -0.290653        0.001080       -0.000007        0.001073
    50 C       -0.226241        0.001496       -0.000008        0.001488
    51 C       -0.229977        0.000116       -0.000001        0.000115
    52 H        0.245630        0.000001       -0.000004       -0.000003
    53 H        0.209970        0.000000       -0.000000        0.000000
    54 H        0.213853        0.000001        0.000000        0.000002
    55 C       -0.236615        0.000061       -0.000000        0.000061
    56 C       -0.648574        0.000054       -0.000000        0.000054
    57 C       -0.588376        0.000273       -0.000001        0.000273
    58 C        0.180646        0.000218       -0.000118        0.000100
    59 C       -0.211015        0.000240       -0.000091        0.000149
    60 C       -0.303738        0.000301       -0.000213        0.000088
    61 C        0.059369        0.000002       -0.000358       -0.000356
    62 C        0.230981        0.002579       -0.002623       -0.000044
    63 C       -0.269817        0.000563       -0.000194        0.000370
    64 H        0.285583        0.000035        0.000004        0.000039
    65 H        0.239876        0.000023       -0.000004        0.000018
    66 H        0.219475        0.000037       -0.000053       -0.000016
    67 C       -0.514148        0.006275       -0.005404        0.000871
    68 C       -0.547786        0.003425       -0.003455       -0.000030
    69 H        0.250631        0.002192       -0.000204        0.001988
    70 H        0.254658        0.000397        0.000004        0.000401
    71 H        0.256303        0.005874       -0.006441       -0.000567
    72 H        0.253011        0.000059       -0.000130       -0.000071
    73 H        0.226680       -0.000004       -0.000000       -0.000004
    74 H        0.219044        0.000021       -0.000000        0.000021
    75 H        0.221245        0.000017       -0.000000        0.000017
    76 H        0.241799        0.000010       -0.000000        0.000010
    77 H        0.224474        0.000001       -0.000000        0.000001
    78 H        0.224641        0.000001       -0.000000        0.000001
    --------------------------------------------------------------------
    Sum:       -0.000000        1.000000       -1.000000       -0.000000
    
    Exciton analysis of the difference density matrix
      <r_h> [Ang]:                  [ -1.606360,  -2.040318,  -0.063165]
      <r_e> [Ang]:                  [ -1.731657,  -1.866128,  -0.148337]
      |<r_e - r_h>| [Ang]:            0.230859
      Hole size [Ang]:                2.717824
        Cartesian components [Ang]: [  1.457350,   2.003737,   1.117019]
      Electron size [Ang]:            2.438609
        Cartesian components [Ang]: [  1.377246,   1.749912,   0.993889]

  Excited state   2:
  ------------------
    NOs
      Occupation of frontier NOs:
         0.9976   1.0024
      Number of electrons: 316.000000
      Number of unpaired electrons: n_u =  2.00000, n_u,nl =  1.99999
      NO participation ratio (PR_NO):  2.009465
    
    
    Mulliken Population Analysis
    Atom      Charge (e)              h+              e-           Del q
    --------------------------------------------------------------------
     1 C       -0.426579        0.000665       -0.014378       -0.013714
     2 C        0.162656        0.000402       -0.013831       -0.013430
     3 C        0.020331        0.000218       -0.002543       -0.002325
     4 C       -0.257934        0.000019       -0.001686       -0.001667
     5 H        0.230619        0.000011       -0.000871       -0.000860
     6 C       -0.240621        0.000050       -0.000015        0.000035
     7 H        0.232281       -0.000001       -0.000015       -0.000016
     8 C       -0.208710        0.000078       -0.000571       -0.000493
     9 H        0.231357        0.000001       -0.000029       -0.000028
    10 C       -0.325907        0.000020       -0.000172       -0.000153
    11 H        0.215204        0.000001       -0.000029       -0.000029
    12 C        0.162598        0.000030       -0.000450       -0.000420
    13 C       -0.292117        0.000201       -0.008909       -0.008708
    14 H        0.214963        0.000005        0.000019        0.000024
    15 C       -0.220958        0.000038       -0.000602       -0.000564
    16 H        0.227338        0.000001       -0.000118       -0.000117
    17 C       -0.225806        0.000197       -0.009726       -0.009528
    18 H        0.230189        0.000000        0.000006        0.000006
    19 C       -0.322449        0.000069       -0.001819       -0.001750
    20 H        0.214391        0.000002       -0.000240       -0.000238
    21 C        0.124573        0.000141       -0.005812       -0.005671
    22 C        0.021611        0.002027       -0.123210       -0.121183
    23 C       -0.336247        0.000339       -0.022337       -0.021998
    24 H        0.246086       -0.000000       -0.000630       -0.000630
    25 C       -0.122195        0.002231       -0.200071       -0.197840
    26 C       -0.035020        0.000206       -0.029700       -0.029494
    27 N       -0.252434        0.001097       -0.095187       -0.094089
    28 C       -0.004338        0.002419       -0.161067       -0.158648
    29 C       -0.296834        0.000422       -0.005965       -0.005543
    30 H        0.280599        0.000001       -0.000757       -0.000755
    31 C       -0.080162        0.003094       -0.165999       -0.162905
    32 C       -0.028086        0.000240       -0.022253       -0.022013
    33 N       -0.230713        0.001446       -0.073588       -0.072142
    34 H        0.211192        0.000032        0.000000        0.000032
    35 H        0.207233        0.000004       -0.000000        0.000004
    36 C       -0.215106        0.010084       -0.000113        0.009970
    37 C       -0.111440        0.118462       -0.000009        0.118453
    38 C       -0.227232        0.080271       -0.000103        0.080169
    39 H        0.267050        0.000008       -0.000011       -0.000003
    40 C       -0.304304        0.007621       -0.000071        0.007551
    41 H        0.209347        0.000027        0.000000        0.000028
    42 C        0.366746        0.049745       -0.000045        0.049701
    43 C        0.235194        0.085360       -0.000081        0.085279
    44 N       -0.458186        0.238453       -0.000085        0.238368
    45 C        0.245098        0.081213       -0.000203        0.081011
    46 C        0.354372        0.043924       -0.000142        0.043783
    47 H        0.208928        0.000013       -0.000000        0.000012
    48 C       -0.307673        0.006340       -0.000023        0.006318
    49 C       -0.216730        0.075047       -0.000050        0.074997
    50 C       -0.119862        0.108104       -0.000237        0.107868
    51 C       -0.221280        0.008943       -0.000131        0.008812
    52 H        0.245666        0.000039       -0.000006        0.000033
    53 H        0.209997        0.000028       -0.000000        0.000028
    54 H        0.213921        0.000070        0.000000        0.000070
    55 C       -0.232148        0.004528       -0.000001        0.004528
    56 C       -0.644997        0.003632       -0.000001        0.003631
    57 C       -0.569841        0.018810       -0.000002        0.018808
    58 C        0.186845        0.007154       -0.000855        0.006299
    59 C       -0.201388        0.010513       -0.000736        0.009777
    60 C       -0.304260        0.001745       -0.002180       -0.000435
    61 C        0.064743        0.006041       -0.001024        0.005018
    62 C        0.227003        0.001824       -0.005846       -0.004022
    63 C       -0.261665        0.010961       -0.002439        0.008522
    64 H        0.285618        0.000030        0.000043        0.000073
    65 H        0.239850        0.000020       -0.000027       -0.000007
    66 H        0.219998        0.000653       -0.000146        0.000507
    67 C       -0.521471        0.000407       -0.006859       -0.006452
    68 C       -0.553953        0.000155       -0.006352       -0.006197
    69 H        0.248837        0.000184        0.000010        0.000194
    70 H        0.254755        0.000471        0.000028        0.000498
    71 H        0.247272        0.000059       -0.009657       -0.009598
    72 H        0.253083        0.000087       -0.000087        0.000001
    73 H        0.226419       -0.000264       -0.000001       -0.000265
    74 H        0.220472        0.001450       -0.000001        0.001449
    75 H        0.222491        0.001266       -0.000004        0.001263
    76 H        0.242485        0.000696       -0.000000        0.000696
    77 H        0.224539        0.000066       -0.000000        0.000066
    78 H        0.224691        0.000051       -0.000000        0.000051
    --------------------------------------------------------------------
    Sum:       -0.000000        1.000000       -1.000000       -0.000000
    
    Exciton analysis of the difference density matrix
      <r_h> [Ang]:                  [  2.850245,  -9.213292,   2.105496]
      <r_e> [Ang]:                  [ -1.667911,  -1.955994,  -0.056366]
      |<r_e - r_h>| [Ang]:            8.817922
      Hole size [Ang]:                2.943659
        Cartesian components [Ang]: [  1.949273,   1.724539,   1.375292]
      Electron size [Ang]:            2.694001
        Cartesian components [Ang]: [  1.459353,   1.922967,   1.195879]

  Excited state   3:
  ------------------
    NOs
      Occupation of frontier NOs:
         0.7967   1.2033
      Number of electrons: 316.000000
      Number of unpaired electrons: n_u =  2.00000, n_u,nl =  1.92274
      NO participation ratio (PR_NO):  3.095522
    
    
    Mulliken Population Analysis
    Atom      Charge (e)              h+              e-           Del q
    --------------------------------------------------------------------
     1 C       -0.410964        0.001597        0.000304        0.001901
     2 C        0.184309        0.095511       -0.087288        0.008223
     3 C        0.036074        0.094227       -0.080809        0.013418
     4 C       -0.261484        0.031235       -0.036451       -0.005217
     5 H        0.231458        0.000008       -0.000030       -0.000022
     6 C       -0.243679        0.127226       -0.130249       -0.003023
     7 H        0.232257        0.000026       -0.000066       -0.000040
     8 C       -0.203158        0.044566       -0.039507        0.005059
     9 H        0.231377        0.000011       -0.000019       -0.000008
    10 C       -0.332565        0.070226       -0.077037       -0.006811
    11 H        0.215217        0.000016       -0.000031       -0.000015
    12 C        0.162348        0.107771       -0.108441       -0.000670
    13 C       -0.286160        0.030956       -0.033707       -0.002752
    14 H        0.214920        0.000009       -0.000028       -0.000019
    15 C       -0.218467        0.132261       -0.130333        0.001928
    16 H        0.227434        0.000035       -0.000055       -0.000020
    17 C       -0.210583        0.048866       -0.043172        0.005695
    18 H        0.230172        0.000009       -0.000020       -0.000011
    19 C       -0.325130        0.069869       -0.074300       -0.004431
    20 H        0.214605        0.000019       -0.000043       -0.000024
    21 C        0.133943        0.114994       -0.111295        0.003699
    22 C        0.140186        0.001631       -0.004238       -0.002607
    23 C       -0.315908        0.000323       -0.001981       -0.001659
    24 H        0.246592        0.000005       -0.000129       -0.000125
    25 C        0.071203        0.001428       -0.005870       -0.004441
    26 C       -0.006005        0.000107       -0.000586       -0.000479
    27 N       -0.160089        0.000596       -0.002341       -0.001745
    28 C        0.143647        0.001226       -0.011890       -0.010663
    29 C       -0.292888        0.001923       -0.003521       -0.001597
    30 H        0.281058        0.000018       -0.000314       -0.000296
    31 C        0.082223        0.002207       -0.002727       -0.000520
    32 C       -0.006244        0.000213       -0.000384       -0.000171
    33 N       -0.158634        0.001062       -0.001125       -0.000063
    34 H        0.211111        0.000361       -0.000409       -0.000049
    35 H        0.207234        0.000005       -0.000000        0.000005
    36 C       -0.224978        0.000212       -0.000114        0.000099
    37 C       -0.229914        0.000020       -0.000041       -0.000021
    38 C       -0.307221        0.000336       -0.000155        0.000181
    39 H        0.267001        0.000035       -0.000086       -0.000051
    40 C       -0.311840        0.000027       -0.000012        0.000015
    41 H        0.209328        0.000010       -0.000001        0.000009
    42 C        0.317064        0.000047       -0.000028        0.000018
    43 C        0.149913        0.000016       -0.000017       -0.000001
    44 N       -0.696510        0.000057       -0.000013        0.000045
    45 C        0.164097        0.000012       -0.000003        0.000010
    46 C        0.310606        0.000023       -0.000006        0.000017
    47 H        0.208915        0.000000       -0.000000       -0.000000
    48 C       -0.313972        0.000020       -0.000001        0.000019
    49 C       -0.291705        0.000033       -0.000011        0.000022
    50 C       -0.227712        0.000020       -0.000002        0.000017
    51 C       -0.230077        0.000017       -0.000002        0.000015
    52 H        0.245613        0.000010       -0.000030       -0.000020
    53 H        0.209970        0.000000        0.000000        0.000000
    54 H        0.213852       -0.000000       -0.000000       -0.000000
    55 C       -0.236675        0.000001       -0.000001        0.000001
    56 C       -0.648627        0.000001       -0.000000        0.000001
    57 C       -0.588647        0.000002       -0.000001        0.000002
    58 C        0.181730        0.001097        0.000088        0.001184
    59 C       -0.207777        0.003718       -0.000331        0.003388
    60 C       -0.301406        0.002572       -0.000152        0.002420
    61 C        0.060180        0.002179       -0.001724        0.000455
    62 C        0.227159        0.004529       -0.008395       -0.003866
    63 C       -0.266151        0.004006        0.000029        0.004035
    64 H        0.285516        0.000019       -0.000047       -0.000029
    65 H        0.239856        0.000002       -0.000003       -0.000001
    66 H        0.219411        0.000008       -0.000089       -0.000081
    67 C       -0.515212        0.000106       -0.000298       -0.000192
    68 C       -0.547926        0.000097       -0.000268       -0.000171
    69 H        0.248666        0.000028       -0.000004        0.000024
    70 H        0.254324        0.000077       -0.000009        0.000067
    71 H        0.256803        0.000101       -0.000169       -0.000068
    72 H        0.253091        0.000020       -0.000011        0.000008
    73 H        0.226685        0.000000       -0.000000        0.000000
    74 H        0.219023        0.000000       -0.000000        0.000000
    75 H        0.221228        0.000000       -0.000000        0.000000
    76 H        0.241789        0.000000       -0.000000        0.000000
    77 H        0.224473        0.000000       -0.000000        0.000000
    78 H        0.224641        0.000001       -0.000000        0.000001
    --------------------------------------------------------------------
    Sum:       -0.000000        1.000000       -1.000000       -0.000000
    
    Exciton analysis of the difference density matrix
      <r_h> [Ang]:                  [  1.430926,  -4.005114,   2.446023]
      <r_e> [Ang]:                  [  1.393596,  -3.930465,   2.396881]
      |<r_e - r_h>| [Ang]:            0.096855
      Hole size [Ang]:                2.745653
        Cartesian components [Ang]: [  1.785932,   0.985159,   1.838074]
      Electron size [Ang]:            2.832317
        Cartesian components [Ang]: [  1.884154,   0.943318,   1.892653]

  Excited state   4:
  ------------------
    NOs
      Occupation of frontier NOs:
         0.8243   1.1757
      Number of electrons: 316.000000
      Number of unpaired electrons: n_u =  2.00000, n_u,nl =  1.95325
      NO participation ratio (PR_NO):  2.900466
    
    
    Mulliken Population Analysis
    Atom      Charge (e)              h+              e-           Del q
    --------------------------------------------------------------------
     1 C       -0.412748        0.000192       -0.000074        0.000118
     2 C        0.176080        0.000025       -0.000031       -0.000006
     3 C        0.022352        0.000035       -0.000339       -0.000304
     4 C       -0.256314        0.000006       -0.000053       -0.000047
     5 H        0.231469        0.000001       -0.000012       -0.000011
     6 C       -0.240857        0.000001       -0.000202       -0.000201
     7 H        0.232295       -0.000000       -0.000002       -0.000002
     8 C       -0.208453        0.000029       -0.000264       -0.000235
     9 H        0.231388        0.000000        0.000003        0.000003
    10 C       -0.325870        0.000008       -0.000123       -0.000115
    11 H        0.215230       -0.000000       -0.000002       -0.000002
    12 C        0.162895        0.000004       -0.000127       -0.000123
    13 C       -0.283413        0.000008       -0.000012       -0.000005
    14 H        0.214935        0.000001       -0.000005       -0.000004
    15 C       -0.220400        0.000002       -0.000008       -0.000006
    16 H        0.227454       -0.000000       -0.000000       -0.000000
    17 C       -0.216275        0.000006       -0.000003        0.000003
    18 H        0.230183       -0.000000       -0.000000       -0.000000
    19 C       -0.320710        0.000002       -0.000013       -0.000011
    20 H        0.214629        0.000000       -0.000000       -0.000000
    21 C        0.130209        0.000003       -0.000039       -0.000035
    22 C        0.142589        0.000015       -0.000219       -0.000204
    23 C       -0.314262        0.000002       -0.000015       -0.000013
    24 H        0.246716       -0.000000       -0.000000       -0.000001
    25 C        0.075457        0.000014       -0.000202       -0.000187
    26 C       -0.005560        0.000000       -0.000035       -0.000035
    27 N       -0.158441        0.000005       -0.000101       -0.000096
    28 C        0.154220        0.000042       -0.000132       -0.000090
    29 C       -0.291408        0.000015       -0.000132       -0.000117
    30 H        0.281356        0.000001        0.000001        0.000001
    31 C        0.082382        0.000006       -0.000367       -0.000361
    32 C       -0.006137        0.000001       -0.000066       -0.000064
    33 N       -0.158752        0.000002       -0.000183       -0.000181
    34 H        0.211140        0.000035       -0.000054       -0.000020
    35 H        0.207160        0.000034       -0.000104       -0.000070
    36 C       -0.255526        0.029754       -0.060204       -0.030450
    37 C       -0.233345        0.129303       -0.132755       -0.003452
    38 C       -0.276592        0.070709       -0.039900        0.030809
    39 H        0.266907        0.000012       -0.000158       -0.000145
    40 C       -0.318588        0.020965       -0.027698       -0.006733
    41 H        0.209116        0.000024       -0.000228       -0.000204
    42 C        0.236658        0.065805       -0.146193       -0.080388
    43 C        0.168240        0.095048       -0.076722        0.018325
    44 N       -0.551350        0.157210       -0.012005        0.145205
    45 C        0.182053        0.087719       -0.069753        0.017966
    46 C        0.229070        0.061130       -0.142649       -0.081519
    47 H        0.208874        0.000020       -0.000061       -0.000041
    48 C       -0.324629        0.020970       -0.031609       -0.010639
    49 C       -0.266222        0.070195       -0.044689        0.025505
    50 C       -0.238284        0.122412       -0.132966       -0.010555
    51 C       -0.254412        0.027501       -0.051820       -0.024320
    52 H        0.245590        0.000029       -0.000072       -0.000043
    53 H        0.209933        0.000045       -0.000082       -0.000037
    54 H        0.213872        0.000044       -0.000024        0.000020
    55 C       -0.239149        0.002963       -0.005436       -0.002473
    56 C       -0.648065        0.002800       -0.002237        0.000563
    57 C       -0.574781        0.014387       -0.000520        0.013867
    58 C        0.181687        0.002969       -0.001828        0.001141
    59 C       -0.207430        0.005294       -0.001560        0.003734
    60 C       -0.306784        0.000923       -0.003882       -0.002959
    61 C        0.060247        0.001502       -0.000980        0.000521
    62 C        0.230076        0.000662       -0.001611       -0.000949
    63 C       -0.269951        0.005683       -0.005447        0.000236
    64 H        0.285531        0.000011       -0.000025       -0.000014
    65 H        0.239813        0.000004       -0.000049       -0.000045
    66 H        0.219750        0.000280       -0.000022        0.000259
    67 C       -0.515007        0.000036       -0.000024        0.000013
    68 C       -0.547810        0.000023       -0.000077       -0.000054
    69 H        0.248617        0.000010       -0.000035       -0.000025
    70 H        0.254327        0.000096       -0.000026        0.000070
    71 H        0.256869        0.000008       -0.000009       -0.000001
    72 H        0.253051        0.000012       -0.000043       -0.000031
    73 H        0.226489       -0.000190       -0.000006       -0.000196
    74 H        0.219331        0.001305       -0.000998        0.000307
    75 H        0.221447        0.001156       -0.000938        0.000218
    76 H        0.242230        0.000510       -0.000069        0.000441
    77 H        0.223552        0.000085       -0.001006       -0.000921
    78 H        0.224052        0.000081       -0.000669       -0.000588
    --------------------------------------------------------------------
    Sum:        0.000000        1.000000       -1.000000        0.000000
    
    Exciton analysis of the difference density matrix
      <r_h> [Ang]:                  [  3.059484,  -9.444831,   2.276315]
      <r_e> [Ang]:                  [  3.113783,  -9.469969,   2.377894]
      |<r_e - r_h>| [Ang]:            0.117892
      Hole size [Ang]:                2.831296
        Cartesian components [Ang]: [  1.953097,   1.499415,   1.397642]
      Electron size [Ang]:            3.019355
        Cartesian components [Ang]: [  2.078990,   1.620938,   1.472027]

  Excited state   5:
  ------------------
    NOs
      Occupation of frontier NOs:
         0.6358   1.3642
      Number of electrons: 316.000000
      Number of unpaired electrons: n_u =  2.00000, n_u,nl =  1.84662
      NO participation ratio (PR_NO):  4.384652
    
    
    Mulliken Population Analysis
    Atom      Charge (e)              h+              e-           Del q
    --------------------------------------------------------------------
     1 C       -0.415612        0.001754       -0.004500       -0.002746
     2 C        0.178683        0.005433       -0.002835        0.002597
     3 C        0.021322        0.005723       -0.007057       -0.001334
     4 C       -0.258792        0.001733       -0.004258       -0.002525
     5 H        0.231344        0.000115       -0.000251       -0.000136
     6 C       -0.240523        0.001470       -0.001337        0.000133
     7 H        0.232289        0.000009       -0.000017       -0.000008
     8 C       -0.212529        0.002466       -0.006777       -0.004312
     9 H        0.231379        0.000001       -0.000007       -0.000007
    10 C       -0.326175        0.000488       -0.000908       -0.000420
    11 H        0.215184        0.000026       -0.000074       -0.000048
    12 C        0.160389        0.003138       -0.005767       -0.002629
    13 C       -0.284453        0.001147       -0.002192       -0.001045
    14 H        0.214853        0.000009       -0.000096       -0.000087
    15 C       -0.219019        0.001976       -0.000601        0.001376
    16 H        0.227451        0.000025       -0.000028       -0.000003
    17 C       -0.215370        0.001943       -0.001035        0.000908
    18 H        0.230182        0.000000       -0.000002       -0.000002
    19 C       -0.321688        0.000556       -0.001545       -0.000989
    20 H        0.214589        0.000028       -0.000069       -0.000040
    21 C        0.132348        0.002989       -0.000884        0.002105
    22 C        0.140512        0.000148       -0.002429       -0.002281
    23 C       -0.314541        0.000429       -0.000721       -0.000292
    24 H        0.246701       -0.000005       -0.000011       -0.000016
    25 C        0.072911        0.000075       -0.002808       -0.002733
    26 C       -0.005828        0.000010       -0.000313       -0.000303
    27 N       -0.159461        0.000042       -0.001158       -0.001117
    28 C        0.151735        0.000087       -0.002662       -0.002575
    29 C       -0.291526        0.000606       -0.000841       -0.000236
    30 H        0.281287        0.000031       -0.000099       -0.000068
    31 C        0.080864        0.000308       -0.002187       -0.001879
    32 C       -0.006282        0.000055       -0.000264       -0.000209
    33 N       -0.159269        0.000211       -0.000909       -0.000698
    34 H        0.211141        0.000028       -0.000047       -0.000019
    35 H        0.207225        0.000015       -0.000020       -0.000005
    36 C       -0.228853        0.004584       -0.008361       -0.003777
    37 C       -0.189782        0.060165       -0.020053        0.040111
    38 C       -0.294441        0.052866       -0.039906        0.012960
    39 H        0.267319        0.000004        0.000262        0.000266
    40 C       -0.344793        0.011072       -0.044010       -0.032938
    41 H        0.209188        0.000041       -0.000173       -0.000132
    42 C        0.320763        0.028953       -0.025236        0.003717
    43 C        0.175300        0.033155       -0.007770        0.025385
    44 N       -0.583147        0.122307       -0.008899        0.113408
    45 C        0.186400        0.034596       -0.012283        0.022313
    46 C        0.324564        0.032716       -0.018741        0.013975
    47 H        0.208877        0.000009       -0.000048       -0.000039
    48 C       -0.349777        0.011313       -0.047100       -0.035786
    49 C       -0.278664        0.057461       -0.044398        0.013063
    50 C       -0.179346        0.063201       -0.014817        0.048383
    51 C       -0.239910        0.003220       -0.013037       -0.009818
    52 H        0.245778        0.000069        0.000076        0.000145
    53 H        0.209961        0.000038       -0.000046       -0.000009
    54 H        0.213916        0.000074       -0.000010        0.000064
    55 C       -0.236437        0.001282       -0.001044        0.000238
    56 C       -0.648205        0.001204       -0.000781        0.000423
    57 C       -0.583538        0.006389       -0.001279        0.005110
    58 C        0.120293        0.065709       -0.125962       -0.060253
    59 C       -0.251642        0.086343       -0.126821       -0.040478
    60 C       -0.306644        0.056898       -0.059717       -0.002819
    61 C        0.014138        0.074185       -0.119772       -0.045587
    62 C        0.202767        0.083810       -0.112068       -0.028258
    63 C       -0.279956        0.065830       -0.075599       -0.009769
    64 H        0.285095        0.000083       -0.000533       -0.000449
    65 H        0.239803        0.000041       -0.000096       -0.000055
    66 H        0.219573        0.000372       -0.000290        0.000082
    67 C       -0.517530        0.001638       -0.004149       -0.002511
    68 C       -0.549662        0.001531       -0.003437       -0.001906
    69 H        0.247997        0.000423       -0.001069       -0.000646
    70 H        0.250932        0.003458       -0.006784       -0.003325
    71 H        0.256860        0.000264       -0.000275       -0.000010
    72 H        0.253316        0.000579       -0.000345        0.000234
    73 H        0.226213       -0.000096       -0.000375       -0.000471
    74 H        0.219413        0.000469       -0.000080        0.000389
    75 H        0.221518        0.000397       -0.000107        0.000290
    76 H        0.241942        0.000232       -0.000078        0.000153
    77 H        0.224437        0.000028       -0.000064       -0.000036
    78 H        0.224645        0.000021       -0.000016        0.000005
    --------------------------------------------------------------------
    Sum:       -0.000000        1.000000       -1.000000       -0.000000
    
    Exciton analysis of the difference density matrix
      <r_h> [Ang]:                  [  1.655953,  -8.303973,   1.416694]
      <r_e> [Ang]:                  [  1.161706,  -7.824795,   1.051016]
      |<r_e - r_h>| [Ang]:            0.779495
      Hole size [Ang]:                3.126340
        Cartesian components [Ang]: [  2.014484,   1.839363,   1.527285]
      Electron size [Ang]:            3.207439
        Cartesian components [Ang]: [  2.011033,   1.989774,   1.511361]

  Excited state   6:
  ------------------
    NOs
      Occupation of frontier NOs:
         0.7511   1.2489
      Number of electrons: 316.000000
      Number of unpaired electrons: n_u =  2.00000, n_u,nl =  1.89572
      NO participation ratio (PR_NO):  3.430083
    
    
    Mulliken Population Analysis
    Atom      Charge (e)              h+              e-           Del q
    --------------------------------------------------------------------
     1 C       -0.423724        0.000753       -0.011611       -0.010858
     2 C        0.218667        0.056957       -0.014375        0.042582
     3 C        0.066616        0.046249       -0.002289        0.043960
     4 C       -0.261804        0.004991       -0.010528       -0.005537
     5 H        0.230966        0.000039       -0.000553       -0.000514
     6 C       -0.211583        0.037297       -0.008224        0.029073
     7 H        0.232286        0.000003       -0.000014       -0.000011
     8 C       -0.192658        0.016943       -0.001384        0.015559
     9 H        0.231371        0.000006       -0.000021       -0.000014
    10 C       -0.322808        0.013818       -0.010872        0.002946
    11 H        0.215202        0.000005       -0.000035       -0.000030
    12 C        0.193213        0.035935       -0.005740        0.030195
    13 C       -0.302494        0.002920       -0.022005       -0.019086
    14 H        0.214900        0.000016       -0.000055       -0.000039
    15 C       -0.170755        0.053444       -0.003804        0.049640
    16 H        0.227382        0.000003       -0.000075       -0.000072
    17 C       -0.199322        0.032149       -0.015194        0.016956
    18 H        0.230185        0.000004       -0.000003        0.000001
    19 C       -0.325663        0.011261       -0.016226       -0.004964
    20 H        0.214478        0.000007       -0.000159       -0.000152
    21 C        0.179840        0.052873       -0.003276        0.049596
    22 C        0.079339        0.041806       -0.105260       -0.063455
    23 C       -0.227633        0.106690       -0.020074        0.086616
    24 H        0.246299        0.000011       -0.000428       -0.000417
    25 C       -0.051957        0.020608       -0.148210       -0.127602
    26 C       -0.019255        0.004206       -0.017936       -0.013730
    27 N       -0.204349        0.016041       -0.062045       -0.046005
    28 C        0.064432        0.022428       -0.112306       -0.089879
    29 C       -0.189164        0.121566       -0.019440        0.102126
    30 H        0.281007        0.000145       -0.000493       -0.000348
    31 C        0.001217        0.056519       -0.138045       -0.081526
    32 C       -0.015627        0.011931       -0.021485       -0.009554
    33 N       -0.177119        0.043963       -0.062511       -0.018548
    34 H        0.211212        0.000139       -0.000088        0.000052
    35 H        0.207235        0.000005        0.000001        0.000005
    36 C       -0.225931        0.000610       -0.001465       -0.000855
    37 C       -0.221195        0.009730       -0.001032        0.008698
    38 C       -0.302724        0.008418       -0.003741        0.004677
    39 H        0.267046        0.000001       -0.000008       -0.000007
    40 C       -0.315222        0.000998       -0.004365       -0.003368
    41 H        0.209313        0.000007       -0.000013       -0.000007
    42 C        0.320198        0.003975       -0.000823        0.003152
    43 C        0.155122        0.007203       -0.001995        0.005208
    44 N       -0.671705        0.025621       -0.000772        0.024849
    45 C        0.163460        0.011087       -0.011715       -0.000628
    46 C        0.319249        0.012462       -0.003802        0.008660
    47 H        0.208918        0.000005       -0.000002        0.000002
    48 C       -0.336026        0.003135       -0.025172       -0.022036
    49 C       -0.299227        0.015314       -0.022814       -0.007500
    50 C       -0.209889        0.020769       -0.002929        0.017840
    51 C       -0.241010        0.001736       -0.012653       -0.010917
    52 H        0.245582        0.000007       -0.000058       -0.000051
    53 H        0.209970        0.000004       -0.000003        0.000000
    54 H        0.213860        0.000009       -0.000000        0.000009
    55 C       -0.236688        0.000377       -0.000390       -0.000013
    56 C       -0.648556        0.000340       -0.000268        0.000072
    57 C       -0.587939        0.001774       -0.001064        0.000710
    58 C        0.180464        0.003229       -0.003310       -0.000081
    59 C       -0.212019        0.010821       -0.011676       -0.000855
    60 C       -0.304087        0.010275       -0.010537       -0.000261
    61 C        0.061152        0.004060       -0.002633        0.001426
    62 C        0.229358        0.013072       -0.014739       -0.001667
    63 C       -0.265324        0.015524       -0.010661        0.004863
    64 H        0.285555        0.000043       -0.000032        0.000011
    65 H        0.239854        0.000008       -0.000012       -0.000004
    66 H        0.219456        0.000080       -0.000116       -0.000035
    67 C       -0.518066        0.002029       -0.005075       -0.003046
    68 C       -0.550288        0.001589       -0.004122       -0.002533
    69 H        0.248831        0.000432       -0.000244        0.000188
    70 H        0.254269        0.000159       -0.000147        0.000012
    71 H        0.253248        0.002809       -0.006431       -0.003622
    72 H        0.253224        0.000259       -0.000117        0.000141
    73 H        0.226554       -0.000026       -0.000105       -0.000131
    74 H        0.219114        0.000107       -0.000016        0.000091
    75 H        0.221251        0.000141       -0.000118        0.000023
    76 H        0.241817        0.000064       -0.000036        0.000028
    77 H        0.224487        0.000007        0.000006        0.000013
    78 H        0.224615        0.000005       -0.000030       -0.000025
    --------------------------------------------------------------------
    Sum:       -0.000000        1.000000       -1.000000       -0.000000
    
    Exciton analysis of the difference density matrix
      <r_h> [Ang]:                  [  0.106205,  -3.964830,   1.251482]
      <r_e> [Ang]:                  [ -0.938409,  -3.157281,   0.506528]
      |<r_e - r_h>| [Ang]:            1.516019
      Hole size [Ang]:                4.061724
        Cartesian components [Ang]: [  2.148508,   2.871968,   1.906125]
      Electron size [Ang]:            4.101963
        Cartesian components [Ang]: [  1.949890,   3.178433,   1.709267]

  ----------------------------------------------------------------------------
                 Transition Density Matrix Analysis
  ----------------------------------------------------------------------------

  Excited state   1:
  ------------------
    Atomic CT numbers
      omega =     1.0000
    
    Exciton analysis of the transition density matrix
      <r_h> [Ang]:                        [ -1.606360,  -2.040318,  -0.063165]
      <r_e> [Ang]:                        [ -1.731657,  -1.866128,  -0.148337]
      |<r_e - r_h>| [Ang]:                  0.230859
      Hole size [Ang]:                      2.717824
        Cartesian components [Ang]:       [  1.457350,   2.003737,   1.117019]
      Electron size [Ang]:                  2.438609
        Cartesian components [Ang]:       [  1.377246,   1.749912,   0.993889]
      RMS electron-hole separation [Ang]:   3.390027
        Cartesian components [Ang]:       [  1.873851,   2.439794,   1.424210]
      Covariance(r_h, r_e) [Ang^2]:         0.947194
      Correlation coefficient:              0.142914
      Center-of-mass size [Ang]:            1.951138
        Cartesian components [Ang]:       [  1.066036,   1.434578,   0.782620]

  Excited state   2:
  ------------------
    Atomic CT numbers
      omega =     1.0000
    
    Exciton analysis of the transition density matrix
      <r_h> [Ang]:                        [  2.850245,  -9.213292,   2.105496]
      <r_e> [Ang]:                        [ -1.667911,  -1.955994,  -0.056366]
      |<r_e - r_h>| [Ang]:                  8.817922
      Hole size [Ang]:                      2.943659
        Cartesian components [Ang]:       [  1.949273,   1.724539,   1.375292]
      Electron size [Ang]:                  2.694001
        Cartesian components [Ang]:       [  1.459353,   1.922967,   1.195879]
      RMS electron-hole separation [Ang]:   9.676947
        Cartesian components [Ang]:       [  5.132639,   7.701762,   2.825273]
      Covariance(r_h, r_e) [Ang^2]:         0.017610
      Correlation coefficient:              0.002221
      Center-of-mass size [Ang]:            1.997373
        Cartesian components [Ang]:       [  1.217426,   1.293725,   0.913042]

  Excited state   3:
  ------------------
    Atomic CT numbers
      omega =     1.0000
    
    Exciton analysis of the transition density matrix
      <r_h> [Ang]:                        [  1.430926,  -4.005114,   2.446023]
      <r_e> [Ang]:                        [  1.393596,  -3.930465,   2.396881]
      |<r_e - r_h>| [Ang]:                  0.096855
      Hole size [Ang]:                      2.745653
        Cartesian components [Ang]:       [  1.785932,   0.985159,   1.838074]
      Electron size [Ang]:                  2.832317
        Cartesian components [Ang]:       [  1.884154,   0.943318,   1.892653]
      RMS electron-hole separation [Ang]:   3.256747
        Cartesian components [Ang]:       [  2.087309,   1.318601,   2.123872]
      Covariance(r_h, r_e) [Ang^2]:         2.481803
      Correlation coefficient:              0.319139
      Center-of-mass size [Ang]:            2.265184
        Cartesian components [Ang]:       [  1.510274,   0.704918,   1.534021]

  Excited state   4:
  ------------------
    Atomic CT numbers
      omega =     1.0000
    
    Exciton analysis of the transition density matrix
      <r_h> [Ang]:                        [  3.059484,  -9.444831,   2.276315]
      <r_e> [Ang]:                        [  3.113783,  -9.469969,   2.377894]
      |<r_e - r_h>| [Ang]:                  0.117892
      Hole size [Ang]:                      2.831296
        Cartesian components [Ang]:       [  1.953097,   1.499415,   1.397642]
      Electron size [Ang]:                  3.019355
        Cartesian components [Ang]:       [  2.078990,   1.620938,   1.472027]
      RMS electron-hole separation [Ang]:   3.316822
        Cartesian components [Ang]:       [  2.207823,   1.825151,   1.672019]
      Covariance(r_h, r_e) [Ang^2]:         3.072665
      Correlation coefficient:              0.359431
      Center-of-mass size [Ang]:            2.412368
        Cartesian components [Ang]:       [  1.688346,   1.266967,   1.167819]

  Excited state   5:
  ------------------
    Atomic CT numbers
      omega =     1.0000
    
    Exciton analysis of the transition density matrix
      <r_h> [Ang]:                        [  1.655953,  -8.303973,   1.416694]
      <r_e> [Ang]:                        [  1.161706,  -7.824795,   1.051016]
      |<r_e - r_h>| [Ang]:                  0.779495
      Hole size [Ang]:                      3.126340
        Cartesian components [Ang]:       [  2.014484,   1.839363,   1.527285]
      Electron size [Ang]:                  3.207439
        Cartesian components [Ang]:       [  2.011033,   1.989774,   1.511361]
      RMS electron-hole separation [Ang]:   3.566914
        Cartesian components [Ang]:       [  2.175273,   2.194863,   1.781471]
      Covariance(r_h, r_e) [Ang^2]:         3.973205
      Correlation coefficient:              0.396229
      Center-of-mass size [Ang]:            2.646133
        Cartesian components [Ang]:       [  1.711525,   1.588797,   1.244357]

  Excited state   6:
  ------------------
    Atomic CT numbers
      omega =     1.0000
    
    Exciton analysis of the transition density matrix
      <r_h> [Ang]:                        [  0.106205,  -3.964830,   1.251482]
      <r_e> [Ang]:                        [ -0.938409,  -3.157281,   0.506528]
      |<r_e - r_h>| [Ang]:                  1.516019
      Hole size [Ang]:                      4.061724
        Cartesian components [Ang]:       [  2.148508,   2.871968,   1.906125]
      Electron size [Ang]:                  4.101963
        Cartesian components [Ang]:       [  1.949890,   3.178433,   1.709267]
      RMS electron-hole separation [Ang]:   4.240613
        Cartesian components [Ang]:       [  2.545417,   2.535702,   2.252524]
      Covariance(r_h, r_e) [Ang^2]:         8.819607
      Correlation coefficient:              0.529355
      Center-of-mass size [Ang]:            3.569416
        Cartesian components [Ang]:       [  1.691774,   2.780450,   1.465512]


  ----------------------------------------------------------------------------
                              SA-NTO Decomposition
  ----------------------------------------------------------------------------

  Excited state   1:
  ------------------
    Decomposition into state-averaged NTOs
      H- 2 -> L+ 0:  0.6420 ( 82.4%)
      H- 1 -> L+ 0: -0.1584 (  5.0%)
      H- 3 -> L+ 7:  0.1287 (  3.3%)
      H-12 -> L+12: -0.0934 (  1.7%)
      H- 0 -> L+ 0:  0.0833 (  1.4%)
                     omega = 100.0%

  Excited state   2:
  ------------------
    Decomposition into state-averaged NTOs
      H- 0 -> L+ 0: -0.6988 ( 97.7%)
                     omega = 100.0%

  Excited state   3:
  ------------------
    Decomposition into state-averaged NTOs
      H- 1 -> L+ 2:  0.4033 ( 32.5%)
      H- 1 -> L+ 1: -0.2926 ( 17.1%)
      H- 1 -> L+ 3: -0.2484 ( 12.3%)
      H- 3 -> L+ 2: -0.1880 (  7.1%)
      H- 7 -> L+ 6:  0.1468 (  4.3%)
      H- 8 -> L+10:  0.1415 (  4.0%)
      H- 9 -> L+11:  0.1395 (  3.9%)
      H- 1 -> L+ 0: -0.1354 (  3.7%)
      H- 3 -> L+ 1:  0.1340 (  3.6%)
      H- 3 -> L+ 3:  0.1224 (  3.0%)
                     omega = 100.0%

  Excited state   4:
  ------------------
    Decomposition into state-averaged NTOs
      H- 0 -> L+ 1: -0.5278 ( 55.7%)
      H- 0 -> L+ 2: -0.3488 ( 24.3%)
      H- 6 -> L+ 8: -0.1605 (  5.1%)
      H-10 -> L+ 9:  0.1154 (  2.7%)
      H-11 -> L+ 8: -0.0804 (  1.3%)
      H-11 -> L+ 5: -0.0764 (  1.2%)
                     omega = 100.0%

  Excited state   5:
  ------------------
    Decomposition into state-averaged NTOs
      H- 0 -> L+ 3:  0.4377 ( 38.3%)
      H- 0 -> L+ 2:  0.2371 ( 11.2%)
      H- 4 -> L+ 4: -0.2159 (  9.3%)
      H- 5 -> L+ 4:  0.1594 (  5.1%)
      H- 4 -> L+ 3: -0.1462 (  4.3%)
      H- 0 -> L+ 1: -0.1441 (  4.2%)
      H- 5 -> L+ 5: -0.1337 (  3.6%)
      H- 4 -> L+ 5: -0.1176 (  2.8%)
      H- 1 -> L+ 4: -0.1101 (  2.4%)
      H- 6 -> L+ 1:  0.0990 (  2.0%)
      H- 5 -> L+ 3: -0.0957 (  1.8%)
      H- 1 -> L+ 0:  0.0857 (  1.5%)
      H- 6 -> L+ 9: -0.0815 (  1.3%)
      H- 0 -> L+ 4: -0.0749 (  1.1%)
      H- 5 -> L+ 2: -0.0727 (  1.1%)
                     omega = 100.0%

  Excited state   6:
  ------------------
    Decomposition into state-averaged NTOs
      H- 1 -> L+ 0: -0.5276 ( 55.7%)
      H- 3 -> L+ 0: -0.2534 ( 12.8%)
      H- 0 -> L+ 3:  0.1358 (  3.7%)
      H- 2 -> L+ 0: -0.1345 (  3.6%)
      H- 2 -> L+ 7: -0.1268 (  3.2%)
      H- 0 -> L+ 5: -0.1201 (  2.9%)
      H- 0 -> L+ 4:  0.0985 (  1.9%)
      H- 0 -> L+ 2:  0.0947 (  1.8%)
      H- 1 -> L+ 6: -0.0931 (  1.7%)
      H- 3 -> L+ 6:  0.0822 (  1.4%)
      H- 1 -> L+ 2: -0.0777 (  1.2%)
                     omega = 100.0%

================================================================================
 
 --------------------------------------------------------------
 
                    Orbital Energies (a.u.)
 --------------------------------------------------------------
 
 Alpha MOs
 -- Occupied --
-14.680 -14.663 -14.660 -10.530 -10.528 -10.514 -10.511 -10.505
-10.505 -10.502 -10.499 -10.496 -10.493 -10.491 -10.491 -10.488
-10.481 -10.479 -10.477 -10.477 -10.475 -10.474 -10.470 -10.469
-10.468 -10.468 -10.468 -10.467 -10.467 -10.466 -10.465 -10.465
-10.465 -10.464 -10.463 -10.450 -10.449 -10.442 -10.442 -10.441
-10.440 -10.440 -10.436 -10.435 -10.433 -10.429 -10.426  -1.097
 -1.041  -1.030  -1.020  -1.002  -0.988  -0.969  -0.959  -0.955
 -0.938  -0.935  -0.909  -0.902  -0.892  -0.885  -0.860  -0.857
 -0.848  -0.847  -0.835  -0.826  -0.818  -0.808  -0.795  -0.777
 -0.771  -0.747  -0.732  -0.728  -0.714  -0.713  -0.706  -0.690
 -0.683  -0.679  -0.673  -0.668  -0.666  -0.646  -0.617  -0.615
 -0.614  -0.611  -0.600  -0.588  -0.582  -0.572  -0.566  -0.562
 -0.541  -0.539  -0.536  -0.533  -0.531  -0.527  -0.524  -0.521
 -0.518  -0.512  -0.509  -0.504  -0.503  -0.500  -0.497  -0.492
 -0.490  -0.488  -0.485  -0.485  -0.473  -0.468  -0.461  -0.452
 -0.449  -0.445  -0.442  -0.441  -0.439  -0.438  -0.436  -0.434
 -0.429  -0.428  -0.427  -0.421  -0.421  -0.418  -0.415  -0.412
 -0.410  -0.403  -0.400  -0.399  -0.398  -0.396  -0.393  -0.375
 -0.374  -0.366  -0.350  -0.336  -0.326  -0.313  -0.306  -0.303
 -0.300  -0.289  -0.285  -0.282  -0.271  -0.219
 -- Virtual --
 -0.079  -0.041  -0.029  -0.016  -0.012  -0.005   0.013   0.016
  0.019   0.034   0.044   0.048   0.057   0.057   0.075   0.108
  0.113   0.119   0.128   0.130   0.132   0.138   0.148   0.149
  0.153   0.156   0.161   0.164   0.167   0.177   0.177   0.181
  0.186   0.190   0.192   0.197   0.199   0.201   0.203   0.207
  0.210   0.213   0.216   0.222   0.223   0.227   0.228   0.231
  0.236   0.236   0.241   0.242   0.245   0.250   0.252   0.253
  0.256   0.260   0.265   0.266   0.269   0.272   0.276   0.279
  0.287   0.291   0.293   0.296   0.298   0.303   0.305   0.307
  0.314   0.318   0.328   0.331   0.337   0.339   0.347   0.358
  0.359   0.369   0.373   0.377   0.381   0.384   0.393   0.399
  0.400   0.410   0.415   0.423   0.426   0.440   0.446   0.453
  0.457   0.464   0.468   0.474   0.477   0.479   0.485   0.490
  0.500   0.502   0.504   0.511   0.514   0.518   0.519   0.521
  0.522   0.527   0.531   0.533   0.538   0.539   0.545   0.547
  0.553   0.554   0.559   0.564   0.565   0.568   0.569   0.573
  0.573   0.579   0.582   0.582   0.584   0.590   0.595   0.595
  0.597   0.600   0.604   0.607   0.613   0.615   0.618   0.619
  0.622   0.624   0.625   0.630   0.632   0.634   0.634   0.642
  0.644   0.646   0.649   0.654   0.657   0.664   0.666   0.668
  0.671   0.675   0.678   0.681   0.687   0.690   0.693   0.697
  0.701   0.703   0.707   0.711   0.714   0.716   0.718   0.723
  0.726   0.732   0.736   0.742   0.746   0.747   0.753   0.756
  0.760   0.763   0.765   0.774   0.778   0.783   0.789   0.797
  0.804   0.810   0.814   0.820   0.826   0.830   0.833   0.842
  0.844   0.850   0.860   0.871   0.875   0.882   0.888   0.900
  0.907   0.908   0.919   0.921   0.926   0.934   0.940   0.941
  0.944   0.948   0.950   0.953   0.960   0.964   0.967   0.967
  0.969   0.973   0.979   0.981   0.987   0.992   0.994   1.000
  1.003   1.007   1.010   1.011   1.012   1.013   1.023   1.025
  1.030   1.035   1.041   1.043   1.047   1.051   1.053   1.056
  1.061   1.066   1.068   1.071   1.075   1.080   1.083   1.092
  1.093   1.098   1.103   1.105   1.109   1.115   1.122   1.124
  1.126   1.129   1.137   1.138   1.144   1.147   1.149   1.154
  1.160   1.167   1.176   1.178   1.187   1.189   1.199   1.206
  1.212   1.214   1.220   1.223   1.232   1.235   1.255   1.270
  1.274   1.275   1.281   1.285   1.296   1.302   1.306   1.310
  1.313   1.319   1.321   1.330   1.335   1.338   1.343   1.349
  1.354   1.362   1.364   1.373   1.378   1.386   1.392   1.399
  1.410   1.416   1.420   1.427   1.432   1.451   1.468   1.474
  1.479   1.493   1.499   1.502   1.505   1.515   1.517   1.525
  1.530   1.535   1.538   1.541   1.546   1.552   1.553   1.554
  1.560   1.564   1.571   1.572   1.576   1.583   1.591   1.594
  1.600   1.602   1.605   1.616   1.618   1.627   1.633   1.643
  1.651   1.666   1.669   1.676   1.695   1.703   1.710   1.733
  1.736   1.737   1.753   1.763   1.775   1.778   1.780   1.790
  1.800   1.807   1.812   1.822   1.827   1.832   1.834   1.839
  1.841   1.850   1.855   1.862   1.868   1.871   1.883   1.885
  1.893   1.901   1.909   1.922   1.924   1.929   1.938   1.944
  1.950   1.953   1.956   1.968   1.972   1.980   1.984   1.992
  1.997   2.003   2.011   2.015   2.020   2.021   2.028   2.037
  2.043   2.048   2.054   2.055   2.059   2.071   2.075   2.078
  2.087   2.094   2.102   2.112   2.128   2.135   2.140   2.143
  2.148   2.153   2.155   2.164   2.170   2.173   2.173   2.177
  2.185   2.191   2.198   2.200   2.211   2.218   2.222   2.229
  2.234   2.243   2.250   2.260   2.262   2.265   2.267   2.273
  2.277   2.286   2.289   2.296   2.301   2.306   2.308   2.314
  2.318   2.332   2.332   2.340   2.345   2.352   2.357   2.364
  2.369   2.371   2.375   2.378   2.386   2.390   2.399   2.407
  2.408   2.414   2.433   2.438   2.450   2.465   2.470   2.488
  2.491   2.508   2.511   2.521   2.531   2.537   2.550   2.571
  2.580   2.588   2.594   2.611   2.613   2.630   2.643   2.649
  2.655   2.669   2.680   2.685   2.689   2.696   2.705   2.711
  2.718   2.724   2.729   2.735   2.737   2.740   2.749   2.755
  2.764   2.767   2.772   2.775   2.776   2.793   2.798   2.814
  2.820   2.824   2.827   2.831   2.840   2.847   2.857   2.863
  2.872   2.880   2.892   2.894   2.898   2.917   2.922   2.942
  2.947   2.970   2.976   2.979   2.984   3.014   3.018   3.031
  3.033   3.054   3.061   3.078   3.141   3.214   3.274   3.310
  3.361   3.369   3.377   3.394   3.405   3.491   3.558   3.566
  3.588   3.644  13.198  13.251  13.263  13.336  13.363  13.419
 13.623  13.659  13.670  13.690  13.720  13.732  13.759  13.770
 13.778  13.809  13.817  13.836  13.887  13.910  13.918  13.979
 14.064  14.122  14.131  14.166  14.176  14.194  14.196  14.213
 14.222  14.246  14.254  14.270  14.272  14.283  14.319  14.389
 14.545  14.571  14.577  14.585  14.600  14.606  19.484  19.543
 19.632
 --------------------------------------------------------------
 
 -----------------------------------------------------------------
                    Cartesian Multipole Moments
 -----------------------------------------------------------------
    Charge (ESU x 10^10)
                -0.0000
    Dipole Moment (Debye)
         X       0.6151      Y      -6.5949      Z       1.6765
       Tot       6.8324
    Quadrupole Moments (Debye-Ang)
        XX    -256.9205     XY      19.1175     YY    -256.3177
        XZ      -2.3641     YZ       4.8374     ZZ    -258.9262
    Octopole Moments (Debye-Ang^2)
       XXX    -763.6896    XXY    1458.3923    XYY    -357.4563
       YYY    4684.5423    XXZ    -333.9760    XYZ     -19.8162
       YYZ    -381.5550    XZZ    -302.8822    YZZ    1568.5488
       ZZZ   -1083.6192
    Hexadecapole Moments (Debye-Ang^3)
      XXXX  -12645.9647   XXXY    9129.2979   XXYY  -14311.3947
      XYYY    9070.1514   YYYY  -76243.3034   XXXZ   -2313.9986
      XXYZ    2810.4582   XYYZ    -432.6792   YYYZ    8569.1544
      XXZZ   -3568.0302   XYZZ    3306.6109   YYZZ  -14194.0919
      XZZZ   -2472.7209   YZZZ    9045.4897   ZZZZ   -8096.2714
 -----------------------------------------------------------------
 -----------------------------------------------------------------
               TDA Excited-State Multipoles, State  1
 -----------------------------------------------------------------
    Charge (ESU x 10^10)
                -0.0000
    Dipole Moment (Debye)
         X       1.2169      Y      -7.4316      Z       2.0856
       Tot       7.8140
    Quadrupole Moments (Debye-Ang)
        XX    -257.8388     XY      16.5152     YY    -248.4730
        XZ      -2.0959     YZ       2.4782     ZZ    -257.7643
    Octopole Moments (Debye-Ang^2)
       XXX    -751.0038    XXY    1454.8975    XYY    -339.9035
       YYY    4615.5354    XXZ    -332.0887    XYZ     -23.2301
       YYZ    -363.8748    XZZ    -301.7678    YZZ    1561.0679
       ZZZ   -1079.1149
    Hexadecapole Moments (Debye-Ang^3)
      XXXX  -12648.6321   XXXY    9072.4629   XXYY  -14253.8165
      XYYY    8919.1391   YYYY  -75599.3170   XXXZ   -2308.4782
      XXYZ    2797.8891   XYYZ    -399.0992   YYYZ    8409.0363
      XXZZ   -3566.0710   XYZZ    3297.2720   YYZZ  -14134.5492
      XZZZ   -2469.7159   YZZZ    9017.2958   ZZZZ   -8076.6886
 -----------------------------------------------------------------
 -----------------------------------------------------------------
               TDA Excited-State Multipoles, State  2
 -----------------------------------------------------------------
    Charge (ESU x 10^10)
                -0.0000
    Dipole Moment (Debye)
         X      22.3167      Y     -41.4532      Z      12.0604
       Tot      48.5989
    Quadrupole Moments (Debye-Ang)
        XX    -223.2408     XY    -116.3139     YY     129.5480
        XZ      18.6407     YZ     -90.9063     ZZ    -235.4326
    Octopole Moments (Debye-Ang^2)
       XXX    -414.1951    XXY     995.0793    XYY     808.3354
       YYY     708.5048    XXZ    -237.5450    XYZ    -244.8652
       YYZ     612.8575    XZZ    -236.5328    YZZ    1275.1272
       ZZZ    -987.4760
    Hexadecapole Moments (Debye-Ang^3)
      XXXX  -11419.1116   XXXY    6716.7535   XXYY  -10059.7589
      XYYY   -1579.1735   YYYY  -35686.0893   XXXZ   -1970.6103
      XXYZ    2043.7065   XYYZ    1717.4888   YYYZ   -1808.8231
      XXZZ   -3406.9567   XYZZ    2721.0498   YYZZ  -10992.0981
      XZZZ   -2302.2315   YZZZ    7959.6026   ZZZZ   -7736.7693
 -----------------------------------------------------------------
 -----------------------------------------------------------------
               TDA Excited-State Multipoles, State  3
 -----------------------------------------------------------------
    Charge (ESU x 10^10)
                -0.0000
    Dipole Moment (Debye)
         X       0.7944      Y      -6.9535      Z       1.9125
       Tot       7.2553
    Quadrupole Moments (Debye-Ang)
        XX    -258.1455     XY      18.3991     YY    -253.0848
        XZ      -3.2709     YZ       3.5689     ZZ    -258.7611
    Octopole Moments (Debye-Ang^2)
       XXX    -765.7118    XXY    1460.8601    XYY    -353.0636
       YYY    4657.4845    XXZ    -337.6485    XYZ     -17.7498
       YYZ    -374.7939    XZZ    -308.1495    YZZ    1565.8166
       ZZZ   -1084.8109
    Hexadecapole Moments (Debye-Ang^3)
      XXXX  -12674.7538   XXXY    9136.8798   XXYY  -14316.2613
      XYYY    9042.6862   YYYY  -76018.4277   XXXZ   -2328.9049
      XXYZ    2823.1435   XYYZ    -436.4971   YYYZ    8532.4360
      XXZZ   -3585.6107   XYZZ    3323.7317   YYZZ  -14175.2377
      XZZZ   -2498.3763   YZZZ    9041.5340   ZZZZ   -8115.6124
 -----------------------------------------------------------------
 -----------------------------------------------------------------
               TDA Excited-State Multipoles, State  4
 -----------------------------------------------------------------
    Charge (ESU x 10^10)
                -0.0000
    Dipole Moment (Debye)
         X       0.3543      Y      -6.4742      Z       1.1886
       Tot       6.5919
    Quadrupole Moments (Debye-Ang)
        XX    -260.9687     XY      20.6977     YY    -260.4229
        XZ      -3.1306     YZ      11.2124     ZZ    -262.2223
    Octopole Moments (Debye-Ang^2)
       XXX    -790.6586    XXY    1489.4639    XYY    -368.4177
       YYY    4762.3534    XXZ    -341.1901    XYZ     -10.0651
       YYZ    -461.3411    XZZ    -307.7624    YZZ    1606.5544
       ZZZ   -1099.2108
    Hexadecapole Moments (Debye-Ang^3)
      XXXX  -12817.4759   XXXY    9344.3164   XXYY  -14563.7830
      XYYY    9167.4548   YYYY  -77446.6076   XXXZ   -2357.3772
      XXYZ    2884.1751   XYYZ    -554.5872   YYYZ    9542.8800
      XXZZ   -3594.9210   XYZZ    3364.0450   YYZZ  -14632.8361
      XZZZ   -2494.0463   YZZZ    9222.7681   ZZZZ   -8168.1507
 -----------------------------------------------------------------
 -----------------------------------------------------------------
               TDA Excited-State Multipoles, State  5
 -----------------------------------------------------------------
    Charge (ESU x 10^10)
                -0.0000
    Dipole Moment (Debye)
         X       2.9891      Y      -8.8965      Z       3.4329
       Tot       9.9934
    Quadrupole Moments (Debye-Ang)
        XX    -250.1647     XY      -1.1421     YY    -221.9623
        XZ       0.8437     YZ     -12.5627     ZZ    -254.3594
    Octopole Moments (Debye-Ang^2)
       XXX    -726.0786    XXY    1397.7683    XYY    -180.7122
       YYY    4270.3341    XXZ    -324.7951    XYZ     -49.5384
       YYZ    -206.3619    XZZ    -295.7359    YZZ    1519.4313
       ZZZ   -1064.1928
    Hexadecapole Moments (Debye-Ang^3)
      XXXX  -12459.5043   XXXY    8835.0738   XXYY  -13801.6582
      XYYY    7516.8056   YYYY  -71589.1804   XXXZ   -2282.2502
      XXYZ    2739.8080   XYYZ    -165.4798   YYYZ    6783.5883
      XXZZ   -3558.6515   XYZZ    3242.1846   YYZZ  -13668.0532
      XZZZ   -2455.7689   YZZZ    8844.0258   ZZZZ   -8017.2545
 -----------------------------------------------------------------
 -----------------------------------------------------------------
               TDA Excited-State Multipoles, State  6
 -----------------------------------------------------------------
    Charge (ESU x 10^10)
                -0.0000
    Dipole Moment (Debye)
         X       5.6326      Y     -10.4737      Z       5.2547
       Tot      13.0014
    Quadrupole Moments (Debye-Ang)
        XX    -257.1862     XY       5.6420     YY    -237.5986
        XZ      -2.1157     YZ      -7.0183     ZZ    -249.2172
    Octopole Moments (Debye-Ang^2)
       XXX    -708.7993    XXY    1424.2018    XYY    -288.1567
       YYY    4591.8252    XXZ    -321.8044    XYZ     -27.9278
       YYZ    -337.8324    XZZ    -300.4158    YZZ    1528.4184
       ZZZ   -1036.7960
    Hexadecapole Moments (Debye-Ang^3)
      XXXX  -12607.2599   XXXY    8971.8725   XXYY  -14125.4167
      XYYY    8694.2718   YYYY  -75882.2371   XXXZ   -2315.0169
      XXYZ    2786.4574   XYYZ    -409.0415   YYYZ    8477.4180
      XXZZ   -3565.8845   XYZZ    3314.9167   YYZZ  -14067.2617
      XZZZ   -2496.1805   YZZZ    8872.6292   ZZZZ   -7888.2674
 -----------------------------------------------------------------
Archival summary:
1\1\ctcp007\SP\ProcedureUnspecified\BasisUnspecified\34431\mewes\FriMar1202:18:432021FriMar1202:18:432021\0\\#,ProcedureUnspecified,BasisUnspecified,\\0,1\N\C,1,1.37384\C,1,1.37384,2,122.136\C,2,1.40906,1,119.332,3,163.32,0\H,4,1.07904,2,120.152,1,-0.0167745,0\C,4,1.37266,2,119.855,1,-178.437,0\H,6,1.08031,4,119.665,2,179.212,0\C,6,1.39084,4,119.861,2,0.0490425,0\H,8,1.08095,6,120.155,4,179.554,0\C,8,1.3887,6,120.256,4,-0.389228,0\H,10,1.0798,8,118.264,6,-179.303,0\C,10,1.38256,8,121.585,6,0.255864,0\C,3,1.40947,1,120.186,2,-165.723,0\H,13,1.07859,3,121.134,1,-3.27052,0\C,13,1.37206,3,119.756,1,174.578,0\H,15,1.07979,13,119.06,3,-177.723,0\C,15,1.39082,13,120.018,3,1.36994,0\H,17,1.0809,15,120.195,13,-179.205,0\C,17,1.38996,15,120.218,13,1.68141,0\H,19,1.07964,17,118.413,15,177.589,0\C,19,1.38086,17,121.505,15,-1.80931,0\C,1,1.43809,2,117.887,3,-177.295,0\C,22,1.37276,1,119.865,2,104.292,0\H,23,1.08224,22,118.557,1,-0.838526,0\C,22,1.38469,1,118.912,2,-75.4274,0\H,25,1.08244,22,121.573,1,-0.728182,0\C,25,1.3767,22,117.089,1,177.876,0\H,27,1.08279,25,118.69,22,-177.321,0\C,23,1.39732,22,122.003,1,177.609,0\C,29,1.39935,23,117.302,22,6.47204,0\C,30,1.50096,29,124.017,23,170.171,0\H,31,1.09233,30,107.855,29,-160.332,0\H,31,1.09287,30,110.885,29,83.6144,0\C,12,1.50734,10,122.696,8,-172.937,0\C,34,1.52779,12,112.159,10,-30.6133,0\H,35,1.08805,34,111.064,12,175.546,0\H,35,1.08809,34,111.135,12,58.5662,0\H,35,1.08948,34,111.948,12,-62.8489,0\C,31,1.5287,30,112.122,29,-38.6791,0\H,39,1.09109,31,109.172,30,-152.981,0\H,39,1.09781,31,108.695,30,-38.2778,0\C,39,1.49669,31,110.323,30,87.2014,0\C,42,1.36854,39,118.43,31,118.143,0\H,43,1.08421,42,118.586,39,8.94142,0\C,43,1.40565,42,123.854,39,-168.647,0\C,45,1.3998,43,119.905,42,-179.472,0\N,46,1.16174,45,178.371,43,-10.3381,0\C,45,1.44112,43,116.672,42,2.64308,0\C,48,1.39623,45,118.808,43,-4.10246,0\H,49,1.08099,48,116.023,45,-176.58,0\C,49,1.38077,48,123.914,45,2.60597,0\C,48,1.40632,45,122.408,43,175.815,0\N,52,1.15935,48,178.774,45,178.446,0\C,51,1.52676,49,118.767,48,-167.429,0\C,54,1.52852,51,111.26,49,-24.1375,0\C,55,1.38151,54,127.123,51,-64.8185,0\H,56,1.08338,55,120.385,54,2.84789,0\C,56,1.38975,55,118.759,54,-179.627,0\H,58,1.08268,56,119.735,55,-177.693,0\C,58,1.39174,56,120.392,55,0.533485,0\H,60,1.08237,58,119.641,56,-178.955,0\C,60,1.38754,58,120.705,56,-0.319842,0\H,62,1.08271,60,120.231,58,-179.109,0\C,62,1.38788,60,118.89,58,-0.121995,0\C,64,1.46,62,131.482,60,-179.849,0\C,65,1.3856,64,130.812,62,2.31182,0\H,66,1.0829,65,120.908,64,-0.0617335,0\C,66,1.38755,65,118.788,64,179.005,0\H,68,1.08186,66,119.841,65,-179.233,0\C,68,1.39051,66,120.424,65,-0.179799,0\H,70,1.08226,68,119.622,66,-178.837,0\C,70,1.38849,68,120.791,66,0.219989,0\H,72,1.08189,70,120.202,68,-178.076,0\C,72,1.38213,70,118.866,68,0.0260295,0\C,34,1.55307,12,106.69,10,87.9378,0\H,75,1.09,34,110.095,12,178.706,0\H,75,1.0902,34,109.999,12,-61.6181,0\H,75,1.0903,34,112.294,12,58.5175,0\\\@

 Total job time:  12055.76s(wall), 21551.39s(cpu) 
 Fri Mar 12 02:18:43 2021

        *************************************************************
        *                                                           *
        *  Thank you very much for using Q-Chem.  Have a nice day.  *
        *                                                           *
        *************************************************************


0 sent ACK to 0 
now end server 0 ... 
