mFile = /cm/shared/apps/q-chem/intel/QCHEM_5.1.0_Trunk/bin/mpi/machines
Process 0 of 1 is on ctcp012 - thread support 0
initial socket setup ...start
initial socket setup ...done 
now start server 0 ... 
Q-Chem Developer Version!
                  Welcome to Q-Chem
     A Quantum Leap Into The Future Of Chemistry


 Q-Chem 5.1, Q-Chem, Inc., Pleasanton, CA (2018)

 Yihan Shao,  Zhengting Gan,  E. Epifanovsky,  A. T. B. Gilbert,  M. Wormit,  
 J. Kussmann,  A. W. Lange,  A. Behn,  Jia Deng,  Xintian Feng,  D. Ghosh,  
 M. Goldey,  P. R. Horn,  L. D. Jacobson,  I. Kaliman,  T. Kus,  A. Landau,  
 Jie Liu,  E. I. Proynov,  R. M. Richard,  R. P. Steele,  E. J. Sundstrom,  
 H. L. Woodcock III,  P. M. Zimmerman,  D. Zuev,  B. Albrecht,  E. Alguire,  
 S. A. Baeppler,  D. Barton,  Z. Benda,  Y. A. Bernard,  E. J. Berquist,  
 K. B. Bravaya,  H. Burton,  D. Casanova,  Chun-Min Chang,  Yunqing Chen,  
 A. Chien,  K. D. Closser,  M. P. Coons,  S. Coriani,  S. Dasgupta,  
 A. L. Dempwolff,  M. Diedenhofen,  Hainam Do,  R. G. Edgar,  Po-Tung Fang,  
 S. Faraji,  S. Fatehi,  Qingguo Feng,  K. D. Fenk,  J. Fosso-Tande,  
 Qinghui Ge,  A. Ghysels,  G. Gidofalvi,  J. Gomes,  J. Gonthier,  A. Gunina,  
 D. Hait,  M. W. D. Hanson-Heine,  P. H. P. Harbach,  A. W. Hauser,  
 J. E. Herr,  E. G. Hohenstein,  Z. C. Holden,  Kerwin Hui,  B. C. Huynh,  
 T.-C. Jagau,  Hyunjun Ji,  B. Kaduk,  K. Khistyaev,  Jaehoon Kim,  
 P. Klunzinger,  K. Koh,  D. Kosenkov,  L. Koulias,  T. Kowalczyk,  
 C. M. Krauter,  A. Kunitsa,  Ka Un Lao,  A. Laurent,  K. V. Lawler,  
 Joonho Lee,  D. Lefrancois,  S. Lehtola,  D. S. Levine,  Yi-Pei Li,  
 You-Sheng Lin,  Fenglai Liu,  E. Livshits,  A. Luenser,  P. Manohar,  
 E. Mansoor,  S. F. Manzer,  Shan-Ping Mao,  Yuezhi Mao,  N. Mardirossian,  
 A. V. Marenich,  T. Markovich,  L. A. Martinez-Martinez,  S. A. Maurer,  
 N. J. Mayhall,  S. C. McKenzie,  J.-M. Mewes,  A. F. Morrison,  
 J. W. Mullinax,  K. Nanda,  T. S. Nguyen-Beck,  R. Olivares-Amaya,  
 J. A. Parkhill,  T. M. Perrine,  F. Plasser,  P. Pokhilko,  S. Prager,  
 A. Prociuk,  E. Ramos,  D. R. Rehn,  F. Rob,  M. Schneider,  N. Sergueev,  
 S. M. Sharada,  S. Sharma,  D. W. Small,  T. Stauch,  T. Stein,  
 Yu-Chuan Su,  A. J. W. Thom,  A. Tkatchenko,  T. Tsuchimochi,  N. M. Tubman,  
 L. Vogt,  M. L. Vidal,  O. Vydrov,  M. A. Watson,  J. Wenzel,  
 M. de Wergifosse,  T. A. Wesolowski,  A. White,  J. Witte,  A. Yamada,  
 Jun Yang,  K. Yao,  S. Yeganeh,  S. R. Yost,  Zhi-Qiang You,  A. Zech,  
 Igor Ying Zhang,  Xing Zhang,  Yan Zhao,  Ying Zhu,  B. R. Brooks,  
 G. K. L. Chan,  C. J. Cramer,  M. S. Gordon,  W. J. Hehre,  A. Klamt,  
 M. W. Schmidt,  C. D. Sherrill,  D. G. Truhlar,  A. Aspuru-Guzik,  R. Baer,  
 A. T. Bell,  N. A. Besley,  Jeng-Da Chai,  A. E. DePrince, III,  
 R. A. DiStasio Jr.,  A. Dreuw,  B. D. Dunietz,  T. R. Furlani,  
 Chao-Ping Hsu,  Yousung Jung,  Jing Kong,  D. S. Lambrecht,  WanZhen Liang,  
 C. Ochsenfeld,  V. A. Rassolov,  L. V. Slipchenko,  J. E. Subotnik,  
 T. Van Voorhis,  J. M. Herbert,  A. I. Krylov,  P. M. W. Gill,  M. Head-Gordon

 Contributors to earlier versions of Q-Chem not listed above: 
 R. D. Adamson,  B. Austin,  J. Baker,  G. J. O. Beran,  K. Brandhorst,  
 S. T. Brown,  E. F. C. Byrd,  A. K. Chakraborty,  C.-L. Cheng,  
 Siu Hung Chien,  D. M. Chipman,  D. L. Crittenden,  H. Dachsel,  
 R. J. Doerksen,  A. D. Dutoi,  L. Fusti-Molnar,  W. A. Goddard III,  
 A. Golubeva-Zadorozhnaya,  S. R. Gwaltney,  G. Hawkins,  A. Heyden,  
 S. Hirata,  G. Kedziora,  F. J. Keil,  C. Kelley,  Jihan Kim,  R. A. King,  
 R. Z. Khaliullin,  P. P. Korambath,  W. Kurlancheek,  A. M. Lee,  M. S. Lee,  
 S. V. Levchenko,  Ching Yeh Lin,  D. Liotard,  R. C. Lochan,  I. Lotan,  
 P. E. Maslen,  N. Nair,  D. P. O'Neill,  D. Neuhauser,  E. Neuscamman,  
 C. M. Oana,  R. Olson,  B. Peters,  R. Peverati,  P. A. Pieniazek,  
 Y. M. Rhee,  J. Ritchie,  M. A. Rohrdanz,  E. Rosta,  N. J. Russ,  
 H. F. Schaefer III,  N. E. Schultz,  N. Shenvi,  A. C. Simmonett,  A. Sodt,  
 D. Stuck,  K. S. Thanthiriwatte,  V. Vanovschi,  Tao Wang,  A. Warshel,  
 C. F. Williams,  Q. Wu,  X. Xu,  W. Zhang

 Please cite Q-Chem as follows:
 Y. Shao et al., Mol. Phys. 113, 184-215 (2015)
 DOI: 10.1080/00268976.2014.952696

 Q-Chem 5.1.1 for Intel X86 EM64T Linux

 Parts of Q-Chem use Armadillo 8.300.2 (Tropical Shenanigans).
 http://arma.sourceforge.net/

 Q-Chem begins on Thu Nov 15 12:21:58 2018  

Host: ctcp012
0

     Scratch files written to /scratch/mewes/140429/qchem84942//
 Parallel job on  1  processors
The previous job contains 0 fragments, simply inherited here
Input Ideriv = 1
Curr. Ideriv = -1
Max.  Ideriv = 1

Checking the input file for inconsistencies... 	...done.

--------------------------------------------------------------
User input:
--------------------------------------------------------------
$rem
threads 8
jobtype	opt
method PBEh-3c
basis def2-mSVP
mem_static	1024
mem_total	10000
sym_ignore	true
cis_n_roots             2
cis_singlets            true
cis_triplets		false
rpa                     false
cis_state_deriv         1
$end


$molecule
read incoords.mol
$end

--------------------------------------------------------------
 Adding empirical dispersion correction 
 ----------------------------------------------------------------
 Doing -D3(BJ) with
 s6 =   1.00000
 s8 =   0.00000
 a1 =   0.48600
 a2 =   4.50000
 -D3 energy including 3body term =     -0.1331185155 hartrees
 ----------------------------------------------------------------
 Adding gCP correction 
 ----------------------------------------------------------------
 gCP energy =      0.1917081712 hartrees
 ----------------------------------------------------------------
             Standard Nuclear Orientation (Angstroms)
    I     Atom           X                Y                Z
 ----------------------------------------------------------------
    1      N       1.3594100000    -0.1356800000    -2.2364800000
    2      C       0.8966500000     1.2133000000    -2.0018000000
    3      C       1.8359100000     2.2047600000    -1.6392900000
    4      C       1.4221200000     3.5189900000    -1.3955700000
    5      H       2.1489500000     4.2735000000    -1.1220600000
    6      C       0.0747300000     3.8628000000    -1.4945200000
    7      H      -0.2397800000     4.8804200000    -1.3019100000
    8      C      -0.8693900000     2.8930400000    -1.8270500000
    9      H      -1.9166400000     3.1601100000    -1.8890300000
   10      C      -0.4710100000     1.5766300000    -2.0742000000
   11      H      -1.2401400000     0.8589200000    -2.3084300000
   12      C       2.7701100000    -0.4070700000    -2.0827600000
   13      C       3.3365100000    -1.6806100000    -2.3359900000
   14      H       2.7380100000    -2.5168100000    -2.6582600000
   15      C       4.7103400000    -1.8882600000    -2.1859200000
   16      H       5.1320300000    -2.8664300000    -2.3786500000
   17      C       5.5418000000    -0.8398600000    -1.7957600000
   18      H       6.6054800000    -1.0056900000    -1.6836200000
   19      C       5.0057000000     0.4259200000    -1.5642300000
   20      H       5.6587500000     1.2401400000    -1.2760800000
   21      C       3.6325200000     0.6492100000    -1.7111400000
   22      C       0.4423100000    -1.1743900000    -2.6200400000
   23      C       0.3602900000    -2.3585800000    -1.8795100000
   24      H       0.9883100000    -2.4713600000    -1.0038500000
   25      C      -0.5411700000    -3.3781000000    -2.2264600000
   26      C      -0.3816900000    -1.0097200000    -3.7373300000
   27      H      -0.2990500000    -0.0977000000    -4.3165000000
   28      C      -1.2830400000    -2.0076800000    -4.1364000000
   29      C      -1.3756100000    -3.2106600000    -3.3723900000
   30      C      -2.1038500000    -1.7511800000    -5.3969900000
   31      H      -3.1873800000    -1.8401900000    -5.1925700000
   32      H      -1.9394200000    -0.7107700000    -5.7533200000
   33      C      -1.7026600000    -2.6610600000    -6.5604200000
   34      C      -0.5976900000    -4.6072100000    -1.3257800000
   35      H       0.2140200000    -4.5606700000    -0.5671600000
   36      H      -0.4295100000    -5.5346500000    -1.9050100000
   37      C      -1.9056800000    -4.6999500000    -0.5369400000
   38      H      -2.7888600000    -4.8181200000    -1.1908700000
   39      H      -1.8664900000    -5.5824600000     0.1358000000
   40      H      -2.0395300000    -3.7883800000     0.0836000000
   41      B      -2.4079900000    -4.3471700000    -3.7971000000
   42      C      -3.9695500000    -4.0877300000    -3.6853200000
   43      C      -4.4398500000    -2.8821400000    -3.1106000000
   44      H      -3.7619800000    -2.1179100000    -2.7540000000
   45      C      -5.8084500000    -2.6882300000    -2.9989100000
   46      C      -6.7125000000    -3.6455000000    -3.4237900000
   47      C      -6.2920500000    -4.8439200000    -3.9815000000
   48      H      -7.0267500000    -5.5762000000    -4.2893300000
   49      C      -4.9024000000    -5.0758000000    -4.1242400000
   50      C      -6.5770000000    -1.5663000000    -2.4587600000
   51      C      -6.2156300000    -0.3415600000    -1.8957600000
   52      H      -5.1755300000    -0.0625300000    -1.7894900000
   53      C      -7.8968100000    -1.8995000000    -2.5835900000
   54      C      -8.9403100000    -1.0915600000    -2.1823800000
   55      C      -8.0559400000    -3.1318300000    -3.1535800000
   56      C      -9.3368200000    -3.6450800000    -3.3619200000
   57      H      -9.4804200000    -4.6187700000    -3.8116200000
   58      C      -7.2508600000     0.5265900000    -1.4670800000
   59      H      -6.9996500000     1.4826700000    -1.0269000000
   60      C      -8.6161000000     0.1537800000    -1.6093000000
   61      H      -9.3974400000     0.8259200000    -1.2775100000
   62      C     -10.2492100000    -1.5746900000    -2.3764200000
   63      H     -11.1039000000    -0.9801800000    -2.0790700000
   64      C     -10.4446400000    -2.8536800000    -2.9672900000
   65      H     -11.4493100000    -3.2267100000    -3.1169800000
   66      C      -1.8961500000    -5.7303000000    -4.3869600000
   67      C      -0.5067000000    -5.9651800000    -4.5232000000
   68      H       0.2283200000    -5.2325700000    -4.2178400000
   69      C      -0.0859700000    -7.1685100000    -5.0701400000
   70      C      -0.9897300000    -8.1253000000    -5.4969000000
   71      C      -2.3587100000    -7.9265400000    -5.3976700000
   72      H      -3.0351600000    -8.6894200000    -5.7589900000
   73      C      -2.8301700000    -6.7195800000    -4.8274800000
   74      C       1.2580300000    -7.6882200000    -5.3264200000
   75      C       2.5389400000    -7.1785100000    -5.1095100000
   76      H       2.6821700000    -6.2027800000    -4.6641600000
   77      C       1.0995100000    -8.9235400000    -5.8900700000
   78      C       2.1436500000    -9.7379600000    -6.2764200000
   79      C      -0.2203600000    -9.2528900000    -6.0243600000
   80      C      -0.5810200000   -10.4802000000    -6.5822700000
   81      H      -1.6210900000   -10.7565700000    -6.6954500000
   82      C       3.6473500000    -7.9765600000    -5.4888800000
   83      H       4.6520300000    -7.6065100000    -5.3319800000
   84      C       3.4525300000    -9.2585300000    -6.0733600000
   85      H       4.3076700000    -9.8582800000    -6.3587100000
   86      C       1.8201000000   -10.9860000000    -6.8439500000
   87      H       2.6019600000   -11.6632800000    -7.1639000000
   88      C       0.4548700000   -11.3549000000    -6.9958800000
   89      H       0.2042000000   -12.3131900000    -7.4315300000
   90      B      -4.3931800000    -6.4504600000    -4.7320400000
   91      C      -5.4366300000    -7.5184200000    -5.2880700000
   92      C      -6.2055500000    -7.2265700000    -6.4557700000
   93      C      -7.1282400000    -8.1741700000    -6.9235500000
   94      H      -7.7087300000    -7.9649200000    -7.8142100000
   95      C      -7.2967300000    -9.4061100000    -6.2846700000
   96      C      -6.5352900000    -9.6959300000    -5.1475800000
   97      H      -6.6854100000   -10.6450000000    -4.6468800000
   98      C      -5.6148900000    -8.7714900000    -4.6277400000
   99      N      -8.2435100000   -10.3617400000    -6.7913200000
  100      C      -9.6292600000   -10.0019600000    -6.9866200000
  101      C     -10.5211600000   -10.9705400000    -7.4994100000
  102      C     -11.8717400000   -10.6599400000    -7.6920200000
  103      H     -12.5477500000   -11.4068200000    -8.0889600000
  104      C     -12.3562400000    -9.3936600000    -7.3673400000
  105      H     -13.4026600000    -9.1601400000    -7.5157100000
  106      C     -11.4962900000    -8.4329100000    -6.8381200000
  107      H     -11.8786100000    -7.4552100000    -6.5739100000
  108      C     -10.1447400000    -8.7283200000    -6.6410700000
  109      H      -9.5234800000    -7.9594800000    -6.2113300000
  110      C      -7.8354300000   -11.7056800000    -7.1295600000
  111      C      -8.8012900000   -12.6068900000    -7.6318200000
  112      C      -8.4396000000   -13.9124000000    -7.9812300000
  113      H      -9.1865200000   -14.5974100000    -8.3624100000
  114      C      -7.1178800000   -14.3357300000    -7.8499900000
  115      H      -6.8434600000   -15.3459300000    -8.1250900000
  116      C      -6.1470200000   -13.4538400000    -7.3783100000
  117      H      -5.1190400000   -13.7815700000    -7.2909500000
  118      C      -6.4934600000   -12.1470100000    -7.0244900000
  119      H      -5.7046100000   -11.4966600000    -6.6836100000
  120      C      -4.8730700000    -9.1554200000    -3.3519000000
  121      H      -5.0943700000   -10.2123100000    -3.0862500000
  122      H      -3.7775900000    -9.0929000000    -3.4916900000
  123      C      -5.3054400000    -8.3189600000    -2.1456600000
  124      C      -6.0601900000    -5.9334400000    -7.2529100000
  125      H      -6.8333500000    -5.8892600000    -8.0508700000
  126      H      -6.2276700000    -5.0479900000    -6.6115200000
  127      C      -4.7119700000    -5.8272300000    -7.9694400000
  128      H      -3.8585900000    -5.7912900000    -7.2685300000
  129      H      -4.5769400000    -6.6919700000    -8.6533900000
  130      H      -4.6887500000    -4.8940300000    -8.5707700000
  131      H      -5.0724100000    -7.2454000000    -2.2678700000
  132      H      -4.7712700000    -8.6770300000    -1.2404600000
  133      H      -6.3979200000    -8.4310200000    -1.9786500000
  134      H      -0.6256200000    -2.5240100000    -6.7949900000
  135      H      -2.2971100000    -2.3915600000    -7.4587400000
  136      H      -1.8874700000    -3.7296300000    -6.3487700000
  137      O     -10.0850200000   -12.2153400000    -7.7969900000
  138      O       3.1451900000     1.8940900000    -1.5080300000
 ----------------------------------------------------------------
 Nuclear Repulsion Energy = 12514.6132605428 hartrees
 There are      276 alpha and      276 beta electrons
 Requested basis set is def2-mSVP
 There are 686 shells and 1342 basis functions

 Total QAlloc Memory Limit  10000 MB
 Mega-Array Size      1001 MB
 MEM_STATIC part      1024 MB
 A cutoff of  1.0D-11 yielded  62672 shell pairs
 There are    246918 function pairs (    271930 Cartesian)
 
 -------------------------------------------------------
 OpenMP Integral Computing Module                       
 Release: version 1.0, May 2013, Q-Chem Inc. Pittsburgh 
 -------------------------------------------------------
 Integral Job Info:
 Integral job number is                      11
 Integral operator is                         1
 short-range coefficients                     0
 long-range coefficients              100000000
 Omega coefficients                           0
 if combine SR and LR in K                    0
 Integral screening is                        0
 Integral computing path is                   2
 max size of driver memory is            800000
 size of driver memory is                593474
 size of scratch memory is              1809772
 max col of scratch BK array               1296
 max len of scratch array in speh3          155
 max len of scratch index in speh4           18
 max int batch size is                      520
 min int batch size is                       52
 fixed nKL is                                52
 max L of basis functions is                  2
 order of int derivative is                   0
 number of shells is                        686
 number of basis is                        1424
 number of cartesian basis is              1424
 number of contracted shell pairs         62672
 number of primitive shell pairs         129114
 maxK2 (contraction) of shell pair           25
 max number of K2 of shell pair               1
 max number of CS2 of shell pair          15363
 max number of PS2 of shell pair          22355
 mem total for path MDJ                 1143708
 -------------------------------------------------------
 Smallest overlap matrix eigenvalue = 1.76E-04

 Scale SEOQF with 1.000000e-02/1.000000e-02/1.000000e-02

 Standard Electronic Orientation quadrupole field applied
 Nucleus-field energy     =     0.0000001175 hartrees
 Guess from superposition of atomic densities
 Warning:  Energy on first SCF cycle will be non-variational
 SAD guess density has 552.000001 electrons

 -----------------------------------------------------------------------
  General SCF calculation program by
  Eric Jon Sundstrom, Paul Horn, Yuezhi Mao, Dmitri Zuev, Alec White,
  David Stuck, Shaama M.S., Shane Yost, Joonho Lee, David Small,
  Daniel Levine, Susi Lehtola, Hugh Burton, Evgeny Epifanovsky
 -----------------------------------------------------------------------
 Exchange:     0.4200 Hartree-Fock + 0.5800 PBEh-3c
 Correlation:  1.0000 PBEh-3c
 Using SG-1 standard quadrature grid
 Dispersion:   Grimme D3
 using 8 threads for integral computing
 -------------------------------------------------------
 OpenMP Integral computing Module                
 Release: version 2.0, May 2017, Q-Chem Inc. Pleasanton 
 -------------------------------------------------------
 -------------------------------------------------------
 OpenMP BLAS3 based DFT computing Module                
 Release: version 1.0, May 2013, Q-Chem Inc. Pittsburgh 
 -------------------------------------------------------
 A restricted SCF calculation will be
 performed using DIIS
 SCF converges when DIIS error is below 1.0e-08
 ---------------------------------------
  Cycle       Energy         DIIS error
 ---------------------------------------
    1   -3258.4742164593      2.29e-02  
    2   -3231.7817486431      1.63e-03  
    3   -3231.7108530891      1.78e-03  
    4   -3232.3799308322      5.74e-04  
    5   -3232.4586435514      1.68e-04  
    6   -3232.4642363430      7.75e-05  
    7   -3232.4656519900      1.78e-05  
    8   -3232.4657215742      7.02e-06  
    9   -3232.4657333868      2.40e-06  
   10   -3232.4657350450      9.29e-07  
   11   -3232.4657353365      2.98e-07  
   12   -3232.4657353658      1.44e-07  
   13   -3232.4657353723      4.21e-08  
   14   -3232.4657353729      1.51e-08  
   15   -3232.4657353730      7.44e-09  Convergence criterion met
 ---------------------------------------
 SCF time:   CPU 13053.08s  wall 1638.00s 
 SCF   energy in the final basis set =    -3232.4657353730
 Total energy in the final basis set =    -3232.4657353730
 
 Direct TDDFT/TDA calculation will be performed
 Exchange:     0.4200 Hartree-Fock + 0.5800 PBEh-3c
 Correlation:  1.0000 PBEh-3c
 Using SG-1 standard quadrature grid
 Dispersion:   Grimme D3
 Singlet excitation energies requested
 CIS energy converged when residual is below 10e- 6
 ---------------------------------------------------
 Iter    Rts Conv    Rts Left    Ttl Dev     Max Dev
 ---------------------------------------------------
   1         0           2      0.000038    0.000019
   2         0           2      0.000035    0.000018
   3         0           2      0.000011    0.000007
   4         0           2      0.000005    0.000003
   5         1           1      0.000002    0.000001
   6         2           0      0.000001    0.000001    Roots Converged
 ---------------------------------------------------
 
 ---------------------------------------------------
         TDDFT/TDA Excitation Energies              
 ---------------------------------------------------

 Excited state   1: excitation energy (eV) =    2.3856
 Total energy for state  1:                 -3232.37806640 au
    Multiplicity: Singlet
    Trans. Mom.:  0.0046 X   0.0666 Y  -0.0139 Z
    Strength   :     0.0002715512
    D(276) --> V(  1) amplitude =  0.9843

 Excited state   2: excitation energy (eV) =    2.3915
 Total energy for state  2:                 -3232.37784817 au
    Multiplicity: Singlet
    Trans. Mom.: -0.6299 X  -0.6679 Y  -0.2996 Z
    Strength   :     0.0546419023
    D(275) --> V(  1) amplitude =  0.9874
 
 ---------------------------------------------------
 Calculating Relaxed Density
 ---------------------------------------------------
 Iter    Rts Conv    Rts Left    Ttl Dev     Max Dev
 ---------------------------------------------------
   1         0           2      0.000278    0.000139
   2         0           2      0.000094    0.000047
   3         0           2      0.000041    0.000021
   4         0           2      0.000011    0.000006
   5         0           2      0.000006    0.000003
   6         2           0      0.000000    0.000000    Roots Converged
 ---------------------------------------------------
  SETman timing summary (seconds)
  CPU time             15372.16s
  System time              0.00s
  Wall time             2278.24s
 
 --------------------------------------------------------------
 
                    Orbital Energies (a.u.)
 --------------------------------------------------------------
 
 Alpha MOs
 -- Occupied --
-19.549 -19.549 -14.689 -14.689 -10.522 -10.522 -10.522 -10.522
-10.508 -10.508 -10.508 -10.508 -10.497 -10.497 -10.472 -10.472
-10.472 -10.472 -10.471 -10.471 -10.471 -10.471 -10.470 -10.470
-10.470 -10.470 -10.467 -10.467 -10.467 -10.467 -10.467 -10.467
-10.463 -10.463 -10.462 -10.462 -10.462 -10.462 -10.462 -10.462
-10.461 -10.461 -10.460 -10.460 -10.453 -10.453 -10.453 -10.453
-10.452 -10.452 -10.452 -10.452 -10.450 -10.449 -10.449 -10.449
-10.448 -10.448 -10.448 -10.448 -10.447 -10.447 -10.447 -10.447
-10.446 -10.446 -10.446 -10.446 -10.446 -10.445 -10.445 -10.445
-10.443 -10.443 -10.443 -10.442 -10.432 -10.432 -10.431 -10.431
 -6.966  -6.966  -1.219  -1.219  -1.064  -1.064  -1.027  -1.027
 -0.968  -0.967  -0.965  -0.962  -0.958  -0.957  -0.935  -0.935
 -0.931  -0.931  -0.912  -0.905  -0.891  -0.890  -0.870  -0.868
 -0.864  -0.864  -0.854  -0.854  -0.851  -0.851  -0.850  -0.850
 -0.827  -0.826  -0.826  -0.822  -0.821  -0.810  -0.809  -0.808
 -0.807  -0.807  -0.787  -0.787  -0.738  -0.735  -0.735  -0.735
 -0.731  -0.724  -0.724  -0.723  -0.710  -0.710  -0.706  -0.706
 -0.694  -0.685  -0.682  -0.682  -0.679  -0.666  -0.660  -0.654
 -0.651  -0.651  -0.647  -0.647  -0.636  -0.635  -0.632  -0.631
 -0.601  -0.600  -0.596  -0.592  -0.587  -0.587  -0.584  -0.577
 -0.574  -0.569  -0.568  -0.563  -0.560  -0.553  -0.551  -0.547
 -0.542  -0.540  -0.536  -0.536  -0.536  -0.532  -0.531  -0.528
 -0.528  -0.526  -0.519  -0.514  -0.508  -0.506  -0.504  -0.502
 -0.501  -0.500  -0.499  -0.499  -0.499  -0.496  -0.496  -0.496
 -0.495  -0.493  -0.491  -0.491  -0.491  -0.489  -0.488  -0.483
 -0.479  -0.478  -0.476  -0.473  -0.469  -0.460  -0.456  -0.452
 -0.450  -0.450  -0.443  -0.441  -0.440  -0.440  -0.437  -0.437
 -0.434  -0.434  -0.433  -0.431  -0.430  -0.429  -0.429  -0.428
 -0.427  -0.425  -0.418  -0.418  -0.415  -0.415  -0.409  -0.409
 -0.404  -0.402  -0.402  -0.399  -0.397  -0.395  -0.394  -0.393
 -0.392  -0.391  -0.389  -0.389  -0.387  -0.386  -0.385  -0.385
 -0.383  -0.368  -0.368  -0.365  -0.360  -0.353  -0.347  -0.347
 -0.318  -0.312  -0.303  -0.303  -0.301  -0.301  -0.300  -0.300
 -0.290  -0.285  -0.284  -0.283  -0.283  -0.270  -0.269  -0.262
 -0.257  -0.253  -0.211  -0.210
 -- Virtual --
 -0.095  -0.066  -0.043  -0.040  -0.010  -0.006  -0.002   0.002
  0.002   0.002   0.009   0.009   0.011   0.021   0.021   0.026
  0.028   0.039   0.057   0.057   0.064   0.075   0.079   0.083
  0.110   0.112   0.114   0.115   0.136   0.138   0.142   0.142
  0.146   0.147   0.149   0.152   0.153   0.154   0.156   0.157
  0.162   0.164   0.173   0.174   0.176   0.179   0.181   0.181
  0.186   0.187   0.187   0.188   0.192   0.192   0.193   0.193
  0.195   0.195   0.197   0.202   0.202   0.203   0.205   0.207
  0.207   0.208   0.211   0.212   0.213   0.213   0.216   0.216
  0.217   0.220   0.220   0.221   0.223   0.225   0.226   0.228
  0.228   0.234   0.235   0.238   0.239   0.240   0.241   0.243
  0.246   0.247   0.250   0.251   0.252   0.255   0.255   0.255
  0.256   0.259   0.261   0.263   0.263   0.264   0.264   0.268
  0.270   0.271   0.272   0.274   0.279   0.280   0.283   0.283
  0.284   0.286   0.288   0.290   0.291   0.296   0.296   0.298
  0.298   0.299   0.306   0.310   0.311   0.315   0.317   0.322
  0.323   0.332   0.333   0.337   0.341   0.345   0.346   0.352
  0.355   0.356   0.357   0.361   0.362   0.362   0.367   0.369
  0.369   0.373   0.373   0.377   0.385   0.397   0.400   0.409
  0.413   0.413   0.417   0.426   0.428   0.428   0.430   0.431
  0.435   0.435   0.442   0.443   0.445   0.459   0.460   0.460
  0.462   0.477   0.478   0.479   0.482   0.482   0.486   0.491
  0.492   0.493   0.496   0.496   0.501   0.505   0.505   0.511
  0.511   0.511   0.512   0.518   0.518   0.520   0.522   0.523
  0.523   0.526   0.527   0.528   0.529   0.530   0.532   0.534
  0.535   0.540   0.541   0.543   0.548   0.551   0.552   0.555
  0.555   0.559   0.560   0.561   0.562   0.563   0.564   0.567
  0.568   0.572   0.572   0.573   0.574   0.575   0.576   0.576
  0.576   0.580   0.583   0.585   0.586   0.588   0.589   0.590
  0.590   0.592   0.592   0.596   0.598   0.599   0.603   0.603
  0.603   0.604   0.605   0.608   0.609   0.611   0.612   0.614
  0.615   0.615   0.616   0.616   0.617   0.620   0.621   0.621
  0.621   0.622   0.624   0.627   0.627   0.628   0.629   0.632
  0.633   0.634   0.634   0.635   0.640   0.640   0.644   0.644
  0.646   0.647   0.647   0.650   0.651   0.652   0.654   0.656
  0.657   0.661   0.661   0.663   0.671   0.671   0.673   0.676
  0.676   0.679   0.685   0.685   0.687   0.689   0.690   0.692
  0.693   0.698   0.698   0.699   0.700   0.705   0.706   0.707
  0.712   0.714   0.719   0.720   0.722   0.724   0.726   0.727
  0.728   0.733   0.736   0.739   0.741   0.744   0.748   0.749
  0.749   0.753   0.754   0.759   0.761   0.762   0.773   0.774
  0.775   0.778   0.779   0.782   0.784   0.791   0.796   0.800
  0.802   0.804   0.807   0.810   0.811   0.817   0.824   0.827
  0.834   0.836   0.837   0.843   0.847   0.854   0.862   0.865
  0.867   0.870   0.876   0.876   0.880   0.885   0.889   0.891
  0.898   0.900   0.901   0.902   0.904   0.909   0.912   0.918
  0.921   0.924   0.925   0.933   0.935   0.937   0.937   0.941
  0.945   0.946   0.947   0.948   0.952   0.954   0.957   0.958
  0.960   0.962   0.963   0.969   0.973   0.973   0.973   0.973
  0.980   0.981   0.983   0.984   0.990   0.991   0.992   0.992
  0.993   0.994   0.995   0.996   0.999   1.001   1.002   1.005
  1.007   1.014   1.015   1.016   1.017   1.018   1.020   1.021
  1.024   1.027   1.028   1.030   1.032   1.034   1.034   1.036
  1.038   1.042   1.043   1.044   1.046   1.047   1.047   1.048
  1.052   1.053   1.054   1.057   1.067   1.068   1.068   1.073
  1.074   1.076   1.082   1.087   1.088   1.089   1.093   1.094
  1.100   1.102   1.103   1.106   1.110   1.114   1.116   1.117
  1.117   1.119   1.121   1.128   1.131   1.132   1.138   1.140
  1.143   1.144   1.148   1.150   1.150   1.153   1.157   1.159
  1.161   1.163   1.165   1.167   1.178   1.181   1.182   1.188
  1.194   1.204   1.206   1.209   1.212   1.214   1.214   1.219
  1.221   1.223   1.226   1.230   1.247   1.251   1.254   1.256
  1.260   1.265   1.268   1.270   1.273   1.275   1.278   1.283
  1.283   1.288   1.291   1.295   1.297   1.298   1.300   1.301
  1.307   1.308   1.308   1.315   1.317   1.317   1.318   1.320
  1.323   1.325   1.326   1.329   1.334   1.342   1.344   1.344
  1.347   1.349   1.352   1.354   1.368   1.370   1.371   1.376
  1.377   1.379   1.381   1.385   1.396   1.402   1.403   1.406
  1.408   1.408   1.413   1.416   1.420   1.422   1.425   1.430
  1.434   1.437   1.440   1.440   1.442   1.445   1.448   1.455
  1.457   1.462   1.470   1.471   1.477   1.480   1.485   1.485
  1.490   1.495   1.495   1.499   1.505   1.506   1.507   1.509
  1.509   1.509   1.519   1.522   1.522   1.522   1.523   1.525
  1.526   1.531   1.532   1.534   1.535   1.537   1.545   1.549
  1.550   1.550   1.553   1.559   1.560   1.561   1.566   1.570
  1.571   1.577   1.578   1.579   1.581   1.588   1.598   1.606
  1.609   1.614   1.616   1.618   1.622   1.628   1.632   1.636
  1.638   1.648   1.652   1.658   1.665   1.682   1.683   1.691
  1.696   1.705   1.712   1.716   1.719   1.734   1.736   1.740
  1.741   1.744   1.748   1.751   1.755   1.763   1.769   1.783
  1.790   1.791   1.797   1.807   1.809   1.811   1.812   1.817
  1.819   1.820   1.821   1.821   1.822   1.825   1.827   1.832
  1.837   1.837   1.842   1.846   1.852   1.859   1.860   1.863
  1.867   1.872   1.872   1.874   1.874   1.877   1.878   1.881
  1.892   1.892   1.901   1.902   1.902   1.911   1.918   1.925
  1.928   1.929   1.932   1.938   1.939   1.948   1.957   1.961
  1.962   1.965   1.965   1.972   1.972   1.973   1.979   1.984
  1.987   1.987   1.990   1.992   1.994   1.995   1.999   2.000
  2.005   2.012   2.012   2.019   2.028   2.031   2.036   2.038
  2.038   2.042   2.043   2.050   2.057   2.057   2.059   2.059
  2.071   2.072   2.075   2.084   2.089   2.096   2.096   2.106
  2.108   2.110   2.115   2.116   2.119   2.119   2.127   2.131
  2.135   2.135   2.137   2.142   2.143   2.145   2.152   2.152
  2.154   2.156   2.158   2.158   2.160   2.167   2.173   2.173
  2.174   2.181   2.184   2.185   2.191   2.208   2.222   2.223
  2.223   2.226   2.226   2.232   2.233   2.238   2.241   2.241
  2.245   2.246   2.251   2.253   2.256   2.261   2.265   2.269
  2.271   2.273   2.273   2.275   2.283   2.285   2.286   2.286
  2.290   2.292   2.292   2.294   2.313   2.314   2.315   2.320
  2.322   2.324   2.325   2.326   2.328   2.329   2.333   2.333
  2.337   2.338   2.338   2.339   2.343   2.346   2.347   2.348
  2.349   2.350   2.355   2.358   2.358   2.364   2.365   2.367
  2.372   2.372   2.374   2.377   2.388   2.390   2.392   2.401
  2.402   2.404   2.404   2.408   2.409   2.411   2.413   2.420
  2.424   2.425   2.427   2.428   2.443   2.445   2.455   2.461
  2.462   2.471   2.475   2.477   2.481   2.486   2.492   2.495
  2.505   2.506   2.510   2.516   2.531   2.538   2.540   2.543
  2.563   2.567   2.567   2.582   2.590   2.598   2.598   2.604
  2.604   2.604   2.637   2.638   2.640   2.641   2.651   2.655
  2.655   2.657   2.664   2.666   2.670   2.681   2.690   2.691
  2.692   2.696   2.698   2.699   2.707   2.709   2.716   2.723
  2.724   2.725   2.727   2.729   2.731   2.738   2.740   2.746
  2.748   2.749   2.753   2.754   2.764   2.765   2.767   2.768
  2.768   2.769   2.778   2.780   2.781   2.781   2.785   2.789
  2.794   2.794   2.796   2.802   2.803   2.807   2.814   2.815
  2.827   2.834   2.838   2.842   2.850   2.854   2.860   2.860
  2.865   2.868   2.872   2.873   2.886   2.890   2.893   2.895
  2.897   2.906   2.913   2.925   2.929   2.932   2.939   2.967
  2.968   2.978   2.989   2.993   3.001   3.012   3.015   3.027
  3.066   3.067   3.068   3.076   3.084   3.094   3.104   3.129
  3.129   3.169   3.169   3.189   3.225   3.227   3.251   3.253
  3.391   3.391   3.399   3.413   3.437   3.454   3.466   3.472
  3.518   3.518   3.550   3.550   3.586   3.586   3.661   3.674
  9.497   9.656  13.135  13.170  13.238  13.238  13.284  13.284
 13.406  13.459  13.501  13.513  13.525  13.552  13.660  13.677
 13.693  13.694  13.699  13.699  13.700  13.700  13.722  13.750
 13.750  13.751  13.756  13.780  13.820  13.826  13.828  13.848
 13.853  13.879  13.895  13.931  13.980  13.987  13.997  14.006
 14.007  14.023  14.031  14.035  14.123  14.123  14.142  14.145
 14.147  14.147  14.147  14.167  14.169  14.188  14.191  14.194
 14.206  14.239  14.245  14.250  14.253  14.253  14.328  14.329
 14.337  14.359  14.462  14.469  14.523  14.523  14.538  14.544
 14.555  14.559  14.587  14.588  14.611  14.611  19.547  19.548
 25.801  25.801
 --------------------------------------------------------------
 
          Ground-State Mulliken Net Atomic Charges

     Atom                 Charge (a.u.)
  ----------------------------------------
      1 N                    -0.748674
      2 C                     0.293042
      3 C                     0.346570
      4 C                    -0.331858
      5 H                     0.237718
      6 C                    -0.229298
      7 H                     0.221015
      8 C                    -0.219337
      9 H                     0.217932
     10 C                    -0.320541
     11 H                     0.255842
     12 C                     0.293523
     13 C                    -0.320587
     14 H                     0.255889
     15 C                    -0.219237
     16 H                     0.217769
     17 C                    -0.229429
     18 H                     0.220995
     19 C                    -0.331778
     20 H                     0.237654
     21 C                     0.346829
     22 C                     0.336093
     23 C                    -0.362496
     24 H                     0.248073
     25 C                     0.071066
     26 C                    -0.362588
     27 H                     0.248737
     28 C                     0.065737
     29 C                    -0.216469
     30 C                    -0.533142
     31 H                     0.251050
     32 H                     0.228991
     33 C                    -0.647167
     34 C                    -0.532714
     35 H                     0.228924
     36 H                     0.248678
     37 C                    -0.646712
     38 H                     0.246513
     39 H                     0.219912
     40 H                     0.219902
     41 B                     0.677455
     42 C                    -0.179370
     43 C                    -0.384219
     44 H                     0.232973
     45 C                     0.101898
     46 C                     0.101964
     47 C                    -0.384754
     48 H                     0.232915
     49 C                    -0.179124
     50 C                     0.129752
     51 C                    -0.354359
     52 H                     0.218779
     53 C                     0.068977
     54 C                     0.242061
     55 C                     0.130203
     56 C                    -0.354367
     57 H                     0.218794
     58 C                    -0.225239
     59 H                     0.229461
     60 C                    -0.341054
     61 H                     0.223840
     62 C                    -0.341186
     63 H                     0.223875
     64 C                    -0.225267
     65 H                     0.229421
     66 C                    -0.179342
     67 C                    -0.383175
     68 H                     0.231861
     69 C                     0.102003
     70 C                     0.102050
     71 C                    -0.383646
     72 H                     0.232231
     73 C                    -0.179650
     74 C                     0.130012
     75 C                    -0.354119
     76 H                     0.218457
     77 C                     0.068893
     78 C                     0.242198
     79 C                     0.129574
     80 C                    -0.354087
     81 H                     0.218298
     82 C                    -0.225120
     83 H                     0.229286
     84 C                    -0.341166
     85 H                     0.223845
     86 C                    -0.341064
     87 H                     0.223815
     88 C                    -0.225054
     89 H                     0.229275
     90 B                     0.678302
     91 C                    -0.216490
     92 C                     0.064885
     93 C                    -0.361304
     94 H                     0.248531
     95 C                     0.334640
     96 C                    -0.361356
     97 H                     0.247792
     98 C                     0.070307
     99 N                    -0.748172
    100 C                     0.292726
    101 C                     0.346816
    102 C                    -0.331754
    103 H                     0.237650
    104 C                    -0.229408
    105 H                     0.221004
    106 C                    -0.219333
    107 H                     0.217920
    108 C                    -0.320257
    109 H                     0.255760
    110 C                     0.293484
    111 C                     0.346875
    112 C                    -0.331848
    113 H                     0.237681
    114 C                    -0.229326
    115 H                     0.220939
    116 C                    -0.219135
    117 H                     0.217619
    118 C                    -0.320412
    119 H                     0.255618
    120 C                    -0.532650
    121 H                     0.228975
    122 H                     0.249057
    123 C                    -0.646410
    124 C                    -0.532647
    125 H                     0.228965
    126 H                     0.250996
    127 C                    -0.647552
    128 H                     0.248633
    129 H                     0.220170
    130 H                     0.218808
    131 H                     0.246274
    132 H                     0.219890
    133 H                     0.219867
    134 H                     0.220059
    135 H                     0.218697
    136 H                     0.248587
    137 O                    -0.487418
    138 O                    -0.487285
  ----------------------------------------
  Sum of atomic charges =    -0.000000

 -----------------------------------------------------------------
                    Cartesian Multipole Moments
 -----------------------------------------------------------------
    Charge (ESU x 10^10)
                -0.0000
    Dipole Moment (Debye)
         X       0.0171      Y      -0.1163      Z       0.2434
       Tot       0.2703
    Quadrupole Moments (Debye-Ang)
        XX    -430.6503     XY     -41.3796     YY    -443.2050
        XZ      -9.5995     YZ       9.5100     ZZ    -485.7170
    Octopole Moments (Debye-Ang^2)
       XXX    4434.5269    XXY    2580.4627    XYY    1964.2498
       YYY    7077.8120    XXZ    1957.7454    XYZ     193.1156
       YYZ    1834.5819    XZZ    1731.5319    YZZ    2489.7788
       ZZZ    6384.0590
    Hexadecapole Moments (Debye-Ang^3)
      XXXX  -84974.8089   XXXY  -37586.4623   XXYY  -39986.2939
      XYYY  -40129.2692   YYYY -129687.2358   XXXZ  -25067.2409
      XXYZ  -14559.9163   XYYZ  -10785.7419   YYYZ  -39718.8692
      XXZZ  -27304.6309   XYZZ  -13766.3076   YYZZ  -33180.1957
      XZZZ  -28037.2523   YZZZ  -45734.2984   ZZZZ  -71052.3640
 -----------------------------------------------------------------
 Calculating analytic gradient of the CIS energy
 -9.496456799129035E-004 -9.496447416418634E-004
 -9.496479889828847E-004 -9.496424360136466E-004
 -9.496464886562316E-004 -9.496440242540322E-004
 -9.496142534518598E-004 -9.496761702405854E-004
 -9.496238142239272E-004 -9.496666065641931E-004
 -9.496410401604157E-004 -9.496494694311732E-004
 -9.496815826697643E-004 -9.496088399528775E-004
 -9.496625363355759E-004 -9.496278789135880E-004
 -9.496561896010178E-004 -9.496343082255305E-004
 -9.496250891846621E-004 -9.496653083177466E-004
 -9.496367237163663E-004 -9.496537001937325E-004
 -9.496411631459684E-004 -9.496493242655994E-004
 -9.496626006197504E-004 -9.496277991167986E-004
 -9.496527052745997E-004 -9.496377129384921E-004
 -9.496486243590665E-004 -9.496418331414212E-004
 -9.496741650342288E-004 -9.496162557640319E-004
 -9.496481754210066E-004 -9.496422501410077E-004
 -9.496502735060630E-004 -9.496402265549007E-004
 -9.496371557242018E-004 -9.496532582314430E-004
 -9.496482837830670E-004 -9.496421524773266E-004
 -9.496439232657368E-004 -9.496465334262121E-004
 -9.496037803209430E-004 -9.496866301078754E-004
 -9.496375495753612E-004 -9.496528699598099E-004
 -9.496410725105322E-004 -9.496494305914642E-004
 -9.496476764665282E-004 -9.496427399813119E-004
 -9.496371865760856E-004 -9.496532089023542E-004
 -9.496405740896521E-004 -9.496498621163061E-004
 -9.496516766924324E-004 -9.496387290540137E-004
 -9.496294237055953E-004 -9.496610078721627E-004
 -9.496499918948148E-004 -9.496405283382175E-004
 -9.496221241681407E-004 -9.496682692840139E-004
 -9.496265070039236E-004 -9.496639340597371E-004
 -9.496455881664770E-004 -9.496448973818041E-004
 -9.496312862641326E-004 -9.496591327447028E-004
 -9.496137455137272E-004 -9.496766739832317E-004
 -9.496310401644212E-004 -9.496594759942552E-004
 -9.496297941207166E-004 -9.496606286302198E-004
 -9.496530946413319E-004 -9.496373202130490E-004
 -9.496365762745334E-004 -9.496539438541145E-004
 -9.496330219696062E-004 -9.496574182567382E-004
 -9.496230066505942E-004 -9.496673894581706E-004
 -9.496312628484899E-004 -9.496592194067529E-004
 -9.496463718012233E-004 -9.496440448953019E-004
 -9.496056729965666E-004 -9.496847393317438E-004
 -9.496316952962543E-004 -9.496588074866559E-004
 -9.496355738013361E-004 -9.496548231211606E-004
 -9.496459517021287E-004 -9.496444644424088E-004
 -9.496462523413486E-004 -9.496441821260734E-004
 -9.496432232360957E-004 -9.496471884890030E-004
 -9.496744167958377E-004 -9.496160140856092E-004
 -9.496509976431711E-004 -9.496395059656566E-004
 -9.496496165930975E-004 -9.496408113458470E-004
 -9.496379388301708E-004 -9.496524855024346E-004
 -9.496445798817806E-004 -9.496458762693103E-004
 -9.496416960376441E-004 -9.496487271840132E-004
 -9.496245567400303E-004 -9.496658380088830E-004
 -9.496388489767872E-004 -9.496516405304733E-004
 -9.496495736744914E-004 -9.496408519605023E-004
 -9.496627973457496E-004 -9.496275949379243E-004
 -9.496503969160414E-004 -9.496400594597745E-004
 -9.496565898230196E-004 -9.496338180279993E-004
 -9.496849513266947E-004 -9.496054758817784E-004
 -9.496541773150610E-004 -9.496363229288609E-004
 -9.496124126708636E-004 -9.496780065596863E-004
 -9.496060066709896E-004 -9.496844059141146E-004
 -9.496326364742785E-004 -9.496578042587329E-004
 -9.496483784613650E-004 -9.496420697100316E-004
 -9.496687068400567E-004 -9.496217140075415E-004
 -9.496591237884970E-004 -9.496312832016830E-004
 -9.496310702511664E-004 -9.496593788084622E-004
 -9.496375197778556E-004 -9.496528845504693E-004
 -9.496609389517452E-004 -9.496294545937952E-004
 -9.496118944214363E-004 -9.496785401857316E-004
 -9.496066100513259E-004 -9.496838131655966E-004
 -9.496584052297426E-004 -9.496320074051055E-004
 -9.496697971962195E-004 -9.496206439731551E-004
 -9.496571917663718E-004 -9.496332569757995E-004
 -9.496383855756996E-004 -9.496520001678763E-004
 -9.496450126437883E-004 -9.496454032368726E-004
 -9.496365396884421E-004 -9.496539101098899E-004
 -9.496245698291682E-004 -9.496658052905253E-004
 -9.496179551181937E-004 -9.496724784573274E-004
 -9.496154235791339E-004 -9.496750017649560E-004
 -9.496072635596129E-004 -9.496831479597175E-004
 -9.496531899963327E-004 -9.496372394441926E-004
 -9.496575608922978E-004 -9.496328616668293E-004
 -9.496459515643219E-004 -9.496444701266655E-004
 -9.496469603954334E-004 -9.496434777863985E-004
 -9.496205884981745E-004 -9.496698149571995E-004
 -9.496466807778560E-004 -9.496437179796756E-004
 -9.496276596220975E-004 -9.496627518866945E-004
 -9.496408752769570E-004 -9.496495384634338E-004
 -9.496516285740099E-004 -9.496387847908982E-004
 -9.496350806497109E-004 -9.496553521880820E-004
 -9.496362238256443E-004 -9.496542053789436E-004
 -9.496427017743617E-004 -9.496477003920926E-004
 -9.496364916540180E-004 -9.496539170957609E-004
 -9.496428156379875E-004 -9.496476030542447E-004
 -9.496497812809293E-004 -9.496406371005123E-004
 -9.496199794670740E-004 -9.496704358982049E-004
 -9.496498283976584E-004 -9.496406202859398E-004
 -9.496336665429172E-004 -9.496567174780982E-004
 -9.496401888704121E-004 -9.496502479876921E-004
 -9.496381964058186E-004 -9.496522359439930E-004
 -9.496420784671928E-004 -9.496483213752726E-004
 -9.496454960261441E-004 -9.496449168479691E-004
 -9.496335309015889E-004 -9.496568914661869E-004
 -9.496337928518000E-004 -9.496566187075962E-004
 -9.496478436178279E-004 -9.496425834862613E-004
 -9.496388965097308E-004 -9.496515211545907E-004
 -9.496349424378843E-004 -9.496554633850078E-004
 -9.496260135086744E-004 -9.496643991494059E-004
 -9.496503242441935E-004 -9.496401062126279E-004
 -9.496302970244944E-004 -9.496601188946008E-004
 -9.496385589615205E-004 -9.496518490005494E-004
 -9.496499544571231E-004 -9.496404712638630E-004
 -9.496153184433749E-004 -9.496750876985457E-004
 -9.496298712679739E-004 -9.496605468723799E-004
 -9.496550135020761E-004 -9.496354019807436E-004
 -9.496309347946922E-004 -9.496594780414577E-004
 -9.496368838144675E-004 -9.496535341943151E-004
 -9.496371701625739E-004 -9.496532563851155E-004
 -9.496438531174626E-004 -9.496466366622928E-004
 -9.496596578810096E-004 -9.496307515840207E-004
 -9.496544003970547E-004 -9.496360339348752E-004
 -9.496538747525914E-004 -9.496366287545763E-004
 -9.496569716723177E-004 -9.496334269763859E-004
 -9.496285264727944E-004 -9.496619216595483E-004
 -9.496401314641436E-004 -9.496503871920546E-004
 -9.496675600081833E-004 -9.496228534235526E-004
 -9.496464638830295E-004 -9.496439725247822E-004
 -9.496520878173735E-004 -9.496383933329226E-004
 -9.496820270425318E-004 -9.496083980293271E-004
 -9.496388470485291E-004 -9.496515878628303E-004
 -9.496444404441634E-004 -9.496460766390899E-004
 -9.496566491699554E-004 -9.496337626698305E-004
 -9.496123892755213E-004 -9.496780583267904E-004
 -9.496327667026173E-004 -9.496577512786384E-004
 -9.496645255694193E-004 -9.496258940381532E-004
 -9.496358081117106E-004 -9.496546175443589E-004
 -9.496434803340975E-004 -9.496470401160205E-004
 -9.496445054406022E-004 -9.496459205710978E-004
 -9.496220474845373E-004 -9.496683787610043E-004
 -9.496413425684071E-004 -9.496491360130671E-004
 -9.496354273292295E-004 -9.496549851043910E-004
 -9.496291598566530E-004 -9.496612737407299E-004
 -9.496427041550891E-004 -9.496477970635542E-004
 -9.496625877163113E-004 -9.496278189074647E-004
 -9.496384731264819E-004 -9.496519659066223E-004
 -9.496442538498921E-004 -9.496462633494166E-004
 -9.496879053962388E-004 -9.496025171163610E-004
 -9.496394614770396E-004 -9.496509678061628E-004
 -9.496454869772271E-004 -9.496450257881062E-004
 -9.496572811415266E-004 -9.496331426302964E-004
 -9.496391635379523E-004 -9.496512469409651E-004
 -9.496483140838903E-004 -9.496421388075241E-004
 -9.496633116751638E-004 -9.496271198569511E-004
 -9.496317248876897E-004 -9.496587283824007E-004
 -9.496375937109632E-004 -9.496529318579547E-004
 -9.496205789720110E-004 -9.496698355002149E-004
 -9.496651977604907E-004 -9.496252270122324E-004
 -9.496532158126387E-004 -9.496372832901047E-004
 -9.496543816265192E-004 -9.496360420132682E-004
 -9.496296288949018E-004 -9.496607974466598E-004
 -9.496403611591345E-004 -9.496501515916413E-004
 -9.496564884677845E-004 -9.496339156476313E-004
 -9.496064555210394E-004 -9.496839918069405E-004
 -9.496307421312315E-004 -9.496597709541681E-004
 -9.496509619494358E-004 -9.496394368726100E-004
 -9.496328336139804E-004 -9.496575979443081E-004
 -9.496453972473730E-004 -9.496450592610183E-004
 -9.496322249247221E-004 -9.496581775312289E-004
 -9.496635001715240E-004 -9.496269290166557E-004
 -9.496544933044398E-004 -9.496360059701097E-004
 -9.496565184608957E-004 -9.496338777504645E-004
 -9.496418532644171E-004 -9.496485562802182E-004
 -9.496441538072313E-004 -9.496462855415193E-004
 -9.496615396910928E-004 -9.496288862011353E-004
 -9.496307917618818E-004 -9.496596183106639E-004
 -9.496367340384840E-004 -9.496537667945743E-004
 -9.496291943231098E-004 -9.496612202317291E-004
 -9.496574225126222E-004 -9.496329924978672E-004
 -9.496498904513843E-004 -9.496405723544312E-004
 -9.496637827002432E-004 -9.496266019901923E-004
 -9.496332931508870E-004 -9.496571496859114E-004
 -9.496378317094054E-004 -9.496526768852290E-004
 -9.496300482575059E-004 -9.496603451840487E-004
 -9.496583255809017E-004 -9.496321072039793E-004
 -9.496502924934669E-004 -9.496401735728000E-004
 -9.496230586565694E-004 -9.496673631168403E-004
 -9.496539986397315E-004 -9.496364150144429E-004
 -9.496501987721135E-004 -9.496402963379483E-004
 -9.496503423444188E-004 -9.496400650461158E-004
 -9.496353425807134E-004 -9.496550586540646E-004
 -9.496411752269214E-004 -9.496492613757494E-004
 -9.496532018694654E-004 -9.496372089066624E-004
 -9.496606657759995E-004 -9.496297670924090E-004
 -9.496497312023140E-004 -9.496407740357781E-004
 -9.496257703794337E-004 -9.496646502217828E-004
 -9.496549014453526E-004 -9.496355259445279E-004
 -9.496454797890476E-004 -9.496450403790484E-004
 -9.496463023640935E-004 -9.496441216622558E-004
 -9.496685728330882E-004 -9.496218531931862E-004
 -9.496486984925367E-004 -9.496417812205918E-004
 -9.496335800225222E-004 -9.496568316016734E-004
 -9.496777249893212E-004 -9.496127229988552E-004
 -9.496560830972322E-004 -9.496344347353528E-004
 -9.496093695266699E-004 -9.496810549494613E-004
 -9.496526013200098E-004 -9.496378333347010E-004
 -9.496448052065436E-004 -9.496457125781477E-004
 -9.496337203728312E-004 -9.496566789549188E-004
 -9.496627649117243E-004 -9.496276824382226E-004
 -9.496488624597472E-004 -9.496416588874733E-004
 -9.496229214551423E-004 -9.496674915560852E-004
 -9.496439903373548E-004 -9.496464436942858E-004
 -9.496376003217719E-004 -9.496528824554858E-004
 -9.496302640420849E-004 -9.496601451639697E-004
 -9.496368794398284E-004 -9.496535516573360E-004
 -9.496390931777247E-004 -9.496514154223001E-004
 -9.496367600290114E-004 -9.496536636986371E-004
 -9.496610526089692E-004 -9.496293734878187E-004
 -9.496485080668975E-004 -9.496420049919563E-004
 -9.496337560976320E-004 -9.496566479294601E-004
 -9.496842316000198E-004 -9.496062173410148E-004
 -9.496582756040403E-004 -9.496322371809900E-004
 -9.496402912725167E-004 -9.496501070541638E-004
 -9.496558903658439E-004 -9.496345431235753E-004
 -9.496467504901076E-004 -9.496437051674818E-004
 -9.496271819845636E-004 -9.496632494356778E-004
 -9.496598323619937E-004 -9.496306218530921E-004
 -9.496504840227341E-004 -9.496400407424632E-004
 -9.496706377093085E-004 -9.496197770949415E-004
 -9.496253163139790E-004 -9.496651100466077E-004
 -9.496355666166043E-004 -9.496549307393640E-004
 -9.496284625569634E-004 -9.496619437474504E-004
 -9.496521652221694E-004 -9.496382743973626E-004
 -9.496444000722145E-004 -9.496461174689606E-004
 -9.496028982212333E-004 -9.496875242589220E-004
 -9.496517589857096E-004 -9.496386712367920E-004
 -9.496436824369660E-004 -9.496468305604872E-004
 -9.496342475906907E-004 -9.496561762292660E-004
 -9.496496270709982E-004 -9.496407823261435E-004
 -9.496439686619247E-004 -9.496464855901068E-004
 -9.496680641463531E-004 -9.496223570375119E-004
 -9.496365964580541E-004 -9.496538179422912E-004
 -9.496394910054033E-004 -9.496510036928989E-004
 -9.496399437334925E-004 -9.496504639914394E-004
 -9.496547593912534E-004 -9.496356403423531E-004
 -9.496489159196022E-004 -9.496415221708596E-004
 -9.496265069747033E-004 -9.496638788134597E-004
 -9.496574312103204E-004 -9.496330119302144E-004
 -9.496509473584659E-004 -9.496395583067551E-004
 -9.496601756991875E-004 -9.496302177490144E-004
 -9.496324213653873E-004 -9.496580119912650E-004
 -9.496394622211967E-004 -9.496510024284542E-004
 -9.496293340313123E-004 -9.496610906434383E-004
 -9.496604167285970E-004 -9.496299951910499E-004
 -9.496522846578953E-004 -9.496382144635716E-004
 -9.496612024784246E-004 -9.496292117875032E-004
 -9.496334752215530E-004 -9.496569408694175E-004
 -9.496399477886007E-004 -9.496505134588374E-004
 -9.496585579715234E-004 -9.496318442990870E-004
 -9.496266893810732E-004 -9.496637412767399E-004
 -9.496350523253151E-004 -9.496554458456589E-004
 -9.496343163311200E-004 -9.496560796061741E-004
 -9.496487217116866E-004 -9.496416886434069E-004
 -9.496462532583198E-004 -9.496441860836672E-004
 -9.496521859687442E-004 -9.496382339477821E-004
 -9.496527143065383E-004 -9.496377122331382E-004
 -9.496507557376315E-004 -9.496397320996897E-004
 -9.496349419201446E-004 -9.496554874930185E-004
 -9.496382557620992E-004 -9.496521661321045E-004
 -9.496374617323982E-004 -9.496529608583679E-004
 -9.496831450798224E-004 -9.496072878934320E-004
 -9.496849529233338E-004 -9.496054761622765E-004
 -9.496382647701936E-004 -9.496521440325922E-004
 -9.496409033910434E-004 -9.496495473086578E-004
 -9.496264848609322E-004 -9.496639291820119E-004
 -9.496247060515819E-004 -9.496657053181227E-004
 -9.496614000984413E-004 -9.496290471995786E-004
 -9.496538738552339E-004 -9.496365211847743E-004
 -9.496321527597407E-004 -9.496582459798164E-004
 -9.496805079148161E-004 -9.496099135586359E-004
 -9.496786352241503E-004 -9.496117779516409E-004
 -9.496652652290018E-004 -9.496251727770323E-004
 -9.496189500484690E-004 -9.496714943451134E-004
 -9.496370258551744E-004 -9.496534164289370E-004
 -9.496452022236147E-004 -9.496451868776238E-004
 -9.496439239446674E-004 -9.496464981049160E-004
 -9.496505130427978E-004 -9.496399313682659E-004
 -9.496667381351838E-004 -9.496236420937370E-004
 -9.496695914256259E-004 -9.496208387898349E-004
 -9.496679813715391E-004 -9.496224482418492E-004
 -9.496860255691836E-004 -9.496043849330147E-004
 -9.496428050030906E-004 -9.496476223814314E-004
 -9.496438883184801E-004 -9.496465352550877E-004
 -9.496448402034654E-004 -9.496456683186249E-004
 -9.496610537030431E-004 -9.496293664152061E-004
 -9.496741996338901E-004 -9.496162246334725E-004
 -9.496634566428159E-004 -9.496270532542409E-004
 -9.496312668860748E-004 -9.496591441735381E-004
 -9.496080792011324E-004 -9.496823494307287E-004
 -9.496317126065222E-004 -9.496587832354979E-004
 -9.496509042759598E-004 -9.496395196876630E-004
 -9.496648628361684E-004 -9.496255380332171E-004
 -9.496536265421889E-004 -9.496368570251880E-004
 -9.496399899581305E-004 -9.496504341170837E-004
 -9.496284136682639E-004 -9.496619866006514E-004
 -9.496376540621013E-004 -9.496527967096355E-004
 -9.496452825527539E-004 -9.496451330690109E-004
 -9.496170087580054E-004 -9.496734219334758E-004
 -9.496361647001395E-004 -9.496543355165439E-004
 -9.496416317639374E-004 -9.496487992053667E-004
 -9.496530645266828E-004 -9.496373572037819E-004
 -9.496460696085834E-004 -9.496443851062780E-004
 -9.496469943273380E-004 -9.496434244718075E-004
 -9.496839947092651E-004 -9.496064242126529E-004
 -9.496620729969506E-004 -9.496284221975595E-004
 -9.496546664142829E-004 -9.496357303719222E-004
 -9.496445634052227E-004 -9.496458550800457E-004
 -9.496440659043195E-004 -9.496463668499952E-004
 -9.496587288152452E-004 -9.496316972074777E-004
 -9.496367010950311E-004 -9.496537193730327E-004
 -9.496531982299711E-004 -9.496373130484530E-004
 -9.496582762318282E-004 -9.496321637429251E-004
 -9.496651076611806E-004 -9.496252988461673E-004
 -9.496631321031371E-004 -9.496273413196157E-004
 -9.496770458965424E-004 -9.496133804621753E-004
 -9.496631706193822E-004 -9.496272557066940E-004
 -9.496529536040829E-004 -9.496375483438010E-004
 -9.496078712278261E-004 -9.496825549454624E-004
 -9.496320955856507E-004 -9.496583220858874E-004
 -9.496308004436720E-004 -9.496596911159610E-004
 -9.496656834213209E-004 -9.496247152344657E-004
 -9.496510275149875E-004 -9.496394020106572E-004
 -9.496503670134070E-004 -9.496401127031914E-004
 -9.496278757882314E-004 -9.496625225511836E-004
 -9.496395066591955E-004 -9.496509183807671E-004
 -9.496399992006318E-004 -9.496504520229789E-004
 -9.496163857720057E-004 -9.496740399409131E-004
 -9.496452504217241E-004 -9.496451765558124E-004
 -9.496381934091339E-004 -9.496523004338587E-004
 -9.496528276311169E-004 -9.496375896071187E-004
 -9.496414185246104E-004 -9.496490160102554E-004
 -9.496459717919818E-004 -9.496444843470542E-004
 -9.496864313455976E-004 -9.496039806553658E-004
 -9.496491575905300E-004 -9.496412676989284E-004
 -9.496507638327598E-004 -9.496397311410822E-004
 -9.496426137538461E-004 -9.496478026554547E-004
 -9.496533637675859E-004 -9.496370342434220E-004
 -9.496496357168683E-004 -9.496407978854717E-004
 -9.496393042652060E-004 -9.496511054085026E-004
 -9.496629672117725E-004 -9.496274694431252E-004
 -9.496413215935613E-004 -9.496491897613851E-004
 -9.496687373315726E-004 -9.496216559877275E-004
 -9.496617148257313E-004 -9.496287330280781E-004
 -9.496485307913266E-004 -9.496419468681994E-004
 -9.496419412531754E-004 -9.496484965817238E-004
 -9.496729613533266E-004 -9.496174386336038E-004
 -9.496440011532519E-004 -9.496464088971987E-004
 -9.496521599848659E-004 -9.496382746058744E-004
 -9.496505926843271E-004 -9.496398309170783E-004
 -9.496476165815885E-004 -9.496427940685393E-004
 -9.496604312136904E-004 -9.496299813989584E-004
 -9.496493235659524E-004 -9.496410916877911E-004
 -9.496408729774742E-004 -9.496495458085139E-004
 -9.496555171247252E-004 -9.496348921901846E-004
 -9.496469408184729E-004 -9.496434748965934E-004
 -9.496385328596868E-004 -9.496518926386432E-004
 -9.496675804400237E-004 -9.496228353294350E-004
 -9.496420092689902E-004 -9.496484360313409E-004
 -9.496558893893069E-004 -9.496344900903787E-004
 -9.496529444335707E-004 -9.496374945815715E-004
 -9.496549495669964E-004 -9.496354779627848E-004
 -9.496509299030001E-004 -9.496394679435677E-004
 -9.496441167387709E-004 -9.496462929149206E-004
 -9.496578862256645E-004 -9.496325366419035E-004
 -9.496592050845992E-004 -9.496312017067644E-004
 -9.496440991821255E-004 -9.496463323810129E-004
 -9.496507847016174E-004 -9.496396367109442E-004
 -9.496536294960349E-004 -9.496367634388995E-004
 -9.496613769163284E-004 -9.496290394253034E-004
 -9.496348471387449E-004 -9.496555777559934E-004
 -9.496590226097627E-004 -9.496313870625519E-004
 -9.496611547896194E-004 -9.496292626712025E-004
 -9.496364632882384E-004 -9.496539513649381E-004
 -9.496608706829007E-004 -9.496295369936760E-004
 -9.496489684770224E-004 -9.496414397233815E-004
 -9.496375946952384E-004 -9.496528364920611E-004
 -9.496740773428309E-004 -9.496163223322711E-004
 -9.496437270246689E-004 -9.496467046116353E-004
 -9.496690938374986E-004 -9.496213114319279E-004
 -9.496386836953444E-004 -9.496517384452386E-004
 -9.496520502980745E-004 -9.496383665717042E-004
 -9.496641158678403E-004 -9.496262897584168E-004
 -9.496216409415610E-004 -9.496687762882675E-004
 -9.496398592815650E-004 -9.496505495987897E-004
 -9.496655198746568E-004 -9.496249010054083E-004
 -9.496355504776654E-004 -9.496548663083503E-004
 -9.496490342750248E-004 -9.496413719226025E-004
 -9.496238613374652E-004 -9.496665595851156E-004
 -9.496553764311923E-004 -9.496350364613879E-004
 -9.496409217305858E-004 -9.496494994136388E-004
 -9.496292304966983E-004 -9.496611735657701E-004
 -9.496704757633109E-004 -9.496199377782654E-004
 -9.496512611702239E-004 -9.496391652116903E-004
 -9.496243150916375E-004 -9.496660913541884E-004
 -9.496544105794224E-004 -9.496360077212922E-004
 -9.496528694808036E-004 -9.496375246319086E-004
 -9.496524975448424E-004 -9.496378998070327E-004
 -9.496489511009867E-004 -9.496415002671143E-004
 -9.496385853540042E-004 -9.496518045868366E-004
 -9.496366516219940E-004 -9.496537475415707E-004
 -9.496420622860606E-004 -9.496483915447024E-004
 CIS relaxed dipole moment
            1
    1   0.6927326
    2   0.9629572
    3   0.0458420
	Magnitude:	 1.187 au	 3.017 Debye
 CIS 1 State Energy is -3232.3780664014
 Gradient of the state energy (including CIS Excitation Energy)
            1           2           3           4           5           6
    1  -0.0168138   0.0018325   0.0109369   0.0018582  -0.0015589  -0.0056641
    2  -0.0197504   0.0250782   0.0056663   0.0067129   0.0026045   0.0076249
    3  -0.0069776   0.0036534   0.0033137   0.0016731   0.0003327   0.0010520
            7           8           9          10          11          12
    1  -0.0016742  -0.0112259  -0.0009680  -0.0098500  -0.0027400   0.0237878
    2   0.0007622   0.0090074   0.0021424  -0.0107522   0.0042841   0.0047476
    3   0.0001488   0.0008573   0.0001652  -0.0046612   0.0003015   0.0070643
           13          14          15          16          17          18
    1  -0.0098366   0.0045948   0.0106160   0.0022315   0.0083904   0.0010588
    2  -0.0116721  -0.0022458  -0.0095861  -0.0007013  -0.0043251  -0.0014572
    3  -0.0034145   0.0005810  -0.0010511   0.0003354   0.0002087  -0.0003906
           19          20          21          22          23          24
    1   0.0065081   0.0028042   0.0048863   0.0007786   0.0071978   0.0010376
    2   0.0029396  -0.0011356   0.0117498   0.0014776  -0.0021590   0.0007947
    3   0.0016486   0.0001334   0.0030441  -0.0003274   0.0038779  -0.0009848
           25          26          27          28          29          30
    1  -0.0050288  -0.0019116   0.0004762  -0.0059883  -0.0025447  -0.0006773
    2  -0.0109059   0.0074091   0.0006292  -0.0019609  -0.0021833  -0.0038448
    3   0.0062620  -0.0017659   0.0017050  -0.0108851  -0.0016971   0.0001980
           31          32          33          34          35          36
    1  -0.0104957   0.0018618  -0.0001908  -0.0032981   0.0050339   0.0031205
    2   0.0011650   0.0092395   0.0030750  -0.0009204  -0.0010074  -0.0089851
    3   0.0011700  -0.0093897   0.0077246  -0.0016196   0.0121211  -0.0042346
           37          38          39          40          41          42
    1   0.0055804  -0.0080530   0.0020604   0.0007130   0.0159064  -0.0265143
    2   0.0029055  -0.0023984  -0.0109365   0.0117419   0.0165441  -0.0048867
    3  -0.0055679  -0.0064671   0.0067559   0.0071025   0.0097876  -0.0040482
           43          44          45          46          47          48
    1   0.0147025  -0.0029909  -0.0301243   0.0212694  -0.0121113  -0.0010320
    2   0.0131736   0.0008693  -0.0253737   0.0276538  -0.0150413   0.0029905
    3   0.0054818  -0.0001649  -0.0111621   0.0126243  -0.0070517   0.0008468
           49          50          51          52          53          54
    1   0.0018559  -0.0475853   0.0141912   0.0003028   0.0180676   0.0191695
    2   0.0249338  -0.0247145   0.0097427  -0.0010204  -0.0164453  -0.0143917
    3   0.0094207  -0.0101982   0.0043070  -0.0007420  -0.0078283  -0.0070520
           55          56          57          58          59          60
    1   0.0179052  -0.0075665   0.0016810   0.0277300   0.0008473  -0.0373713
    2   0.0456595  -0.0134583   0.0003450   0.0188004   0.0002365  -0.0124280
    3   0.0207863  -0.0060802  -0.0000712   0.0081055   0.0000015  -0.0050198
           61          62          63          64          65          66
    1  -0.0002773   0.0085969   0.0002387  -0.0153423   0.0001438  -0.0009024
    2   0.0000216   0.0364019   0.0005451  -0.0267782  -0.0005164  -0.0248754
    3   0.0000131   0.0166530   0.0002053  -0.0121677  -0.0003106  -0.0103660
           67          68          69          70          71          72
    1   0.0120610   0.0010808  -0.0234187   0.0258643  -0.0145403   0.0034530
    2   0.0152769  -0.0029902  -0.0303636   0.0235588  -0.0133760  -0.0008428
    3   0.0069426  -0.0005049  -0.0131569   0.0108371  -0.0058512   0.0003777
           73          74          75          76          77          78
    1   0.0259585  -0.0198035   0.0086211  -0.0012238  -0.0209896  -0.0186529
    2   0.0044882  -0.0462439   0.0142687   0.0000078   0.0143627   0.0147864
    3   0.0027981  -0.0207682   0.0062830   0.0001119   0.0071147   0.0068441
           79          80          81          82          83          84
    1   0.0471255  -0.0132216   0.0000985   0.0163375   0.0001436  -0.0075471
    2   0.0228741  -0.0089500   0.0014162   0.0276004   0.0007586  -0.0356688
    3   0.0100774  -0.0041607   0.0007753   0.0123314   0.0003481  -0.0163128
           85          86          87          88          89          90
    1   0.0001027   0.0383746   0.0006011  -0.0267085  -0.0005548  -0.0150482
    2  -0.0002958   0.0131593   0.0002440  -0.0179555  -0.0000000  -0.0162428
    3  -0.0001524   0.0054608   0.0000501  -0.0080333   0.0000161  -0.0050017
           91          92          93          94          95          96
    1   0.0018994   0.0052298  -0.0072291  -0.0011140  -0.0004755   0.0015650
    2   0.0023441   0.0098859   0.0027874  -0.0009741  -0.0002749  -0.0088903
    3   0.0001089  -0.0057398  -0.0042202   0.0010745  -0.0008595   0.0010516
           97          98          99         100         101         102
    1  -0.0002445   0.0065394   0.0166620  -0.0230304  -0.0054775  -0.0071943
    2  -0.0003255   0.0012580   0.0168881  -0.0035992  -0.0130948  -0.0021568
    3  -0.0015344   0.0123136   0.0090976  -0.0085907  -0.0050443  -0.0023658
          103         104         105         106         107         108
    1  -0.0026298  -0.0082036  -0.0008898  -0.0085117  -0.0020107   0.0092808
    2   0.0014389   0.0037719   0.0014865   0.0105601   0.0008499   0.0118973
    3  -0.0001438  -0.0006029   0.0005129   0.0019750  -0.0003079   0.0051569
          109         110         111         112         113         114
    1  -0.0042284  -0.0037412  -0.0129716  -0.0019485   0.0015529   0.0039697
    2   0.0025854  -0.0234453  -0.0054278  -0.0070452  -0.0025076  -0.0078897
    3  -0.0003977  -0.0056341  -0.0047035  -0.0026499  -0.0005141  -0.0017431
          115         116         117         118         119         120
    1   0.0016363   0.0113658   0.0008564   0.0116208   0.0026630   0.0012147
    2  -0.0006972  -0.0076973  -0.0019916   0.0093370  -0.0042830   0.0036960
    3  -0.0001139  -0.0005876  -0.0003615   0.0061779  -0.0004967   0.0001875
          121         122         123         124         125         126
    1  -0.0029342   0.0103367   0.0006699   0.0033994  -0.0042755  -0.0029463
    2  -0.0097821  -0.0012348  -0.0022907   0.0006494   0.0027850   0.0088918
    3   0.0083470  -0.0008040  -0.0079094   0.0019716  -0.0122549   0.0046697
          127         128         129         130         131         132
    1  -0.0055775   0.0078960  -0.0006646  -0.0011506   0.0034941   0.0075657
    2  -0.0029253   0.0017386  -0.0110023   0.0114759   0.0102530  -0.0050935
    3   0.0051236   0.0070873  -0.0080399  -0.0057368  -0.0010439   0.0092280
          133         134         135         136         137         138
    1  -0.0132862   0.0132196  -0.0081248  -0.0028854   0.0092604  -0.0079017
    2  -0.0032043   0.0037390   0.0040157  -0.0099480   0.0092915  -0.0085353
    3   0.0005771  -0.0013201  -0.0091735   0.0019219   0.0050255  -0.0031063
 Gradient time:  CPU 7418.04 s  wall 1160.12 s
 Geometry Optimization Parameters
   NAtoms,    NIC,     NZ,  NCons,   NDum,   NFix, NCnnct, MaxDiis
      138    1108       0       0       0       0       0       0


** GEOMETRY OPTIMIZATION IN DELOCALIZED INTERNAL COORDINATES **
   Searching for a Minimum

   Optimization Cycle:   1

                       Coordinates (Angstroms)
     ATOM                X               Y               Z
      1  N         1.3594100000   -0.1356800000   -2.2364800000
      2  C         0.8966500000    1.2133000000   -2.0018000000
      3  C         1.8359100000    2.2047600000   -1.6392900000
      4  C         1.4221200000    3.5189900000   -1.3955700000
      5  H         2.1489500000    4.2735000000   -1.1220600000
      6  C         0.0747300000    3.8628000000   -1.4945200000
      7  H        -0.2397800000    4.8804200000   -1.3019100000
      8  C        -0.8693900000    2.8930400000   -1.8270500000
      9  H        -1.9166400000    3.1601100000   -1.8890300000
     10  C        -0.4710100000    1.5766300000   -2.0742000000
     11  H        -1.2401400000    0.8589200000   -2.3084300000
     12  C         2.7701100000   -0.4070700000   -2.0827600000
     13  C         3.3365100000   -1.6806100000   -2.3359900000
     14  H         2.7380100000   -2.5168100000   -2.6582600000
     15  C         4.7103400000   -1.8882600000   -2.1859200000
     16  H         5.1320300000   -2.8664300000   -2.3786500000
     17  C         5.5418000000   -0.8398600000   -1.7957600000
     18  H         6.6054800000   -1.0056900000   -1.6836200000
     19  C         5.0057000000    0.4259200000   -1.5642300000
     20  H         5.6587500000    1.2401400000   -1.2760800000
     21  C         3.6325200000    0.6492100000   -1.7111400000
     22  C         0.4423100000   -1.1743900000   -2.6200400000
     23  C         0.3602900000   -2.3585800000   -1.8795100000
     24  H         0.9883100000   -2.4713600000   -1.0038500000
     25  C        -0.5411700000   -3.3781000000   -2.2264600000
     26  C        -0.3816900000   -1.0097200000   -3.7373300000
     27  H        -0.2990500000   -0.0977000000   -4.3165000000
     28  C        -1.2830400000   -2.0076800000   -4.1364000000
     29  C        -1.3756100000   -3.2106600000   -3.3723900000
     30  C        -2.1038500000   -1.7511800000   -5.3969900000
     31  H        -3.1873800000   -1.8401900000   -5.1925700000
     32  H        -1.9394200000   -0.7107700000   -5.7533200000
     33  C        -1.7026600000   -2.6610600000   -6.5604200000
     34  C        -0.5976900000   -4.6072100000   -1.3257800000
     35  H         0.2140200000   -4.5606700000   -0.5671600000
     36  H        -0.4295100000   -5.5346500000   -1.9050100000
     37  C        -1.9056800000   -4.6999500000   -0.5369400000
     38  H        -2.7888600000   -4.8181200000   -1.1908700000
     39  H        -1.8664900000   -5.5824600000    0.1358000000
     40  H        -2.0395300000   -3.7883800000    0.0836000000
     41  B        -2.4079900000   -4.3471700000   -3.7971000000
     42  C        -3.9695500000   -4.0877300000   -3.6853200000
     43  C        -4.4398500000   -2.8821400000   -3.1106000000
     44  H        -3.7619800000   -2.1179100000   -2.7540000000
     45  C        -5.8084500000   -2.6882300000   -2.9989100000
     46  C        -6.7125000000   -3.6455000000   -3.4237900000
     47  C        -6.2920500000   -4.8439200000   -3.9815000000
     48  H        -7.0267500000   -5.5762000000   -4.2893300000
     49  C        -4.9024000000   -5.0758000000   -4.1242400000
     50  C        -6.5770000000   -1.5663000000   -2.4587600000
     51  C        -6.2156300000   -0.3415600000   -1.8957600000
     52  H        -5.1755300000   -0.0625300000   -1.7894900000
     53  C        -7.8968100000   -1.8995000000   -2.5835900000
     54  C        -8.9403100000   -1.0915600000   -2.1823800000
     55  C        -8.0559400000   -3.1318300000   -3.1535800000
     56  C        -9.3368200000   -3.6450800000   -3.3619200000
     57  H        -9.4804200000   -4.6187700000   -3.8116200000
     58  C        -7.2508600000    0.5265900000   -1.4670800000
     59  H        -6.9996500000    1.4826700000   -1.0269000000
     60  C        -8.6161000000    0.1537800000   -1.6093000000
     61  H        -9.3974400000    0.8259200000   -1.2775100000
     62  C       -10.2492100000   -1.5746900000   -2.3764200000
     63  H       -11.1039000000   -0.9801800000   -2.0790700000
     64  C       -10.4446400000   -2.8536800000   -2.9672900000
     65  H       -11.4493100000   -3.2267100000   -3.1169800000
     66  C        -1.8961500000   -5.7303000000   -4.3869600000
     67  C        -0.5067000000   -5.9651800000   -4.5232000000
     68  H         0.2283200000   -5.2325700000   -4.2178400000
     69  C        -0.0859700000   -7.1685100000   -5.0701400000
     70  C        -0.9897300000   -8.1253000000   -5.4969000000
     71  C        -2.3587100000   -7.9265400000   -5.3976700000
     72  H        -3.0351600000   -8.6894200000   -5.7589900000
     73  C        -2.8301700000   -6.7195800000   -4.8274800000
     74  C         1.2580300000   -7.6882200000   -5.3264200000
     75  C         2.5389400000   -7.1785100000   -5.1095100000
     76  H         2.6821700000   -6.2027800000   -4.6641600000
     77  C         1.0995100000   -8.9235400000   -5.8900700000
     78  C         2.1436500000   -9.7379600000   -6.2764200000
     79  C        -0.2203600000   -9.2528900000   -6.0243600000
     80  C        -0.5810200000  -10.4802000000   -6.5822700000
     81  H        -1.6210900000  -10.7565700000   -6.6954500000
     82  C         3.6473500000   -7.9765600000   -5.4888800000
     83  H         4.6520300000   -7.6065100000   -5.3319800000
     84  C         3.4525300000   -9.2585300000   -6.0733600000
     85  H         4.3076700000   -9.8582800000   -6.3587100000
     86  C         1.8201000000  -10.9860000000   -6.8439500000
     87  H         2.6019600000  -11.6632800000   -7.1639000000
     88  C         0.4548700000  -11.3549000000   -6.9958800000
     89  H         0.2042000000  -12.3131900000   -7.4315300000
     90  B        -4.3931800000   -6.4504600000   -4.7320400000
     91  C        -5.4366300000   -7.5184200000   -5.2880700000
     92  C        -6.2055500000   -7.2265700000   -6.4557700000
     93  C        -7.1282400000   -8.1741700000   -6.9235500000
     94  H        -7.7087300000   -7.9649200000   -7.8142100000
     95  C        -7.2967300000   -9.4061100000   -6.2846700000
     96  C        -6.5352900000   -9.6959300000   -5.1475800000
     97  H        -6.6854100000  -10.6450000000   -4.6468800000
     98  C        -5.6148900000   -8.7714900000   -4.6277400000
     99  N        -8.2435100000  -10.3617400000   -6.7913200000
    100  C        -9.6292600000  -10.0019600000   -6.9866200000
    101  C       -10.5211600000  -10.9705400000   -7.4994100000
    102  C       -11.8717400000  -10.6599400000   -7.6920200000
    103  H       -12.5477500000  -11.4068200000   -8.0889600000
    104  C       -12.3562400000   -9.3936600000   -7.3673400000
    105  H       -13.4026600000   -9.1601400000   -7.5157100000
    106  C       -11.4962900000   -8.4329100000   -6.8381200000
    107  H       -11.8786100000   -7.4552100000   -6.5739100000
    108  C       -10.1447400000   -8.7283200000   -6.6410700000
    109  H        -9.5234800000   -7.9594800000   -6.2113300000
    110  C        -7.8354300000  -11.7056800000   -7.1295600000
    111  C        -8.8012900000  -12.6068900000   -7.6318200000
    112  C        -8.4396000000  -13.9124000000   -7.9812300000
    113  H        -9.1865200000  -14.5974100000   -8.3624100000
    114  C        -7.1178800000  -14.3357300000   -7.8499900000
    115  H        -6.8434600000  -15.3459300000   -8.1250900000
    116  C        -6.1470200000  -13.4538400000   -7.3783100000
    117  H        -5.1190400000  -13.7815700000   -7.2909500000
    118  C        -6.4934600000  -12.1470100000   -7.0244900000
    119  H        -5.7046100000  -11.4966600000   -6.6836100000
    120  C        -4.8730700000   -9.1554200000   -3.3519000000
    121  H        -5.0943700000  -10.2123100000   -3.0862500000
    122  H        -3.7775900000   -9.0929000000   -3.4916900000
    123  C        -5.3054400000   -8.3189600000   -2.1456600000
    124  C        -6.0601900000   -5.9334400000   -7.2529100000
    125  H        -6.8333500000   -5.8892600000   -8.0508700000
    126  H        -6.2276700000   -5.0479900000   -6.6115200000
    127  C        -4.7119700000   -5.8272300000   -7.9694400000
    128  H        -3.8585900000   -5.7912900000   -7.2685300000
    129  H        -4.5769400000   -6.6919700000   -8.6533900000
    130  H        -4.6887500000   -4.8940300000   -8.5707700000
    131  H        -5.0724100000   -7.2454000000   -2.2678700000
    132  H        -4.7712700000   -8.6770300000   -1.2404600000
    133  H        -6.3979200000   -8.4310200000   -1.9786500000
    134  H        -0.6256200000   -2.5240100000   -6.7949900000
    135  H        -2.2971100000   -2.3915600000   -7.4587400000
    136  H        -1.8874700000   -3.7296300000   -6.3487700000
    137  O       -10.0850200000  -12.2153400000   -7.7969900000
    138  O         3.1451900000    1.8940900000   -1.5080300000
   Point Group: c1    Number of degrees of freedom:   408


   Energy is  -3232.378066401


 Attempting to Generate Delocalized Internal Coordinates

408 Hessian modes will be used to form the next step
  Hessian Eigenvalues:
     0.005145    0.005146    0.005175    0.005179    0.005736    0.005742
     0.005879    0.005893    0.006418    0.006445    0.006946    0.007023
     0.007147    0.009882    0.009914    0.010653    0.010689    0.012299
     0.012557    0.012580    0.014070    0.014083    0.014091    0.014719
     0.014729    0.015178    0.015200    0.015258    0.016100    0.016714
     0.016731    0.016746    0.017250    0.017715    0.017730    0.018621
     0.018631    0.018749    0.018764    0.019405    0.019412    0.019511
     0.019518    0.019523    0.019527    0.019754    0.019755    0.019760
     0.019760    0.020213    0.020214    0.020354    0.020354    0.020447
     0.020448    0.020468    0.020470    0.020765    0.020769    0.020908
     0.020917    0.020983    0.020990    0.021047    0.021053    0.021248
     0.021251    0.021484    0.021491    0.021498    0.021503    0.021617
     0.021621    0.021656    0.021659    0.021803    0.021807    0.021931
     0.021934    0.022163    0.022169    0.022178    0.022193    0.022231
     0.022233    0.022298    0.022299    0.022300    0.022302    0.022338
     0.022340    0.022344    0.022346    0.022397    0.022426    0.022503
     0.022518    0.022824    0.022824    0.022838    0.022846    0.022863
     0.022868    0.022967    0.022969    0.022975    0.022982    0.023063
     0.023065    0.023069    0.023070    0.023208    0.023210    0.023216
     0.023218    0.023479    0.023484    0.025206    0.025209    0.040756
     0.040782    0.041015    0.041041    0.055097    0.055107    0.055198
     0.055221    0.055782    0.055784    0.055882    0.055893    0.058550
     0.058556    0.058588    0.058590    0.093005    0.093071    0.093251
     0.093275    0.128665    0.128702    0.128841    0.128862    0.159923
     0.159927    0.159944    0.159951    0.159987    0.159987    0.159987
     0.159987    0.159990    0.159990    0.159991    0.159991    0.159996
     0.159996    0.159996    0.159996    0.159997    0.159997    0.159998
     0.159998    0.159998    0.159998    0.159998    0.159998    0.160000
     0.160000    0.160000    0.160000    0.160000    0.160000    0.160000
     0.160000    0.160000    0.160000    0.160000    0.160000    0.160000
     0.160000    0.160000    0.160000    0.160000    0.160000    0.160000
     0.160000    0.160000    0.160000    0.160000    0.160000    0.219304
     0.219307    0.219313    0.219327    0.219995    0.219995    0.219995
     0.219996    0.220661    0.220661    0.222295    0.222295    0.225538
     0.225539    0.225995    0.225996    0.231520    0.231800    0.234171
     0.234172    0.234433    0.234434    0.234878    0.234878    0.237864
     0.237865    0.240102    0.240299    0.242768    0.242915    0.244660
     0.244662    0.244954    0.244956    0.246120    0.246475    0.247452
     0.247593    0.249076    0.249076    0.249490    0.249636    0.249737
     0.249737    0.249764    0.249786    0.249786    0.249828    0.249829
     0.249832    0.249875    0.249898    0.249914    0.249917    0.249935
     0.249942    0.249949    0.249957    0.249959    0.249982    0.249984
[...]
  0.437   0.445   0.448   0.450   0.458   0.458   0.461   0.464
  0.464   0.472   0.475   0.481   0.483   0.483   0.486   0.488
  0.490   0.491   0.493   0.495   0.495   0.497   0.500   0.505
  0.507   0.511   0.514   0.516   0.519   0.520   0.521   0.521
  0.523   0.524   0.528   0.529   0.529   0.530   0.532   0.533
  0.537   0.539   0.543   0.546   0.547   0.548   0.549   0.551
  0.552   0.554   0.556   0.557   0.561   0.564   0.565   0.566
  0.569   0.571   0.573   0.574   0.575   0.577   0.577   0.579
  0.581   0.582   0.582   0.582   0.582   0.583   0.585   0.586
  0.587   0.588   0.589   0.590   0.594   0.595   0.596   0.600
  0.601   0.606   0.608   0.609   0.611   0.612   0.613   0.613
  0.614   0.615   0.615   0.615   0.622   0.623   0.623   0.624
  0.624   0.626   0.626   0.630   0.632   0.633   0.633   0.635
  0.636   0.638   0.640   0.641   0.642   0.646   0.646   0.647
  0.649   0.652   0.652   0.654   0.654   0.655   0.657   0.658
  0.661   0.662   0.665   0.666   0.667   0.668   0.671   0.676
  0.676   0.680   0.685   0.689   0.692   0.692   0.694   0.695
  0.698   0.706   0.707   0.708   0.709   0.710   0.716   0.717
  0.723   0.724   0.724   0.728   0.732   0.733   0.736   0.737
  0.738   0.738   0.740   0.746   0.749   0.752   0.757   0.758
  0.763   0.764   0.765   0.768   0.769   0.772   0.773   0.774
  0.777   0.778   0.785   0.786   0.792   0.792   0.794   0.796
  0.800   0.804   0.808   0.815   0.815   0.818   0.820   0.825
  0.829   0.833   0.834   0.837   0.846   0.853   0.856   0.857
  0.865   0.869   0.875   0.877   0.885   0.888   0.890   0.892
  0.897   0.900   0.903   0.904   0.905   0.908   0.912   0.915
  0.916   0.928   0.930   0.935   0.937   0.937   0.939   0.941
  0.945   0.947   0.952   0.954   0.955   0.959   0.961   0.964
  0.964   0.968   0.970   0.972   0.972   0.977   0.979   0.980
  0.981   0.982   0.984   0.984   0.987   0.988   0.991   0.994
  0.996   0.997   0.999   1.002   1.003   1.004   1.005   1.009
  1.014   1.017   1.018   1.020   1.022   1.025   1.029   1.029
  1.031   1.033   1.034   1.036   1.036   1.038   1.040   1.042
  1.043   1.044   1.045   1.053   1.055   1.058   1.061   1.062
  1.063   1.065   1.067   1.068   1.069   1.071   1.072   1.074
  1.080   1.080   1.082   1.084   1.090   1.092   1.096   1.101
  1.105   1.113   1.118   1.119   1.120   1.123   1.124   1.125
  1.127   1.130   1.131   1.133   1.137   1.140   1.141   1.143
  1.144   1.148   1.149   1.150   1.153   1.156   1.161   1.164
  1.167   1.171   1.173   1.183   1.186   1.189   1.194   1.196
  1.198   1.207   1.212   1.214   1.216   1.226   1.228   1.232
  1.233   1.234   1.238   1.241   1.242   1.250   1.253   1.254
  1.254   1.256   1.257   1.259   1.265   1.274   1.278   1.281
  1.282   1.283   1.289   1.290   1.291   1.293   1.296   1.305
  1.307   1.308   1.309   1.312   1.313   1.319   1.321   1.322
  1.323   1.325   1.326   1.329   1.330   1.335   1.337   1.340
  1.345   1.350   1.354   1.357   1.360   1.361   1.365   1.368
  1.371   1.376   1.377   1.380   1.389   1.393   1.402   1.403
  1.407   1.409   1.411   1.417   1.431   1.432   1.434   1.434
  1.434   1.436   1.437   1.439   1.440   1.441   1.447   1.452
  1.457   1.460   1.470   1.473   1.475   1.481   1.485   1.492
  1.494   1.500   1.504   1.505   1.510   1.511   1.512   1.519
  1.522   1.523   1.524   1.525   1.526   1.529   1.533   1.534
  1.536   1.539   1.540   1.543   1.543   1.547   1.552   1.555
  1.556   1.559   1.560   1.561   1.562   1.563   1.565   1.569
  1.572   1.573   1.577   1.582   1.585   1.591   1.597   1.601
  1.604   1.605   1.608   1.616   1.618   1.625   1.628   1.629
  1.637   1.645   1.650   1.650   1.656   1.672   1.683   1.687
  1.690   1.697   1.710   1.711   1.729   1.735   1.736   1.741
  1.744   1.747   1.751   1.752   1.755   1.768   1.775   1.776
  1.786   1.791   1.794   1.799   1.801   1.802   1.802   1.803
  1.805   1.806   1.809   1.811   1.814   1.815   1.825   1.840
  1.849   1.855   1.864   1.865   1.867   1.872   1.874   1.876
  1.879   1.882   1.884   1.887   1.890   1.891   1.895   1.897
  1.900   1.911   1.913   1.913   1.917   1.920   1.923   1.923
  1.927   1.930   1.942   1.946   1.947   1.964   1.969   1.971
  1.973   1.974   1.976   1.977   1.979   1.983   1.987   1.999
  2.004   2.011   2.012   2.018   2.022   2.023   2.025   2.026
  2.027   2.031   2.034   2.038   2.045   2.049   2.051   2.052
  2.053   2.054   2.055   2.057   2.063   2.067   2.069   2.071
  2.074   2.076   2.077   2.088   2.091   2.097   2.104   2.104
  2.112   2.120   2.122   2.125   2.130   2.132   2.133   2.134
  2.134   2.142   2.149   2.149   2.151   2.152   2.153   2.155
  2.157   2.170   2.172   2.179   2.181   2.184   2.193   2.193
  2.195   2.197   2.205   2.205   2.208   2.209   2.224   2.225
  2.229   2.236   2.240   2.241   2.250   2.253   2.254   2.258
  2.261   2.262   2.262   2.263   2.270   2.270   2.273   2.275
  2.276   2.280   2.282   2.289   2.292   2.299   2.300   2.304
  2.307   2.313   2.313   2.315   2.315   2.317   2.321   2.324
  2.327   2.330   2.333   2.335   2.338   2.341   2.343   2.348
  2.350   2.350   2.351   2.352   2.356   2.358   2.358   2.362
  2.366   2.367   2.373   2.376   2.378   2.380   2.387   2.389
  2.390   2.391   2.395   2.397   2.398   2.402   2.405   2.407
  2.409   2.417   2.423   2.424   2.428   2.429   2.439   2.440
  2.444   2.449   2.462   2.471   2.471   2.474   2.477   2.480
  2.485   2.490   2.491   2.492   2.495   2.503   2.511   2.514
  2.526   2.538   2.542   2.543   2.550   2.551   2.554   2.561
  2.575   2.580   2.587   2.600   2.605   2.612   2.617   2.621
  2.622   2.632   2.633   2.636   2.638   2.660   2.668   2.668
  2.674   2.676   2.676   2.679   2.681   2.684   2.692   2.701
  2.703   2.717   2.720   2.721   2.724   2.727   2.730   2.738
  2.742   2.746   2.751   2.753   2.754   2.754   2.759   2.760
  2.768   2.772   2.773   2.774   2.776   2.777   2.778   2.783
  2.784   2.785   2.785   2.792   2.799   2.802   2.803   2.810
  2.814   2.814   2.819   2.819   2.823   2.824   2.834   2.835
  2.839   2.856   2.858   2.860   2.861   2.864   2.865   2.869
  2.872   2.885   2.897   2.900   2.916   2.919   2.924   2.936
  2.940   2.947   2.949   2.970   2.972   2.981   2.983   2.992
  2.996   2.997   3.000   3.006   3.011   3.041   3.055   3.066
  3.075   3.077   3.101   3.105   3.119   3.142   3.145   3.148
  3.173   3.193   3.198   3.221   3.228   3.232   3.249   3.251
  3.396   3.435   3.441   3.449   3.456   3.481   3.485   3.486
  3.515   3.527   3.603   3.603   3.649   3.657   3.668   3.673
  9.585   9.743  13.135  13.170  13.247  13.254  13.292  13.301
 13.455  13.489  13.503  13.517  13.541  13.542  13.664  13.675
 13.710  13.714  13.716  13.719  13.725  13.737  13.740  13.764
 13.770  13.770  13.782  13.787  13.795  13.797  13.852  13.855
 13.873  13.916  13.922  13.997  14.012  14.023  14.024  14.028
 14.030  14.037  14.039  14.042  14.150  14.156  14.157  14.164
 14.168  14.194  14.202  14.204  14.205  14.208  14.209  14.215
 14.226  14.273  14.286  14.291  14.297  14.305  14.308  14.314
 14.330  14.331  14.503  14.508  14.552  14.558  14.574  14.574
 14.590  14.591  14.607  14.615  14.636  14.643  19.624  19.632
 25.815  25.819
 --------------------------------------------------------------
 
          Ground-State Mulliken Net Atomic Charges

     Atom                 Charge (a.u.)
  ----------------------------------------
      1 N                    -0.700519
      2 C                     0.319474
      3 C                     0.340545
      4 C                    -0.332066
      5 H                     0.234457
      6 C                    -0.242738
      7 H                     0.214960
      8 C                    -0.222476
      9 H                     0.210324
     10 C                    -0.319627
     11 H                     0.245810
     12 C                     0.320428
     13 C                    -0.318634
     14 H                     0.246114
     15 C                    -0.222800
     16 H                     0.210223
     17 C                    -0.242645
     18 H                     0.214980
     19 C                    -0.332083
     20 H                     0.234565
     21 C                     0.339569
     22 C                     0.196513
     23 C                    -0.286743
     24 H                     0.229121
     25 C                     0.049901
     26 C                    -0.287934
     27 H                     0.229262
     28 C                     0.053825
     29 C                    -0.205505
     30 C                    -0.551773
     31 H                     0.254532
     32 H                     0.234553
     33 C                    -0.648087
     34 C                    -0.551968
     35 H                     0.234588
     36 H                     0.255771
     37 C                    -0.647352
     38 H                     0.244682
     39 H                     0.222277
     40 H                     0.219207
     41 B                     0.647630
     42 C                    -0.144311
     43 C                    -0.396827
     44 H                     0.231314
     45 C                     0.119226
     46 C                     0.090510
     47 C                    -0.386458
     48 H                     0.231909
     49 C                    -0.148100
     50 C                     0.200319
     51 C                    -0.383608
     52 H                     0.218808
     53 C                    -0.067331
     54 C                     0.251712
     55 C                     0.196754
     56 C                    -0.372150
     57 H                     0.217944
     58 C                    -0.201876
     59 H                     0.229270
     60 C                    -0.334621
     61 H                     0.224014
     62 C                    -0.328981
     63 H                     0.223746
     64 C                    -0.205648
     65 H                     0.229218
     66 C                    -0.146106
     67 C                    -0.396204
     68 H                     0.230194
     69 C                     0.120740
     70 C                     0.090419
     71 C                    -0.388237
     72 H                     0.231080
     73 C                    -0.145764
     74 C                     0.199509
     75 C                    -0.382864
     76 H                     0.218959
     77 C                    -0.066747
     78 C                     0.252468
     79 C                     0.195538
     80 C                    -0.372157
     81 H                     0.218335
     82 C                    -0.202048
     83 H                     0.229429
     84 C                    -0.334955
     85 H                     0.224046
     86 C                    -0.329396
     87 H                     0.223734
     88 C                    -0.205813
     89 H                     0.229367
     90 B                     0.655754
     91 C                    -0.219875
     92 C                     0.058865
     93 C                    -0.295651
     94 H                     0.226450
     95 C                     0.223324
     96 C                    -0.298059
     97 H                     0.226529
     98 C                     0.058203
     99 N                    -0.719236
    100 C                     0.340758
    101 C                     0.346427
    102 C                    -0.344005
    103 H                     0.236033
    104 C                    -0.236212
    105 H                     0.217263
    106 C                    -0.221142
    107 H                     0.211480
    108 C                    -0.328144
    109 H                     0.243945
    110 C                     0.340950
    111 C                     0.346791
    112 C                    -0.343899
    113 H                     0.236055
    114 C                    -0.236447
    115 H                     0.217355
    116 C                    -0.221328
    117 H                     0.212450
    118 C                    -0.329127
    119 H                     0.244276
    120 C                    -0.549885
    121 H                     0.235043
    122 H                     0.254009
    123 C                    -0.645810
    124 C                    -0.551825
    125 H                     0.235828
    126 H                     0.256055
    127 C                    -0.644574
    128 H                     0.239612
    129 H                     0.219459
    130 H                     0.222853
    131 H                     0.240744
    132 H                     0.222971
    133 H                     0.218974
    134 H                     0.219576
    135 H                     0.222456
    136 H                     0.244375
    137 O                    -0.491477
    138 O                    -0.476891
  ----------------------------------------
  Sum of atomic charges =    -0.000000

 -----------------------------------------------------------------
                    Cartesian Multipole Moments
 -----------------------------------------------------------------
    Charge (ESU x 10^10)
                -0.0000
    Dipole Moment (Debye)
         X      -0.3284      Y      -0.5364      Z       0.0719
       Tot       0.6331
    Quadrupole Moments (Debye-Ang)
        XX    -439.7332     XY     -46.8748     YY    -456.6316
        XZ     -21.7056     YZ      10.4203     ZZ    -478.8098
    Octopole Moments (Debye-Ang^2)
       XXX    4495.9993    XXY    2662.0963    XYY    2091.8814
       YYY    7296.4182    XXZ    2103.7643    XYZ     287.8189
       YYZ    1907.6306    XZZ    1821.6651    YZZ    2464.9555
       ZZZ    6292.9904
    Hexadecapole Moments (Debye-Ang^3)
      XXXX  -85437.4813   XXXY  -38185.3976   XXYY  -40305.7481
      XYYY  -42251.6561   YYYY -131971.1310   XXXZ  -26416.4758
      XXYZ  -15986.4524   XYYZ  -11611.7704   YYYZ  -41105.2575
      XXZZ  -28691.9077   XYZZ  -14296.0977   YYZZ  -32744.7157
      XZZZ  -27552.5843   YZZZ  -45083.1392   ZZZZ  -70359.3428
 -----------------------------------------------------------------
Archival summary:
1\1\ctcp012\OPT\ProcedureUnspecified\BasisUnspecified\2276256\mewes\FriNov1611:02:142018FriNov1611:02:142018\0\\#,OPT,ProcedureUnspecified,BasisUnspecified,\\0,1\N\C,1,1.3898\C,2,1.38932,1,122.801\H,3,1.08119,2,119.374,1,-0.0462415,0\C,3,1.38999,2,120.834,1,179.979,0\H,5,1.08172,3,119.126,2,179.967,0\C,5,1.38109,3,120.457,2,-0.0121604,0\H,7,1.08132,5,120.868,3,179.969,0\C,7,1.39003,5,119.25,3,-0.018348,0\H,9,1.08254,7,121.018,5,-179.947,0\C,9,1.37848,7,120.296,5,0.0126861,0\O,11,1.3629,9,117.202,7,-179.85,0\C,12,1.36288,11,118.866,9,-179.3,0\C,13,1.37843,12,117.227,11,179.165,0\H,14,1.08252,13,118.691,12,-0.162785,0\C,14,1.39016,13,120.243,12,179.772,0\H,16,1.08131,14,119.886,13,-179.945,0\C,16,1.38113,14,119.268,13,0.00842919,0\H,18,1.0817,16,120.394,14,-179.911,0\C,18,1.38991,16,120.483,14,0.069698,0\H,20,1.0811,18,119.815,16,-179.989,0\C,20,1.3891,18,120.802,16,-0.0297982,0\C,1,1.42041,2,120.095,3,-1.04448,0\C,23,1.3833,1,119.997,2,-91.1855,0\H,24,1.08482,23,119.186,1,-0.381996,0\C,23,1.38357,1,120.27,2,88.613,0\H,26,1.08485,23,119.199,1,0.094516,0\C,24,1.39004,23,120.554,1,-179.947,0\C,26,1.39092,23,120.515,1,-179.641,0\C,28,1.40392,24,120.385,23,-0.537696,0\C,29,1.50608,26,118.092,23,177.021,0\H,31,1.09203,29,110.399,26,151.668,0\H,31,1.09346,29,109.414,26,35.1883,0\C,28,1.50633,24,118.008,23,176.378,0\H,34,1.0917,28,110.417,24,152.999,0\H,34,1.09349,28,109.55,24,36.298,0\C,31,1.52701,29,111.77,26,-86.0756,0\H,37,1.08999,31,110.997,29,-60.6063,0\H,37,1.09084,31,111.144,29,179.401,0\H,37,1.09109,31,111.07,29,59.3116,0\C,34,1.52709,28,111.495,24,-84.9527,0\H,41,1.08998,34,110.889,28,-60.4437,0\H,41,1.09081,34,111.205,28,179.574,0\H,41,1.0911,34,111.065,28,59.3791,0\B,30,1.58739,28,120.249,24,-179.263,0\C,45,1.53393,30,120.865,28,-98.1954,0\C,46,1.40311,45,119.979,30,-0.797293,0\H,47,1.08537,46,119.174,45,0.760035,0\C,47,1.37278,46,120.864,45,-178.616,0\C,49,1.42523,47,120.511,46,-0.372315,0\C,50,1.37572,49,119.427,47,-0.142174,0\H,51,1.08564,50,119.49,49,-179.976,0\C,51,1.41217,50,121.129,49,0.532593,0\C,49,1.45344,47,130.881,46,178.091,0\C,54,1.3737,49,134.973,47,0.335236,0\H,55,1.08319,54,121.764,49,1.04644,0\C,54,1.40858,49,106.218,47,-178.463,0\C,57,1.39186,54,123.808,49,178.749,0\C,57,1.41154,54,111.343,49,-0.207624,0\C,59,1.37253,57,117.776,54,179.236,0\H,60,1.08296,59,121.647,57,-179.702,0\C,55,1.41157,54,118.473,49,-178.641,0\H,62,1.08278,55,118.538,54,179.876,0\C,62,1.37636,55,122.475,54,0.129565,0\H,64,1.08309,62,119.873,55,179.736,0\C,60,1.4132,59,118.743,57,-0.0421993,0\H,66,1.08273,60,118.477,59,-179.834,0\C,66,1.37617,60,122.806,59,-0.120345,0\H,68,1.08311,66,120.012,60,-179.708,0\B,53,1.5329,51,121.675,50,178.755,0\C,70,1.53169,53,120.519,51,-179.235,0\C,71,1.41227,70,121.72,53,179.604,0\H,72,1.0857,71,119.391,70,0.487138,0\C,72,1.37545,71,121.092,70,-178.883,0\C,74,1.42532,72,119.399,71,-0.0353561,0\C,75,1.37225,74,120.549,72,-0.368052,0\H,76,1.08513,75,119.835,74,-179.948,0\C,76,1.40289,75,120.866,74,0.428606,0\C,75,1.45415,74,108.598,72,178.759,0\C,79,1.37403,75,135.061,74,-178.959,0\H,80,1.08322,79,121.764,75,-0.666043,0\C,79,1.40845,75,106.183,74,0.223923,0\C,82,1.39248,79,123.737,75,-179.374,0\C,82,1.41157,79,111.407,75,-0.0221951,0\C,84,1.37292,82,117.702,79,-179.681,0\H,85,1.08293,84,121.652,82,179.958,0\C,80,1.4118,79,118.571,75,179.153,0\H,87,1.0828,80,118.556,79,-179.947,0\C,87,1.37613,80,122.425,79,-0.00906856,0\H,89,1.08317,87,119.906,80,-179.899,0\C,85,1.41347,84,118.791,82,0.0337674,0\H,91,1.08279,85,118.464,84,-179.911,0\C,91,1.37601,85,122.825,84,0.188938,0\H,93,1.08319,91,120.053,85,179.817,0\C,70,1.59515,53,119.863,51,0.0932103,0\C,95,1.40359,70,120.625,53,99.5477,0\C,96,1.39171,95,120.335,70,-179.786,0\H,97,1.08459,96,120.235,95,179.707,0\C,97,1.38064,96,119.304,95,-0.13405,0\C,99,1.38081,97,121.737,96,-0.248249,0\H,100,1.08446,99,120.487,97,-179.822,0\C,100,1.39157,99,119.247,97,0.298525,0\N,99,1.44101,97,119.153,96,179.276,0\C,103,1.36672,99,119.903,97,91.3874,0\C,103,1.36715,99,119.686,97,-88.6018,0\C,105,1.40175,103,122.314,99,0.387641,0\H,106,1.07961,105,119.566,103,0.0254848,0\C,106,1.37258,105,119.549,103,179.946,0\H,108,1.08001,106,119.263,105,-179.929,0\C,108,1.40032,106,120.94,105,0.0554733,0\H,110,1.08018,108,119.911,106,-179.993,0\C,110,1.37798,108,120.443,106,-0.0275617,0\H,112,1.08105,110,121.619,108,-179.986,0\C,112,1.38457,110,118.955,108,-0.0378122,0\O,114,1.34275,112,117.993,110,-179.947,0\C,115,1.34214,114,120.435,112,179.637,0\C,116,1.38479,115,118.133,114,-179.616,0\H,117,1.08101,116,119.462,115,0.0311631,0\C,117,1.37825,116,118.934,115,-179.993,0\H,119,1.08022,117,119.641,116,-179.986,0\C,119,1.40044,117,120.481,116,0.019048,0\H,121,1.08005,119,119.779,117,179.975,0\C,121,1.37242,119,120.936,117,-0.0145134,0\H,123,1.0796,121,120.87,119,179.969,0\C,102,1.50603,100,118.468,99,-177.947,0\H,125,1.09036,102,109.722,100,-147.225,0\H,125,1.09343,102,109.594,100,-30.7452,0\C,96,1.50636,95,121.143,70,-1.87183,0\H,128,1.09076,96,109.787,95,36.2215,0\H,128,1.09345,96,109.543,95,152.616,0\C,125,1.52724,102,112.033,100,91.0797,0\H,131,1.08905,125,111.104,102,60.1945,0\H,131,1.08986,125,110.577,102,179.658,0\H,131,1.09139,125,111.488,102,-60.4199,0\C,128,1.52759,96,112.253,95,-85.5801,0\H,135,1.08904,128,111.182,96,60.5107,0\H,135,1.09001,128,110.553,96,179.941,0\H,135,1.09125,128,111.477,96,-60.1606,0\\\@

 Total job time:  81616.69s(wall), 567623.98s(cpu) 
 Fri Nov 16 11:02:14 2018

        *************************************************************
        *                                                           *
        *  Thank you very much for using Q-Chem.  Have a nice day.  *
        *                                                           *
        *************************************************************


0 sent ACK to 0 
now end server 0 ... 
