mFile = /cm/shared/apps/q-chem/intel/QCHEM_5.1.0_Trunk/bin/mpi/machines
Process 0 of 1 is on ctcp035 - thread support 0
initial socket setup ...start
initial socket setup ...done 
now start server 0 ... 
Q-Chem Developer Version!
                  Welcome to Q-Chem
     A Quantum Leap Into The Future Of Chemistry


 Q-Chem 5.1, Q-Chem, Inc., Pleasanton, CA (2018)

 Yihan Shao,  Zhengting Gan,  E. Epifanovsky,  A. T. B. Gilbert,  M. Wormit,  
 J. Kussmann,  A. W. Lange,  A. Behn,  Jia Deng,  Xintian Feng,  D. Ghosh,  
 M. Goldey,  P. R. Horn,  L. D. Jacobson,  I. Kaliman,  T. Kus,  A. Landau,  
 Jie Liu,  E. I. Proynov,  R. M. Richard,  R. P. Steele,  E. J. Sundstrom,  
 H. L. Woodcock III,  P. M. Zimmerman,  D. Zuev,  B. Albrecht,  E. Alguire,  
 S. A. Baeppler,  D. Barton,  Z. Benda,  Y. A. Bernard,  E. J. Berquist,  
 K. B. Bravaya,  H. Burton,  D. Casanova,  Chun-Min Chang,  Yunqing Chen,  
 A. Chien,  K. D. Closser,  M. P. Coons,  S. Coriani,  S. Dasgupta,  
 A. L. Dempwolff,  M. Diedenhofen,  Hainam Do,  R. G. Edgar,  Po-Tung Fang,  
 S. Faraji,  S. Fatehi,  Qingguo Feng,  K. D. Fenk,  J. Fosso-Tande,  
 Qinghui Ge,  A. Ghysels,  G. Gidofalvi,  J. Gomes,  J. Gonthier,  A. Gunina,  
 D. Hait,  M. W. D. Hanson-Heine,  P. H. P. Harbach,  A. W. Hauser,  
 J. E. Herr,  E. G. Hohenstein,  Z. C. Holden,  Kerwin Hui,  B. C. Huynh,  
 T.-C. Jagau,  Hyunjun Ji,  B. Kaduk,  K. Khistyaev,  Jaehoon Kim,  
 P. Klunzinger,  K. Koh,  D. Kosenkov,  L. Koulias,  T. Kowalczyk,  
 C. M. Krauter,  A. Kunitsa,  Ka Un Lao,  A. Laurent,  K. V. Lawler,  
 Joonho Lee,  D. Lefrancois,  S. Lehtola,  D. S. Levine,  Yi-Pei Li,  
 You-Sheng Lin,  Fenglai Liu,  E. Livshits,  A. Luenser,  P. Manohar,  
 E. Mansoor,  S. F. Manzer,  Shan-Ping Mao,  Yuezhi Mao,  N. Mardirossian,  
 A. V. Marenich,  T. Markovich,  L. A. Martinez-Martinez,  S. A. Maurer,  
 N. J. Mayhall,  S. C. McKenzie,  J.-M. Mewes,  A. F. Morrison,  
 J. W. Mullinax,  K. Nanda,  T. S. Nguyen-Beck,  R. Olivares-Amaya,  
 J. A. Parkhill,  T. M. Perrine,  F. Plasser,  P. Pokhilko,  S. Prager,  
 A. Prociuk,  E. Ramos,  D. R. Rehn,  F. Rob,  M. Schneider,  N. Sergueev,  
 S. M. Sharada,  S. Sharma,  D. W. Small,  T. Stauch,  T. Stein,  
 Yu-Chuan Su,  A. J. W. Thom,  A. Tkatchenko,  T. Tsuchimochi,  N. M. Tubman,  
 L. Vogt,  M. L. Vidal,  O. Vydrov,  M. A. Watson,  J. Wenzel,  
 M. de Wergifosse,  T. A. Wesolowski,  A. White,  J. Witte,  A. Yamada,  
 Jun Yang,  K. Yao,  S. Yeganeh,  S. R. Yost,  Zhi-Qiang You,  A. Zech,  
 Igor Ying Zhang,  Xing Zhang,  Yan Zhao,  Ying Zhu,  B. R. Brooks,  
 G. K. L. Chan,  C. J. Cramer,  M. S. Gordon,  W. J. Hehre,  A. Klamt,  
 M. W. Schmidt,  C. D. Sherrill,  D. G. Truhlar,  A. Aspuru-Guzik,  R. Baer,  
 A. T. Bell,  N. A. Besley,  Jeng-Da Chai,  A. E. DePrince, III,  
 R. A. DiStasio Jr.,  A. Dreuw,  B. D. Dunietz,  T. R. Furlani,  
 Chao-Ping Hsu,  Yousung Jung,  Jing Kong,  D. S. Lambrecht,  WanZhen Liang,  
 C. Ochsenfeld,  V. A. Rassolov,  L. V. Slipchenko,  J. E. Subotnik,  
 T. Van Voorhis,  J. M. Herbert,  A. I. Krylov,  P. M. W. Gill,  M. Head-Gordon

 Contributors to earlier versions of Q-Chem not listed above: 
 R. D. Adamson,  B. Austin,  J. Baker,  G. J. O. Beran,  K. Brandhorst,  
 S. T. Brown,  E. F. C. Byrd,  A. K. Chakraborty,  C.-L. Cheng,  
 Siu Hung Chien,  D. M. Chipman,  D. L. Crittenden,  H. Dachsel,  
 R. J. Doerksen,  A. D. Dutoi,  L. Fusti-Molnar,  W. A. Goddard III,  
 A. Golubeva-Zadorozhnaya,  S. R. Gwaltney,  G. Hawkins,  A. Heyden,  
 S. Hirata,  G. Kedziora,  F. J. Keil,  C. Kelley,  Jihan Kim,  R. A. King,  
 R. Z. Khaliullin,  P. P. Korambath,  W. Kurlancheek,  A. M. Lee,  M. S. Lee,  
 S. V. Levchenko,  Ching Yeh Lin,  D. Liotard,  R. C. Lochan,  I. Lotan,  
 P. E. Maslen,  N. Nair,  D. P. O'Neill,  D. Neuhauser,  E. Neuscamman,  
 C. M. Oana,  R. Olson,  B. Peters,  R. Peverati,  P. A. Pieniazek,  
 Y. M. Rhee,  J. Ritchie,  M. A. Rohrdanz,  E. Rosta,  N. J. Russ,  
 H. F. Schaefer III,  N. E. Schultz,  N. Shenvi,  A. C. Simmonett,  A. Sodt,  
 D. Stuck,  K. S. Thanthiriwatte,  V. Vanovschi,  Tao Wang,  A. Warshel,  
 C. F. Williams,  Q. Wu,  X. Xu,  W. Zhang

 Please cite Q-Chem as follows:
 Y. Shao et al., Mol. Phys. 113, 184-215 (2015)
 DOI: 10.1080/00268976.2014.952696

 Q-Chem 5.1.1 for Intel X86 EM64T Linux

 Parts of Q-Chem use Armadillo 8.300.2 (Tropical Shenanigans).
 http://arma.sourceforge.net/

 Q-Chem begins on Tue Oct 23 15:07:50 2018  

Host: ctcp035
0

     Scratch files written to /scratch/mewes1/138160/plot_singlets_gsopt1.out.plots//
 Parallel job on  1  processors
Input Ideriv = 1
Curr. Ideriv = -1
Max.  Ideriv = 1

Checking the input file for inconsistencies... 	...done.

--------------------------------------------------------------
User input:
--------------------------------------------------------------
$rem
threads 8
jobtype	sp
method PBEh-3c
basis def2-mSVP
mem_static	1024
mem_total	14000
sym_ignore	true
cis_n_roots             6
cis_singlets            true
cis_triplets		false
rpa                     false
state_analysis 		true
make_cube_files		true
cis_moments		true
sym_ignore              true
$end

$plots
att. det. elec. hole and diff. dens for gsopt.out
129 -5.36 11.54
167 -13.22 7.52
123 -9.31 7.02
0 0 0 2
1 2
$end


$molecule
0 1
C 
C  1 1.397664
H  2 1.084571 1 119.725952
C  2 1.381616 1 120.003887 3 -177.511618 0
C  4 1.412284 2 120.210396 1 0.959614 0
C  5 1.381528 4 120.216200 2 -1.606845 0
H  6 1.084810 5 120.442787 4 178.498753 0
C  6 1.397532 5 119.935282 4 0.661266 0
C  4 1.464241 2 131.537841 1 175.660400 0
C  9 1.369732 4 135.324312 2 2.379578 0
H  10 1.082716 9 121.889006 4 2.315836 0
C  9 1.406758 4 106.167699 2 -174.521523 0
C  12 1.390901 9 124.290372 4 176.572400 0
C  12 1.407043 9 111.440996 4 -0.100566 0
C  14 1.370302 12 118.506884 9 176.623700 0
H  15 1.082930 14 121.933443 12 -178.763990 0
C  10 1.415069 9 118.594297 4 -176.836516 0
H  17 1.082166 10 118.514509 9 179.917097 0
C  17 1.374808 10 122.469608 9 0.765682 0
H  19 1.083240 17 119.910353 10 178.954688 0
C  15 1.415162 14 118.603888 12 0.414258 0
H  21 1.082268 15 118.516320 14 -179.772206 0
C  21 1.374784 15 122.426262 14 -0.302299 0
H  23 1.083240 21 119.870705 15 -179.324082 0
B  8 1.553610 6 120.018413 5 176.778167 0
B  1 1.555749 2 119.893135 3 3.312281 0
C  26 1.556623 1 119.767102 2 -177.612295 0
C  27 1.398051 26 120.450889 1 178.976618 0
H  28 1.084365 27 119.480664 26 -3.127438 0
C  28 1.383561 27 120.051077 26 174.293198 0
C  30 1.411849 28 120.001868 27 -0.571607 0
C  31 1.381985 30 120.418393 28 1.285267 0
H  32 1.084421 31 120.411079 30 -178.301127 0
C  32 1.396308 31 119.976790 30 -1.155413 0
C  31 1.461229 30 108.324666 28 -173.802575 0
C  35 1.369605 31 134.941614 30 174.660333 0
H  36 1.083043 35 121.868910 31 3.959793 0
C  35 1.406654 31 106.170806 30 -0.592965 0
C  38 1.389875 35 124.074276 31 175.771949 0
C  38 1.407794 35 111.324939 31 -0.092927 0
C  40 1.369530 38 118.360473 35 177.358937 0
H  41 1.082846 40 121.868537 38 -178.902905 0
C  36 1.414551 35 118.467056 31 -175.050600 0
H  43 1.082223 36 118.561753 35 179.753900 0
C  43 1.374969 36 122.385439 35 0.474082 0
H  45 1.083110 43 119.792945 36 179.115764 0
C  39 1.415416 38 116.019776 35 -177.269458 0
H  47 1.083065 39 120.081615 38 -179.932963 0
C  47 1.375005 39 120.044199 38 0.881686 0
H  49 1.082134 47 118.989062 39 179.382071 0
C  26 1.569191 1 119.105923 2 8.415106 0
C  51 1.392273 26 122.650729 1 -101.271401 0
C  52 1.396161 51 120.754221 26 179.827438 0
H  53 1.083201 52 118.610996 51 179.965472 0
C  53 1.386078 52 120.128516 51 0.393921 0
O  55 1.349667 53 124.720200 52 179.406613 0
C  55 1.393557 53 119.420852 52 -0.240503 0
H  57 1.083747 55 118.776235 53 179.345938 0
C  57 1.382000 55 120.814872 53 -0.139390 0
C  56 1.401558 55 118.536656 53 -0.303924 0
H  60 1.088122 56 106.636896 55 -179.692974 0
H  60 1.094989 56 112.322035 55 -60.994489 0
H  60 1.095087 56 112.365665 55 61.612070 0
C  59 1.504788 57 119.513860 55 179.818540 0
H  64 1.089535 59 111.534863 57 -5.733025 0
H  64 1.091823 59 111.583237 57 114.501960 0
H  64 1.092429 59 111.670243 57 -125.838605 0
C  52 1.506370 51 120.634819 26 2.402588 0
H  68 1.093300 52 109.747177 51 -146.864748 0
H  68 1.093890 52 110.146969 51 -30.785957 0
C  68 1.527328 52 112.354160 51 91.323101 0
H  71 1.090098 68 111.321543 52 -61.593509 0
H  71 1.090530 68 111.124427 52 178.522803 0
H  71 1.090752 68 111.137040 52 58.364636 0
C  25 1.570850 8 120.000177 6 -1.419670 0
C  75 1.393652 25 120.907566 8 -95.288386 0
C  76 1.395507 75 120.585423 25 -179.475940 0
H  77 1.083435 76 118.431568 75 179.509133 0
C  77 1.385847 76 120.282320 75 -0.111746 0
O  79 1.349926 77 124.480412 76 179.624420 0
C  79 1.394074 77 119.418716 76 -0.130623 0
H  81 1.083494 79 118.873893 77 179.571992 0
C  81 1.382716 79 120.604039 77 0.188163 0
C  80 1.401847 79 118.483113 77 -1.204043 0
H  84 1.088082 80 106.650293 79 -179.170147 0
H  84 1.095117 80 112.412349 79 62.130628 0
H  84 1.095145 80 112.346938 79 -60.467545 0
C  83 1.502919 81 120.088246 79 179.754108 0
H  88 1.089357 83 111.862311 81 -5.662502 0
H  88 1.092290 83 111.375207 81 114.725329 0
H  88 1.092291 83 111.348997 81 -125.984054 0
C  76 1.508590 75 121.229776 25 2.903954 0
H  92 1.093563 76 110.484104 75 -26.001224 0
H  92 1.093688 76 109.600000 75 -141.846965 0
C  92 1.527338 76 112.432606 75 96.435817 0
H  95 1.090302 92 111.259877 76 -60.844033 0
H  95 1.090586 92 111.006081 76 179.183512 0
H  95 1.090679 92 111.166862 76 59.142006 0
$end

--------------------------------------------------------------
 Adding empirical dispersion correction 
 ----------------------------------------------------------------
 Doing -D3(BJ) with
 s6 =   1.00000
 s8 =   0.00000
 a1 =   0.48600
 a2 =   4.50000
 -D3 energy including 3body term =     -0.0897172374 hartrees
 ----------------------------------------------------------------
 Adding gCP correction 
 ----------------------------------------------------------------
 gCP energy =      0.1420326896 hartrees
 ----------------------------------------------------------------
             Standard Nuclear Orientation (Angstroms)
    I     Atom           X                Y                Z
 ----------------------------------------------------------------
    1      C       0.0000000000     0.0000000000     0.0000000000
    2      C       0.0000000000     0.0000000000     1.3976640000
    3      H       0.9418490575     0.0000000000     1.9354507671
    4      C      -1.1953394723    -0.0519468068     2.0885531711
    5      C      -2.4189169235    -0.1255801018     1.3871385609
    6      C      -2.4302955450    -0.1127097556     0.0057173739
    7      H      -3.3660945338    -0.1935195475    -0.5370189952
    8      C      -1.2267717809    -0.0405221931    -0.7009757675
    9      C      -1.4858054706    -0.1475809303     3.5205047500
   10      C      -0.7361618222    -0.1786400764     4.6664696193
   11      H       0.3427638238    -0.0903006264     4.6467331401
   12      C      -2.8810030200    -0.2916172039     3.6284187003
   13      C      -3.5584698184    -0.4840985040     4.8278332567
   14      C      -3.4974103484    -0.2918099983     2.3635819629
   15      C      -4.8509305347    -0.4945526911     2.2957138774
   16      H      -5.3788613543    -0.5251525702     1.3506794431
   17      C      -1.3990491305    -0.3491691809     5.9049850676
   18      H      -0.8054090946    -0.3748842277     6.8094260528
   19      C      -2.7624321524    -0.4997207362     5.9978182597
   20      H      -3.2251624379    -0.6445309284     6.9664872376
   21      C      -5.5686295191    -0.6855799983     3.5003300909
   22      H      -6.6369998759    -0.8493139035     3.4448322275
   23      C      -4.9569345411    -0.6809876815     4.7315243125
   24      H      -5.5450918290    -0.8423215433     5.6267624302
   25      B      -1.2321472548    -0.1013752879    -2.2533842309
   26      B       1.3465134860    -0.0779290592    -0.7753602032
   27      C       1.3469313654    -0.0215652094    -2.3309623715
   28      C       2.5501129588    -0.0689558769    -3.0413529518
   29      H       3.4890914184    -0.0940474436    -2.4995621076
   30      C       2.5366277279    -0.1374299413    -4.4231526811
   31      C       1.3071308634    -0.1716778688    -5.1163208702
   32      C       0.1121164879    -0.1105501901    -4.4248828110
   33      H      -0.8322759889    -0.1645007174    -4.9551479293
   34      C       0.1158079438    -0.0386000526    -3.0304346830
   35      C       1.5849212996    -0.3918801857    -6.5339010632
   36      C       0.8178054170    -0.6033234995    -7.6486399581
   37      H      -0.2642448626    -0.5749753630    -7.6119559644
   38      C       2.9844870286    -0.4700031296    -6.6513235970
   39      C       3.6516244832    -0.7588051415    -7.8359220650
   40      C       3.6127322994    -0.3116880678    -5.4014723389
   41      C       4.9767822452    -0.4180360473    -5.3408895557
   42      H       5.5166690788    -0.3236876168    -4.4069858988
   43      C       1.4694911794    -0.8861135820    -8.8718692776
   44      H       0.8646915068    -1.0574371745    -9.7528188814
   45      C       2.8382487402    -0.9646849891    -8.9761238922
   46      H       3.2927125006    -1.1980546115    -9.9311781221
   47      C       5.0610986396    -0.8535491150    -7.7475555831
   48      H       5.6467827902    -1.0748941600    -8.6313034210
   49      C       5.6880455988    -0.6812406054    -6.5359921148
   50      H       6.7655983193    -0.7673230285    -6.4861529246
   51      C       2.6703754187    -0.3555256787     0.0200579852
   52      C       3.5728667143     0.6515491133     0.3513191076
   53      C       4.7377539313     0.3603181609     1.0637009167
   54      H       5.4159833619     1.1704632857     1.3024353353
   55      C       5.0131769731    -0.9438958762     1.4436747519
   56      O       6.1137308862    -1.3307000905     2.1224711831
   57      C       4.1157360615    -1.9573457201     1.1127361828
   58      H       4.3466781339    -2.9748793359     1.4056502655
   59      C       2.9565987663    -1.6763978182     0.4146008040
   60      C       7.0609085584    -0.3585733901     2.4720265623
   61      H       7.8586787161    -0.8766894546     3.0003522253
   62      H       7.4904162877     0.1377130614     1.5955428040
   63      H       6.6462916497     0.4075664607     3.1356063130
   64      C       2.0100275594    -2.7939678521     0.0690185499
   65      H       2.4203537642    -3.7650749485     0.3441002275
   66      H       1.0536607177    -2.6840105423     0.5841392324
   67      H       1.7940078058    -2.8231504957    -1.0014416125
   68      C       3.2843601599     2.0873273570    -0.0014632332
   69      H       4.2194797911     2.6079498081    -0.2246412535
   70      H       2.6895071828     2.1378684340    -0.9180824929
   71      C       2.5511548622     2.8243663581     1.1174265387
   72      H       1.5820359663     2.3695510782     1.3230117430
   73      H       2.3756510867     3.8673989530     0.8518383014
   74      H       3.1273040132     2.8068297408     2.0434311545
   75      C      -2.5874182831    -0.2776112324    -3.0278201897
   76      C      -3.0229952304    -1.5386834805    -3.4306047539
   77      C      -4.2228232775    -1.6862978112    -4.1277865479
   78      H      -4.5240682406    -2.6818358533    -4.4310799342
   79      C      -4.9984790880    -0.5773799030    -4.4265022054
   80      O      -6.1668536528    -0.6213064061    -5.1012403354
   81      C      -4.5709549613     0.6863714559    -4.0220297818
   82      H      -5.1807354275     1.5480146152    -4.2663617220
   83      C      -3.3826417053     0.8400420905    -3.3319569753
   84      C      -6.6285201100    -1.8634703300    -5.5584797471
   85      H      -7.5639197470    -1.6751608869    -6.0814419939
   86      H      -6.8247384387    -2.5632878886    -4.7393124895
   87      H      -5.9297897918    -2.3359741343    -6.2569485499
   88      C      -2.9300851574     2.2085281446    -2.9062763307
   89      H      -3.5829211195     2.9901940081    -3.2929316784
   90      H      -2.9134872686     2.3017711429    -1.8181000135
   91      H      -1.9185288694     2.4206333733    -3.2596385765
   92      C      -2.2445361097    -2.7831393943    -3.0825032400
   93      H      -1.1875799376    -2.5445740355    -2.9348202861
   94      H      -2.2719707494    -3.4805783225    -3.9245125769
   95      C      -2.7848234112    -3.4785827471    -1.8346212179
   96      H      -2.7271668863    -2.8267587155    -0.9625205309
   97      H      -2.2150641778    -4.3816402194    -1.6127215987
   98      H      -3.8289493974    -3.7657431327    -1.9647001128
 ----------------------------------------------------------------
 Nuclear Repulsion Energy =  7057.5561956257 hartrees
 There are      190 alpha and      190 beta electrons
 Requested basis set is def2-mSVP
 There are 476 shells and 924 basis functions

 Total QAlloc Memory Limit  14000 MB
 Mega-Array Size      1001 MB
 MEM_STATIC part      1024 MB
 A cutoff of  1.0D-11 yielded  41052 shell pairs
 There are    161254 function pairs (    177685 Cartesian)
 
 -------------------------------------------------------
 OpenMP Integral Computing Module                       
 Release: version 1.0, May 2013, Q-Chem Inc. Pittsburgh 
 -------------------------------------------------------
 Integral Job Info:
 Integral job number is                      11
 Integral operator is                         1
 short-range coefficients                     0
 long-range coefficients              100000000
 Omega coefficients                           0
 if combine SR and LR in K                    0
 Integral screening is                        0
 Integral computing path is                   2
 max size of driver memory is            800000
 size of driver memory is                593474
 size of scratch memory is              1809772
 max col of scratch BK array               1296
 max len of scratch array in speh3          155
 max len of scratch index in speh4           18
 max int batch size is                      520
 min int batch size is                       52
 fixed nKL is                                52
 max L of basis functions is                  2
 order of int derivative is                   0
 number of shells is                        476
 number of basis is                         980
 number of cartesian basis is               980
 number of contracted shell pairs         41052
 number of primitive shell pairs          85795
 maxK2 (contraction) of shell pair           25
 max number of K2 of shell pair               1
 max number of CS2 of shell pair           9998
 max number of PS2 of shell pair          15265
 mem total for path MDJ                  920316
 -------------------------------------------------------
 Smallest overlap matrix eigenvalue = 1.97E-04

 Scale SEOQF with 1.000000e-02/1.000000e-01/1.000000e-02

 Standard Electronic Orientation quadrupole field applied
 Nucleus-field energy     =    -0.0000000104 hartrees
 Guess from superposition of atomic densities
 Warning:  Energy on first SCF cycle will be non-variational
 SAD guess density has 380.000000 electrons

 -----------------------------------------------------------------------
  General SCF calculation program by
  Eric Jon Sundstrom, Paul Horn, Yuezhi Mao, Dmitri Zuev, Alec White,
  David Stuck, Shaama M.S., Shane Yost, Joonho Lee, David Small,
  Daniel Levine, Susi Lehtola, Hugh Burton, Evgeny Epifanovsky
 -----------------------------------------------------------------------
 Exchange:     0.4200 Hartree-Fock + 0.5800 PBEh-3c
 Correlation:  1.0000 PBEh-3c
 Using SG-1 standard quadrature grid
 Dispersion:   Grimme D3
 using 8 threads for integral computing
 -------------------------------------------------------
 OpenMP Integral computing Module                
 Release: version 2.0, May 2017, Q-Chem Inc. Pleasanton 
 -------------------------------------------------------
 -------------------------------------------------------
 OpenMP BLAS3 based DFT computing Module                
 Release: version 1.0, May 2013, Q-Chem Inc. Pittsburgh 
 -------------------------------------------------------
 A restricted SCF calculation will be
 performed using DIIS
 SCF converges when DIIS error is below 1.0e-08
 ---------------------------------------
  Cycle       Energy         DIIS error
 ---------------------------------------
    1   -2220.5628428806      2.80e-02  
    2   -2201.8076416445      1.90e-03  
    3   -2201.9649992122      1.57e-03  
    4   -2202.2144255121      5.73e-04  
    5   -2202.2501577052      2.11e-04  
    6   -2202.2549968715      6.87e-05  
    7   -2202.2554896602      1.97e-05  
    8   -2202.2555325517      5.70e-06  
    9   -2202.2555363336      1.49e-06  
   10   -2202.2555366403      7.55e-07  
   11   -2202.2555367247      2.18e-07  
   12   -2202.2555367337      8.78e-08  
   13   -2202.2555367351      2.38e-08  
   14   -2202.2555367352      1.10e-08  
   15   -2202.2555367352      6.09e-09  Convergence criterion met
 ---------------------------------------
 SCF time:   CPU 8992.92s  wall 1126.00s 
 SCF   energy in the final basis set =    -2202.2555367352
 Total energy in the final basis set =    -2202.2555367352
 
 Direct TDDFT/TDA calculation will be performed
 Exchange:     0.4200 Hartree-Fock + 0.5800 PBEh-3c
 Correlation:  1.0000 PBEh-3c
 Using SG-1 standard quadrature grid
 Dispersion:   Grimme D3
 Singlet excitation energies requested
 CIS energy converged when residual is below 10e- 6
 ---------------------------------------------------
 Iter    Rts Conv    Rts Left    Ttl Dev     Max Dev
 ---------------------------------------------------
   1         0           6      0.000623    0.000187
   2         0           6      0.000234    0.000048
   3         0           6      0.000122    0.000042
   4         0           6      0.000050    0.000019
   5         0           6      0.000030    0.000010
   6         2           4      0.000078    0.000069
   7         4           2      0.000029    0.000025
   8         5           1      0.000016    0.000013
   9         5           1      0.000010    0.000007
  10         5           1      0.000006    0.000003
  11         5           1      0.000005    0.000002
  12         5           1      0.000005    0.000002
  13         5           1      0.000004    0.000001
  14         6           0      0.000004    0.000001    Roots Converged
 ---------------------------------------------------
 
 ---------------------------------------------------
         TDDFT/TDA Excitation Energies              
 ---------------------------------------------------

 Excited state   1: excitation energy (eV) =    2.9555
 Total energy for state  1:                 -2202.14692278 au
    Multiplicity: Singlet
    Trans. Mom.: -0.2081 X   0.0087 Y  -0.5231 Z
    Strength   :     0.0229562772
    D(190) --> V(  1) amplitude =  0.9543

 Excited state   2: excitation energy (eV) =    3.0365
 Total energy for state  2:                 -2202.14394591 au
    Multiplicity: Singlet
    Trans. Mom.:  0.0077 X  -0.0095 Y   0.1066 Z
    Strength   :     0.0008565633
    D(187) --> V(  1) amplitude =  0.7805
    D(189) --> V(  1) amplitude = -0.5423

 Excited state   3: excitation energy (eV) =    3.0805
 Total energy for state  3:                 -2202.14233203 au
    Multiplicity: Singlet
    Trans. Mom.: -0.0182 X   0.0099 Y  -0.0168 Z
    Strength   :     0.0000536650
    D(187) --> V(  1) amplitude =  0.5237
    D(189) --> V(  1) amplitude =  0.7987

 Excited state   4: excitation energy (eV) =    3.3375
 Total energy for state  4:                 -2202.13288734 au
    Multiplicity: Singlet
    Trans. Mom.: -1.7113 X   0.0671 Y   2.9360 Z
    Strength   :     0.9446519194
    D(188) --> V(  1) amplitude =  0.9140

 Excited state   5: excitation energy (eV) =    3.6244
 Total energy for state  5:                 -2202.12234358 au
    Multiplicity: Singlet
    Trans. Mom.:  0.0562 X   0.1663 Y  -0.0148 Z
    Strength   :     0.0027573315
    D(186) --> V(  1) amplitude =  0.9217

 Excited state   6: excitation energy (eV) =    3.7092
 Total energy for state  6:                 -2202.11922573 au
    Multiplicity: Singlet
    Trans. Mom.:  0.6506 X   0.0273 Y   0.3786 Z
    Strength   :     0.0515552506
    D(183) --> V(  1) amplitude =  0.7061
    D(187) --> V(  2) amplitude = -0.5852
 
 ---------------------------------------------------
  SETman timing summary (seconds)
  CPU time             13222.14s
  System time              0.00s
  Wall time             1760.96s
================================================================================
                             Excited State Analysis
================================================================================

Created directory /scratch/mewes1/138160/plot_singlets_gsopt1.out.plots/plots
  ----------------------------------------------------------------------------
                            Density Matrix Analysis
  ----------------------------------------------------------------------------

  Excited state   1:
  ------------------
    NOs
      Occupation of frontier NOs:
         0.9805   1.0195
      Number of electrons: 380.000000
      Number of unpaired electrons: n_u =  2.00000, n_u,nl =  2.00068
      NO participation ratio (PR_NO):  2.079919
    
    
    Mulliken Population Analysis
    Atom      Charge (e)              h+              e-           Del q
    --------------------------------------------------------------------
     1 C       -0.182908        0.020241       -0.052690       -0.032448
     2 C       -0.406643        0.005826       -0.013501       -0.007676
     3 H        0.239773        0.000386       -0.000003        0.000383
     4 C        0.061555        0.002126       -0.040743       -0.038617
     5 C        0.054795        0.001205       -0.040514       -0.039310
     6 C       -0.404914        0.005951       -0.013517       -0.007566
     7 H        0.238977        0.000365       -0.000008        0.000357
     8 C       -0.177835        0.021268       -0.051974       -0.030706
     9 C        0.191854        0.000735       -0.002901       -0.002166
    10 C       -0.402309        0.000428       -0.020881       -0.020453
    11 H        0.220666        0.000008       -0.000001        0.000008
    12 C       -0.061292        0.000734       -0.000167        0.000567
    13 C        0.248656        0.000051       -0.000357       -0.000306
    14 C        0.191942        0.000297       -0.002928       -0.002631
    15 C       -0.402648        0.000096       -0.020916       -0.020820
    16 H        0.220978        0.000010       -0.000001        0.000009
    17 C       -0.204936        0.000239       -0.001055       -0.000816
    18 H        0.226036        0.000001       -0.000000        0.000000
    19 C       -0.349977        0.000706       -0.016727       -0.016022
    20 H        0.219722        0.000002       -0.000001        0.000001
    21 C       -0.205263        0.000012       -0.001044       -0.001031
    22 H        0.226125        0.000001       -0.000001        0.000000
    23 C       -0.350004        0.000036       -0.016739       -0.016703
    24 H        0.219695        0.000002       -0.000000        0.000001
    25 B        0.500994        0.010500       -0.184427       -0.173927
    26 B        0.499356        0.010707       -0.187064       -0.176357
    27 C       -0.184509        0.018950       -0.050179       -0.031229
    28 C       -0.392430        0.006058       -0.014300       -0.008242
    29 H        0.230949        0.000409       -0.000003        0.000406
    30 C        0.062909        0.001010       -0.038404       -0.037393
    31 C        0.053345        0.001002       -0.039507       -0.038505
    32 C       -0.386476        0.006402       -0.013501       -0.007098
    33 H        0.234241        0.000363       -0.000003        0.000359
    34 C       -0.191328        0.018307       -0.049926       -0.031619
    35 C        0.189058        0.000602       -0.002719       -0.002117
    36 C       -0.397668        0.000377       -0.020201       -0.019824
    37 H        0.220764        0.000008       -0.000000        0.000007
    38 C       -0.060279        0.000132       -0.000158       -0.000026
    39 C        0.249168        0.000032       -0.000342       -0.000310
    40 C        0.190219        0.000552       -0.002699       -0.002148
    41 C       -0.400475        0.000386       -0.019856       -0.019470
    42 H        0.219843        0.000007       -0.000003        0.000005
    43 C       -0.205867        0.000127       -0.000993       -0.000867
    44 H        0.225606        0.000001       -0.000000        0.000000
    45 C       -0.348941        0.000464       -0.016204       -0.015740
    46 H        0.219299        0.000002       -0.000001        0.000001
    47 C       -0.350083        0.000404       -0.015776       -0.015373
    48 H        0.219510        0.000002       -0.000001        0.000001
    49 C       -0.204474        0.000078       -0.000970       -0.000892
    50 H        0.225494        0.000001       -0.000001        0.000000
    51 C       -0.079876        0.147053       -0.008705        0.138347
    52 C        0.140255        0.048866       -0.002750        0.046117
    53 C       -0.389569        0.035422       -0.000554        0.034868
    54 H        0.220529        0.000003       -0.000227       -0.000224
    55 C        0.476177        0.073684       -0.000513        0.073171
    56 O       -0.404014        0.049569       -0.000130        0.049439
    57 C       -0.344995        0.039149       -0.000847        0.038301
    58 H        0.220907        0.000004       -0.000255       -0.000251
    59 C        0.077420        0.025947       -0.001843        0.024104
    60 C       -0.405136        0.000095       -0.000017        0.000079
    61 H        0.238895        0.000001       -0.000013       -0.000012
    62 H        0.206624        0.003650       -0.000027        0.003623
    63 H        0.206195        0.003645       -0.000012        0.003633
    64 C       -0.761874        0.001275       -0.002497       -0.001222
    65 H        0.236813        0.000015       -0.001178       -0.001163
    66 H        0.250643        0.001358        0.000093        0.001452
    67 H        0.246399        0.001103        0.000216        0.001319
    68 C       -0.547319        0.001445       -0.002499       -0.001054
    69 H        0.225869        0.000992       -0.000584        0.000408
    70 H        0.249357        0.000679       -0.000816       -0.000137
    71 C       -0.639285        0.003436       -0.000085        0.003351
    72 H        0.239403        0.000042       -0.000131       -0.000088
    73 H        0.220069        0.000650        0.000015        0.000665
    74 H        0.213475        0.000047       -0.000001        0.000046
    75 C       -0.096494        0.142557       -0.009196        0.133361
    76 C        0.120879        0.048525       -0.002119        0.046407
    77 C       -0.396955        0.031247       -0.000504        0.030743
    78 H        0.221201        0.000002       -0.000208       -0.000205
    79 C        0.473178        0.070930       -0.000338        0.070592
    80 O       -0.405933        0.047895       -0.000080        0.047815
    81 C       -0.338646        0.041216       -0.000758        0.040458
    82 H        0.220395        0.000002       -0.000268       -0.000266
    83 C        0.095751        0.024277       -0.001544        0.022733
    84 C       -0.405502        0.000110       -0.000012        0.000097
    85 H        0.238980        0.000002       -0.000010       -0.000008
    86 H        0.206329        0.003520       -0.000007        0.003513
    87 H        0.206653        0.003529       -0.000017        0.003512
    88 C       -0.760352        0.001442       -0.002672       -0.001230
    89 H        0.235620        0.000021       -0.001339       -0.001318
    90 H        0.246260        0.001285        0.000156        0.001441
    91 H        0.245364        0.001036        0.000025        0.001061
    92 C       -0.552399        0.001211       -0.002808       -0.001597
    93 H        0.255802        0.000478       -0.000397        0.000081
    94 H        0.228347        0.001293       -0.000562        0.000731
    95 C       -0.636543        0.003122       -0.000036        0.003085
    96 H        0.240550        0.000046       -0.000018        0.000028
    97 H        0.218210        0.000501        0.000004        0.000505
    98 H        0.212075        0.000017       -0.000027       -0.000010
    --------------------------------------------------------------------
    Sum:       -0.000000        1.000000       -1.000000       -0.000000
    
    Exciton analysis of the difference density matrix
      <r_h> [Ang]:                  [  0.091431,  -0.482569,  -1.453615]
      <r_e> [Ang]:                  [  0.042475,  -0.145994,  -1.471953]
      |<r_e - r_h>| [Ang]:            0.340611
      Hole size [Ang]:                4.685283
        Cartesian components [Ang]: [  3.891688,   0.918980,   2.441745]
      Electron size [Ang]:            3.762744
        Cartesian components [Ang]: [  2.148557,   0.944619,   2.941027]

  Excited state   2:
  ------------------
    NOs
      Occupation of frontier NOs:
         0.9488   1.0512
      Number of electrons: 380.000000
      Number of unpaired electrons: n_u =  2.00000, n_u,nl =  1.99592
      NO participation ratio (PR_NO):  2.219732
    
    
    Mulliken Population Analysis
    Atom      Charge (e)              h+              e-           Del q
    --------------------------------------------------------------------
     1 C       -0.123946        0.074804       -0.048290        0.026514
     2 C       -0.407281        0.003215       -0.011529       -0.008314
     3 H        0.239451        0.000075       -0.000014        0.000061
     4 C        0.119308        0.059723       -0.040587        0.019136
     5 C        0.110849        0.057181       -0.040437        0.016744
     6 C       -0.405709        0.002974       -0.011336       -0.008362
     7 H        0.238714        0.000099       -0.000005        0.000094
     8 C       -0.115535        0.079292       -0.047698        0.031595
     9 C        0.195861        0.008593       -0.006753        0.001841
    10 C       -0.403125        0.004658       -0.025926       -0.021269
    11 H        0.220659        0.000006       -0.000005        0.000001
    12 C       -0.016581        0.045725       -0.000448        0.045277
    13 C        0.249764        0.001373       -0.000571        0.000803
    14 C        0.194837        0.006980       -0.006717        0.000264
    15 C       -0.404176        0.003554       -0.025902       -0.022348
    16 H        0.220971        0.000004       -0.000002        0.000002
    17 C       -0.200388        0.005816       -0.002083        0.003732
    18 H        0.226038        0.000004       -0.000001        0.000002
    19 C       -0.343608        0.012296       -0.021948       -0.009652
    20 H        0.219715        0.000010       -0.000015       -0.000006
    21 C       -0.201284        0.005022       -0.002074        0.002948
    22 H        0.226127        0.000003       -0.000001        0.000002
    23 C       -0.345173        0.010087       -0.021959       -0.011872
    24 H        0.219689        0.000008       -0.000012       -0.000004
    25 B        0.510915        0.001577       -0.165584       -0.164006
    26 B        0.507578        0.001480       -0.169615       -0.168134
    27 C       -0.113094        0.087248       -0.047063        0.040186
    28 C       -0.392472        0.003607       -0.011892       -0.008285
    29 H        0.230686        0.000142        0.000001        0.000143
    30 C        0.120467        0.059945       -0.039780        0.020164
    31 C        0.118000        0.066941       -0.040790        0.026150
    32 C       -0.387056        0.003902       -0.011580       -0.007679
    33 H        0.233929        0.000060       -0.000013        0.000047
    34 C       -0.131508        0.075712       -0.047510        0.028202
    35 C        0.194947        0.010923       -0.007151        0.003772
    36 C       -0.398015        0.006225       -0.026395       -0.020171
    37 H        0.220759        0.000008       -0.000006        0.000002
    38 C       -0.010883        0.049860       -0.000490        0.049370
    39 C        0.250385        0.001505       -0.000598        0.000907
    40 C        0.191674        0.006446       -0.007140       -0.000693
    41 C       -0.404331        0.003072       -0.026397       -0.023326
    42 H        0.219843        0.000007       -0.000002        0.000005
    43 C       -0.200243        0.007005       -0.002248        0.004757
    44 H        0.225608        0.000005       -0.000002        0.000003
    45 C       -0.340274        0.015531       -0.022604       -0.007073
    46 H        0.219290        0.000012       -0.000020       -0.000007
    47 C       -0.347718        0.009373       -0.022380       -0.013007
    48 H        0.219506        0.000007       -0.000011       -0.000004
    49 C       -0.200828        0.004907       -0.002154        0.002754
    50 H        0.225496        0.000004       -0.000001        0.000003
    51 C       -0.184283        0.038838       -0.004897        0.033941
    52 C        0.104902        0.013388       -0.002624        0.010763
    53 C       -0.415682        0.009226       -0.000471        0.008754
    54 H        0.220554        0.000001       -0.000202       -0.000200
    55 C        0.422495        0.019936       -0.000446        0.019489
    56 O       -0.439683        0.013886       -0.000117        0.013769
    57 C       -0.372230        0.011765       -0.000699        0.011067
    58 H        0.220939        0.000002       -0.000220       -0.000218
    59 C        0.057148        0.005473       -0.001642        0.003831
    60 C       -0.405185        0.000040       -0.000010        0.000030
    61 H        0.238898        0.000000       -0.000009       -0.000009
    62 H        0.204001        0.001018       -0.000017        0.001001
    63 H        0.203573        0.001021       -0.000009        0.001011
    64 C       -0.762574        0.000076       -0.001999       -0.001923
    65 H        0.236998        0.000008       -0.000986       -0.000978
    66 H        0.249460        0.000182        0.000086        0.000268
    67 H        0.245630        0.000368        0.000182        0.000550
    68 C       -0.547340        0.001076       -0.002151       -0.001075
    69 H        0.225154        0.000163       -0.000470       -0.000307
    70 H        0.249026        0.000314       -0.000781       -0.000467
    71 C       -0.641384        0.001378       -0.000126        0.001252
    72 H        0.239435        0.000081       -0.000138       -0.000057
    73 H        0.219630        0.000216        0.000011        0.000226
    74 H        0.213608        0.000181       -0.000003        0.000178
    75 C       -0.205679        0.029018       -0.004842        0.024176
    76 C        0.081027        0.008507       -0.001953        0.006554
    77 C       -0.421787        0.006322       -0.000410        0.005912
    78 H        0.221230        0.000001       -0.000178       -0.000176
    79 C        0.415909        0.013602       -0.000279        0.013323
    80 O       -0.444302        0.009517       -0.000071        0.009446
    81 C       -0.371414        0.008315       -0.000624        0.007690
    82 H        0.220426        0.000002       -0.000237       -0.000236
    83 C        0.076197        0.004715       -0.001536        0.003179
    84 C       -0.405581        0.000026       -0.000008        0.000019
    85 H        0.238982        0.000000       -0.000007       -0.000006
    86 H        0.203509        0.000698       -0.000005        0.000693
    87 H        0.203833        0.000704       -0.000011        0.000692
    88 C       -0.760327        0.000940       -0.002146       -0.001206
    89 H        0.235871        0.000028       -0.001095       -0.001067
    90 H        0.245328        0.000395        0.000114        0.000509
    91 H        0.244510        0.000227       -0.000020        0.000207
    92 C       -0.552865        0.000272       -0.002335       -0.002062
    93 H        0.255562        0.000171       -0.000330       -0.000159
    94 H        0.227467        0.000296       -0.000445       -0.000149
    95 C       -0.639222        0.000464       -0.000058        0.000406
    96 H        0.240522        0.000022       -0.000022       -0.000001
    97 H        0.217787        0.000081        0.000001        0.000082
    98 H        0.212093        0.000035       -0.000027        0.000008
    --------------------------------------------------------------------
    Sum:       -0.000000        1.000000       -1.000000       -0.000000
    
    Exciton analysis of the difference density matrix
      <r_h> [Ang]:                  [  0.237203,  -0.245884,  -1.540779]
      <r_e> [Ang]:                  [  0.074718,  -0.176326,  -1.522108]
      |<r_e - r_h>| [Ang]:            0.177731
      Hole size [Ang]:                4.447146
        Cartesian components [Ang]: [  2.674499,   0.859316,   3.447570]
      Electron size [Ang]:            4.127077
        Cartesian components [Ang]: [  2.308861,   0.939294,   3.289323]

  Excited state   3:
  ------------------
    NOs
      Occupation of frontier NOs:
         0.9679   1.0321
      Number of electrons: 380.000000
      Number of unpaired electrons: n_u =  2.00000, n_u,nl =  1.99902
      NO participation ratio (PR_NO):  2.133967
    
    
    Mulliken Population Analysis
    Atom      Charge (e)              h+              e-           Del q
    --------------------------------------------------------------------
     1 C       -0.169845        0.031834       -0.051219       -0.019385
     2 C       -0.408951        0.002257       -0.012241       -0.009984
     3 H        0.239775        0.000388       -0.000003        0.000385
     4 C        0.072725        0.014090       -0.041537       -0.027447
     5 C        0.073477        0.019519       -0.040147       -0.020628
     6 C       -0.408238        0.002522       -0.013412       -0.010891
     7 H        0.238974        0.000369       -0.000014        0.000354
     8 C       -0.173837        0.023904       -0.050611       -0.026707
     9 C        0.190959        0.001146       -0.004208       -0.003062
    10 C       -0.404541        0.000334       -0.023019       -0.022685
    11 H        0.220659        0.000002       -0.000001        0.000000
    12 C       -0.048830        0.013296       -0.000266        0.013029
    13 C        0.248961        0.000434       -0.000434        0.000000
    14 C        0.194918        0.004533       -0.004188        0.000345
    15 C       -0.401737        0.002546       -0.022455       -0.019909
    16 H        0.220968        0.000003       -0.000004       -0.000001
    17 C       -0.204559        0.000934       -0.001373       -0.000439
    18 H        0.226037        0.000003       -0.000001        0.000002
    19 C       -0.351502        0.001347       -0.018893       -0.017546
    20 H        0.219723        0.000004       -0.000002        0.000002
    21 C       -0.203094        0.002574       -0.001436        0.001138
    22 H        0.226126        0.000003       -0.000001        0.000002
    23 C       -0.345839        0.005889       -0.018427       -0.012538
    24 H        0.219693        0.000007       -0.000008       -0.000001
    25 B        0.496199        0.002348       -0.181070       -0.178722
    26 B        0.501726        0.002406       -0.176393       -0.173987
    27 C       -0.179502        0.023184       -0.049407       -0.026222
    28 C       -0.394978        0.002462       -0.013253       -0.010791
    29 H        0.230966        0.000429       -0.000007        0.000423
    30 C        0.081369        0.020407       -0.039341       -0.018934
    31 C        0.066823        0.014494       -0.039520       -0.025027
    32 C       -0.390179        0.002290       -0.013091       -0.010801
    33 H        0.234219        0.000340       -0.000003        0.000337
    34 C       -0.177343        0.030889       -0.048523       -0.017634
    35 C        0.188347        0.001253       -0.004081       -0.002828
    36 C       -0.399808        0.000346       -0.022309       -0.021963
    37 H        0.220756        0.000001       -0.000001       -0.000000
    38 C       -0.046702        0.013813       -0.000262        0.013551
    39 C        0.249494        0.000441       -0.000425        0.000017
    40 C        0.192875        0.004634       -0.004126        0.000508
    41 C       -0.400266        0.002658       -0.021918       -0.019260
    42 H        0.219836        0.000002       -0.000004       -0.000002
    43 C       -0.205379        0.000970       -0.001348       -0.000378
    44 H        0.225607        0.000002       -0.000001        0.000002
    45 C       -0.350131        0.001415       -0.018345       -0.016930
    46 H        0.219299        0.000003       -0.000002        0.000002
    47 C       -0.346511        0.006157       -0.017957       -0.011800
    48 H        0.219509        0.000008       -0.000008       -0.000000
    49 C       -0.202309        0.002669       -0.001396        0.001273
    50 H        0.225495        0.000003       -0.000001        0.000002
    51 C       -0.107270        0.118347       -0.007393        0.110954
    52 C        0.125668        0.034161       -0.002631        0.031530
    53 C       -0.396381        0.028574       -0.000518        0.028056
    54 H        0.220543        0.000003       -0.000213       -0.000211
    55 C        0.459036        0.056510       -0.000480        0.056030
    56 O       -0.413367        0.040209       -0.000123        0.040086
    57 C       -0.351182        0.032904       -0.000789        0.032115
    58 H        0.220919        0.000003       -0.000241       -0.000238
    59 C        0.069232        0.017676       -0.001760        0.015916
    60 C       -0.405113        0.000116       -0.000015        0.000102
    61 H        0.238896        0.000001       -0.000011       -0.000011
    62 H        0.205935        0.002958       -0.000023        0.002935
    63 H        0.205505        0.002954       -0.000011        0.002943
    64 C       -0.761210        0.001769       -0.002328       -0.000559
    65 H        0.236918        0.000044       -0.001102       -0.001058
    66 H        0.250455        0.001173        0.000091        0.001264
    67 H        0.246079        0.000809        0.000190        0.000999
    68 C       -0.547656        0.000954       -0.002345       -0.001391
    69 H        0.225778        0.000860       -0.000543        0.000317
    70 H        0.249172        0.000489       -0.000810       -0.000321
    71 C       -0.640283        0.002450       -0.000097        0.002353
    72 H        0.239352       -0.000004       -0.000136       -0.000140
    73 H        0.219848        0.000431        0.000013        0.000444
    74 H        0.213424       -0.000004       -0.000002       -0.000006
    75 C       -0.104312        0.134258       -0.008715        0.125543
    76 C        0.113879        0.041509       -0.002102        0.039407
    77 C       -0.397341        0.030857       -0.000500        0.030357
    78 H        0.221203        0.000002       -0.000205       -0.000203
    79 C        0.467809        0.065550       -0.000328        0.065222
    80 O       -0.407158        0.046668       -0.000078        0.046590
    81 C       -0.339450        0.040402       -0.000748        0.039654
    82 H        0.220403        0.000002       -0.000260       -0.000259
    83 C        0.090234        0.018718       -0.001502        0.017216
    84 C       -0.405463        0.000149       -0.000012        0.000137
    85 H        0.238980        0.000001       -0.000010       -0.000008
    86 H        0.206235        0.003426       -0.000006        0.003420
    87 H        0.206553        0.003428       -0.000016        0.003412
    88 C       -0.760934        0.000792       -0.002604       -0.001813
    89 H        0.235622        0.000011       -0.001326       -0.001316
    90 H        0.245911        0.000942        0.000150        0.001092
    91 H        0.245249        0.000929        0.000017        0.000946
    92 C       -0.551792        0.001755       -0.002744       -0.000989
    93 H        0.255788        0.000474       -0.000406        0.000068
    94 H        0.228183        0.001119       -0.000551        0.000567
    95 C       -0.636272        0.003396       -0.000040        0.003356
    96 H        0.240550        0.000049       -0.000021        0.000028
    97 H        0.218181        0.000471        0.000005        0.000476
    98 H        0.212203        0.000146       -0.000027        0.000119
    --------------------------------------------------------------------
    Sum:       -0.000000        1.000000       -1.000000       -0.000000
    
    Exciton analysis of the difference density matrix
      <r_h> [Ang]:                  [ -0.159388,  -0.452258,  -1.627560]
      <r_e> [Ang]:                  [  0.035847,  -0.153280,  -1.488039]
      |<r_e - r_h>| [Ang]:            0.383368
      Hole size [Ang]:                4.766945
        Cartesian components [Ang]: [  3.777786,   0.926577,   2.755641]
      Electron size [Ang]:            3.893884
        Cartesian components [Ang]: [  2.204958,   0.943932,   3.067489]

  Excited state   4:
  ------------------
    NOs
      Occupation of frontier NOs:
         0.9139   1.0861
      Number of electrons: 380.000000
      Number of unpaired electrons: n_u =  2.00000, n_u,nl =  1.98970
      NO participation ratio (PR_NO):  2.387529
    
    
    Mulliken Population Analysis
    Atom      Charge (e)              h+              e-           Del q
    --------------------------------------------------------------------
     1 C       -0.170924        0.028425       -0.048890       -0.020465
     2 C       -0.337171        0.074100       -0.012304        0.061796
     3 H        0.239397        0.000032       -0.000025        0.000007
     4 C        0.062074        0.008530       -0.046628       -0.038098
     5 C        0.055549        0.007669       -0.046226       -0.038556
     6 C       -0.336168        0.073572       -0.012393        0.061179
     7 H        0.238630        0.000032       -0.000022        0.000010
     8 C       -0.165263        0.029953       -0.048086       -0.018133
     9 C        0.226054        0.039794       -0.007761        0.032034
    10 C       -0.381153        0.029585       -0.028882        0.000703
    11 H        0.220623        0.000044       -0.000079       -0.000035
    12 C       -0.059884        0.002854       -0.000879        0.001975
    13 C        0.248508        0.001116       -0.001569       -0.000453
    14 C        0.225518        0.038725       -0.007780        0.030945
    15 C       -0.381421        0.029240       -0.028833        0.000407
    16 H        0.220934        0.000041       -0.000076       -0.000035
    17 C       -0.192624        0.014137       -0.002641        0.011496
    18 H        0.226020        0.000017       -0.000032       -0.000015
    19 C       -0.315313        0.043464       -0.024822        0.018642
    20 H        0.219681        0.000042       -0.000082       -0.000040
    21 C       -0.193336        0.013537       -0.002641        0.010896
    22 H        0.226109        0.000016       -0.000032       -0.000016
    23 C       -0.315835        0.042281       -0.024816        0.017466
    24 H        0.219654        0.000042       -0.000080       -0.000039
    25 B        0.537911        0.001672       -0.138683       -0.137010
    26 B        0.538329        0.001705       -0.139089       -0.137383
    27 C       -0.171802        0.029538       -0.048060       -0.018522
    28 C       -0.319195        0.078009       -0.013017        0.064992
    29 H        0.230561        0.000035       -0.000018        0.000018
    30 C        0.063490        0.009165       -0.045978       -0.036813
    31 C        0.052847        0.007745       -0.046748       -0.039003
    32 C       -0.314006        0.077904       -0.012532        0.065372
    33 H        0.233894        0.000035       -0.000022        0.000013
    34 C       -0.173795        0.033603       -0.047689       -0.014086
    35 C        0.224102        0.040880       -0.007952        0.032927
    36 C       -0.376103        0.030996       -0.029254        0.001742
    37 H        0.220719        0.000044       -0.000082       -0.000037
    38 C       -0.058119        0.003053       -0.000919        0.002134
    39 C        0.249021        0.001182       -0.001638       -0.000457
    40 C        0.226922        0.042498       -0.007942        0.034555
    41 C       -0.378519        0.031365       -0.028878        0.002487
    42 H        0.219806        0.000047       -0.000079       -0.000032
    43 C       -0.193626        0.014079       -0.002705        0.011374
    44 H        0.225589        0.000017       -0.000033       -0.000016
    45 C       -0.313792        0.044698       -0.025289        0.019409
    46 H        0.219258        0.000044       -0.000083       -0.000040
    47 C       -0.313024        0.046482       -0.024797        0.021686
    48 H        0.219469        0.000044       -0.000085       -0.000041
    49 C       -0.190960        0.015323       -0.002701        0.012622
    50 H        0.225478        0.000017       -0.000032       -0.000015
    51 C       -0.220716        0.001447       -0.003940       -0.002492
    52 C        0.092496        0.000566       -0.002208       -0.001642
    53 C       -0.424797        0.000031       -0.000392       -0.000360
    54 H        0.220586        0.000003       -0.000171       -0.000168
    55 C        0.403081        0.000471       -0.000395        0.000076
    56 O       -0.453132        0.000424       -0.000104        0.000321
    57 C       -0.382630        0.001240       -0.000573        0.000667
    58 H        0.220973        0.000003       -0.000187       -0.000184
    59 C        0.052134        0.000127       -0.001310       -0.001183
    60 C       -0.405215        0.000008       -0.000008        0.000000
    61 H        0.238900        0.000000       -0.000007       -0.000007
    62 H        0.203019        0.000033       -0.000015        0.000018
    63 H        0.202585        0.000032       -0.000009        0.000023
    64 C       -0.761827        0.000655       -0.001831       -0.001175
    65 H        0.237154        0.000033       -0.000855       -0.000822
    66 H        0.249382        0.000134        0.000057        0.000190
    67 H        0.245272        0.000070        0.000122        0.000192
    68 C       -0.547640        0.000511       -0.001886       -0.001375
    69 H        0.225188        0.000135       -0.000408       -0.000273
    70 H        0.248929        0.000218       -0.000783       -0.000565
    71 C       -0.642144        0.000648       -0.000156        0.000492
    72 H        0.239559        0.000234       -0.000167        0.000067
    73 H        0.219418        0.000009        0.000006        0.000015
    74 H        0.213569        0.000144       -0.000005        0.000139
    75 C       -0.233652        0.000608       -0.004405       -0.003797
    76 C        0.072967        0.000105       -0.001610       -0.001505
    77 C       -0.427052        0.000997       -0.000350        0.000646
    78 H        0.221254        0.000002       -0.000155       -0.000152
    79 C        0.402793        0.000461       -0.000254        0.000207
    80 O       -0.453497        0.000314       -0.000064        0.000251
    81 C       -0.379608        0.000026       -0.000530       -0.000504
    82 H        0.220460        0.000003       -0.000205       -0.000202
    83 C        0.072112        0.000320       -0.001226       -0.000906
    84 C       -0.405605        0.000000       -0.000006       -0.000006
    85 H        0.238983        0.000000       -0.000006       -0.000006
    86 H        0.202833        0.000023       -0.000005        0.000017
    87 H        0.203152        0.000023       -0.000012        0.000012
    88 C       -0.760691        0.000409       -0.001978       -0.001570
    89 H        0.235967        0.000023       -0.000994       -0.000971
    90 H        0.245064        0.000177        0.000068        0.000244
    91 H        0.244355        0.000124       -0.000072        0.000053
    92 C       -0.552371        0.000582       -0.002151       -0.001569
    93 H        0.255479        0.000126       -0.000368       -0.000241
    94 H        0.227234        0.000024       -0.000406       -0.000382
    95 C       -0.639044        0.000674       -0.000090        0.000585
    96 H        0.240632        0.000162       -0.000052        0.000110
    97 H        0.217734        0.000031       -0.000002        0.000029
    98 H        0.212243        0.000184       -0.000025        0.000159
    --------------------------------------------------------------------
    Sum:       -0.000000        1.000000       -1.000000       -0.000000
    
    Exciton analysis of the difference density matrix
      <r_h> [Ang]:                  [  0.134179,  -0.298963,  -1.613653]
      <r_e> [Ang]:                  [  0.062802,  -0.188835,  -1.518318]
      |<r_e - r_h>| [Ang]:            0.162209
      Hole size [Ang]:                5.379172
        Cartesian components [Ang]: [  2.878489,   0.863664,   4.461375]
      Electron size [Ang]:            4.331550
        Cartesian components [Ang]: [  2.394213,   0.929042,   3.488116]

  Excited state   5:
  ------------------
    NOs
      Occupation of frontier NOs:
         0.8741   1.1259
      Number of electrons: 380.000000
      Number of unpaired electrons: n_u =  2.00000, n_u,nl =  1.96750
      NO participation ratio (PR_NO):  2.604062
    
    
    Mulliken Population Analysis
    Atom      Charge (e)              h+              e-           Del q
    --------------------------------------------------------------------
     1 C       -0.162169        0.036249       -0.047959       -0.011710
     2 C       -0.364066        0.050066       -0.015165        0.034901
     3 H        0.239410        0.000054       -0.000033        0.000021
     4 C        0.060132        0.006567       -0.046607       -0.040040
     5 C        0.055540        0.007087       -0.045652       -0.038565
     6 C       -0.359653        0.052776       -0.015082        0.037694
     7 H        0.238643        0.000054       -0.000030        0.000024
     8 C       -0.163173        0.031632       -0.047675       -0.016043
     9 C        0.230978        0.046225       -0.009267        0.036957
    10 C       -0.383756        0.028760       -0.030660       -0.001900
    11 H        0.220628        0.000038       -0.000069       -0.000030
    12 C       -0.057797        0.005716       -0.001654        0.004062
    13 C        0.247580        0.001673       -0.003054       -0.001381
    14 C        0.235723        0.049882       -0.008732        0.041150
    15 C       -0.381934        0.029456       -0.029562       -0.000106
    16 H        0.220940        0.000037       -0.000067       -0.000029
    17 C       -0.189627        0.017665       -0.003172        0.014493
    18 H        0.226035        0.000010       -0.000011       -0.000001
    19 C       -0.313068        0.047817       -0.026930        0.020887
    20 H        0.219699        0.000028       -0.000050       -0.000022
    21 C       -0.187519        0.020019       -0.003305        0.016713
    22 H        0.226124        0.000011       -0.000011        0.000000
    23 C       -0.307526        0.051734       -0.025959        0.025775
    24 H        0.219670        0.000031       -0.000055       -0.000024
    25 B        0.557692        0.015070       -0.132300       -0.117230
    26 B        0.561813        0.017769       -0.131669       -0.113900
    27 C       -0.164589        0.033779       -0.045088       -0.011309
    28 C       -0.353814        0.045808       -0.015435        0.030373
    29 H        0.230564        0.000042       -0.000022        0.000020
    30 C        0.062808        0.006070       -0.043565       -0.037495
    31 C        0.055145        0.006816       -0.043520       -0.036704
    32 C       -0.344401        0.049526       -0.014550        0.034976
    33 H        0.233902        0.000048       -0.000027        0.000021
    34 C       -0.174696        0.030267       -0.045254       -0.014987
    35 C        0.230895        0.047683       -0.007964        0.039719
    36 C       -0.377811        0.027800       -0.027767        0.000033
    37 H        0.220728        0.000035       -0.000064       -0.000028
    38 C       -0.056312        0.005476       -0.001535        0.003941
    39 C        0.248177        0.001563       -0.002863       -0.001300
    40 C        0.226221        0.042596       -0.008741        0.033854
    41 C       -0.383213        0.026707       -0.028914       -0.002207
    42 H        0.219814        0.000038       -0.000061       -0.000024
    43 C       -0.188901        0.019213       -0.003113        0.016100
    44 H        0.225606        0.000010       -0.000010        0.000000
    45 C       -0.308010        0.049589       -0.024397        0.025191
    46 H        0.219277        0.000031       -0.000052       -0.000021
    47 C       -0.315985        0.044013       -0.025288        0.018725
    48 H        0.219490        0.000025       -0.000044       -0.000019
    49 C       -0.190278        0.016213       -0.002910        0.013303
    50 H        0.225493        0.000010       -0.000010       -0.000000
    51 C       -0.218702        0.004196       -0.004674       -0.000478
    52 C        0.093088        0.001340       -0.002390       -0.001050
    53 C       -0.422000        0.002956       -0.000519        0.002437
    54 H        0.220709        0.000138       -0.000182       -0.000045
    55 C        0.403927        0.001596       -0.000674        0.000921
    56 O       -0.452375        0.001216       -0.000139        0.001077
    57 C       -0.383711        0.000309       -0.000724       -0.000414
    58 H        0.221044        0.000083       -0.000196       -0.000113
    59 C        0.053443        0.001591       -0.001464        0.000127
    60 C       -0.405221        0.000017       -0.000023       -0.000006
    61 H        0.238897        0.000005       -0.000015       -0.000010
    62 H        0.203071        0.000099       -0.000028        0.000071
    63 H        0.202617        0.000079       -0.000024        0.000055
    64 C       -0.761449        0.001057       -0.001855       -0.000798
    65 H        0.237332        0.000265       -0.000909       -0.000644
    66 H        0.249383        0.000151        0.000041        0.000192
    67 H        0.245400        0.000242        0.000079        0.000320
    68 C       -0.547148        0.000966       -0.001849       -0.000883
    69 H        0.225058        0.000037       -0.000440       -0.000403
    70 H        0.248940        0.000319       -0.000873       -0.000554
    71 C       -0.642110        0.000708       -0.000182        0.000525
    72 H        0.239457        0.000220       -0.000254       -0.000035
    73 H        0.219486        0.000093       -0.000011        0.000082
    74 H        0.213426        0.000021       -0.000025       -0.000004
    75 C       -0.231826        0.003023       -0.004994       -0.001971
    76 C        0.073533        0.000847       -0.001787       -0.000939
    77 C       -0.427070        0.001090       -0.000462        0.000628
    78 H        0.221319        0.000077       -0.000164       -0.000087
    79 C        0.403107        0.001048       -0.000528        0.000521
    80 O       -0.453009        0.000840       -0.000101        0.000739
    81 C       -0.379169        0.000601       -0.000665       -0.000064
    82 H        0.220570        0.000124       -0.000215       -0.000091
    83 C        0.072717        0.001122       -0.001423       -0.000301
    84 C       -0.405604        0.000016       -0.000020       -0.000005
    85 H        0.238980        0.000004       -0.000012       -0.000008
    86 H        0.202850        0.000055       -0.000020        0.000035
    87 H        0.203186        0.000069       -0.000024        0.000045
    88 C       -0.760276        0.000795       -0.001949       -0.001154
    89 H        0.236145        0.000246       -0.001038       -0.000793
    90 H        0.245032        0.000178        0.000035        0.000212
    91 H        0.244376        0.000185       -0.000111        0.000073
    92 C       -0.551861        0.001075       -0.002133       -0.001058
    93 H        0.255537        0.000252       -0.000436       -0.000184
    94 H        0.227233        0.000053       -0.000435       -0.000383
    95 C       -0.639190        0.000553       -0.000115        0.000438
    96 H        0.240538        0.000108       -0.000092        0.000016
    97 H        0.217813        0.000122       -0.000014        0.000107
    98 H        0.212077        0.000032       -0.000039       -0.000007
    --------------------------------------------------------------------
    Sum:       -0.000000        1.000000       -1.000000       -0.000000
    
    Exciton analysis of the difference density matrix
      <r_h> [Ang]:                  [ -0.033546,  -0.329706,  -1.390293]
      <r_e> [Ang]:                  [  0.024393,  -0.194827,  -1.430885]
      |<r_e - r_h>| [Ang]:            0.152306
      Hole size [Ang]:                5.559103
        Cartesian components [Ang]: [  2.976183,   0.878253,   4.612443]
      Electron size [Ang]:            4.401940
        Cartesian components [Ang]: [  2.435389,   0.931740,   3.546521]

  Excited state   6:
  ------------------
    NOs
      Occupation of frontier NOs:
         0.5732   1.4268
      Number of electrons: 380.000000
      Number of unpaired electrons: n_u =  2.00000, n_u,nl =  2.16405
      NO participation ratio (PR_NO):  4.079223
    
    
    Mulliken Population Analysis
    Atom      Charge (e)              h+              e-           Del q
    --------------------------------------------------------------------
     1 C       -0.145761        0.033908       -0.029209        0.004698
     2 C       -0.391897        0.012683       -0.005613        0.007070
     3 H        0.239397        0.000025       -0.000018        0.000007
     4 C        0.122852        0.063175       -0.040495        0.022680
     5 C        0.117021        0.063564       -0.040648        0.022916
     6 C       -0.393651        0.009979       -0.006283        0.003696
     7 H        0.238644        0.000038       -0.000013        0.000024
     8 C       -0.138681        0.036978       -0.028529        0.008449
     9 C        0.183369        0.023789       -0.034441       -0.010651
    10 C       -0.431454        0.001205       -0.050803       -0.049598
    11 H        0.220658        0.000006       -0.000007       -0.000001
    12 C        0.058252        0.120870       -0.000759        0.120111
    13 C        0.255564        0.008136       -0.001534        0.006602
    14 C        0.178497        0.019115       -0.035191       -0.016076
    15 C       -0.432611        0.001050       -0.051833       -0.050783
    16 H        0.220967        0.000005       -0.000008       -0.000003
    17 C       -0.186660        0.027955       -0.010495        0.017460
    18 H        0.226041        0.000010       -0.000004        0.000006
    19 C       -0.362763        0.022469       -0.051277       -0.028808
    20 H        0.219705        0.000028       -0.000043       -0.000016
    21 C       -0.190172        0.024414       -0.010354        0.014060
    22 H        0.226128        0.000009       -0.000005        0.000004
    23 C       -0.367873        0.017768       -0.052339       -0.034572
    24 H        0.219680        0.000023       -0.000037       -0.000014
    25 B        0.643949        0.014553       -0.045526       -0.030972
    26 B        0.642401        0.012602       -0.045913       -0.033312
    27 C       -0.148996        0.032260       -0.027977        0.004284
    28 C       -0.377269        0.012733       -0.005814        0.006919
    29 H        0.230576        0.000043       -0.000010        0.000032
    30 C        0.123445        0.062336       -0.039194        0.023142
    31 C        0.113695        0.061753       -0.039908        0.021846
    32 C       -0.376184        0.009671       -0.006478        0.003193
    33 H        0.233905        0.000037       -0.000013        0.000024
    34 C       -0.152253        0.035077       -0.027620        0.007456
    35 C        0.174759        0.018798       -0.035215       -0.016416
    36 C       -0.427995        0.001041       -0.051192       -0.050150
    37 H        0.220758        0.000009       -0.000008        0.000001
    38 C        0.057342        0.118362       -0.000767        0.117595
    39 C        0.255899        0.007937       -0.001516        0.006421
    40 C        0.180861        0.023197       -0.034703       -0.011506
    41 C       -0.429924        0.001173       -0.050091       -0.048918
    42 H        0.219839        0.000008       -0.000007        0.000001
    43 C       -0.191623        0.023817       -0.010439        0.013377
    44 H        0.225610        0.000009       -0.000005        0.000004
    45 C       -0.367852        0.017442       -0.052093       -0.034651
    46 H        0.219284        0.000023       -0.000037       -0.000014
    47 C       -0.363408        0.022111       -0.050809       -0.028698
    48 H        0.219494        0.000027       -0.000043       -0.000016
    49 C       -0.186863        0.027322       -0.010604        0.016718
    50 H        0.225499        0.000010       -0.000005        0.000005
    51 C       -0.219751        0.000304       -0.001832       -0.001528
    52 C        0.093779        0.000579       -0.000939       -0.000360
    53 C       -0.423500        0.001135       -0.000198        0.000937
    54 H        0.220741        0.000053       -0.000066       -0.000013
    55 C        0.403000        0.000231       -0.000237       -0.000006
    56 O       -0.453358        0.000148       -0.000053        0.000095
    57 C       -0.383227        0.000330       -0.000261        0.000069
    58 H        0.221117        0.000028       -0.000068       -0.000040
    59 C        0.053624        0.000798       -0.000491        0.000307
    60 C       -0.405217        0.000004       -0.000006       -0.000002
    61 H        0.238904        0.000001       -0.000004       -0.000003
    62 H        0.203004        0.000012       -0.000009        0.000003
    63 H        0.202564        0.000010       -0.000007        0.000003
    64 C       -0.761060        0.000371       -0.000780       -0.000409
    65 H        0.237694        0.000062       -0.000344       -0.000282
    66 H        0.249198        0.000005        0.000002        0.000007
    67 H        0.245230        0.000184       -0.000034        0.000150
    68 C       -0.546799        0.000246       -0.000781       -0.000535
    69 H        0.225334        0.000013       -0.000140       -0.000127
    70 H        0.249091        0.000070       -0.000472       -0.000402
    71 C       -0.642706        0.000063       -0.000133       -0.000071
    72 H        0.239313        0.000011       -0.000190       -0.000179
    73 H        0.219393        0.000004       -0.000015       -0.000010
    74 H        0.213420        0.000016       -0.000026       -0.000010
    75 C       -0.231598        0.000270       -0.002013       -0.001743
    76 C        0.074343        0.000481       -0.000610       -0.000129
    77 C       -0.426522        0.001359       -0.000183        0.001176
    78 H        0.221379        0.000032       -0.000059       -0.000028
    79 C        0.402652        0.000254       -0.000188        0.000066
    80 O       -0.453620        0.000166       -0.000038        0.000128
    81 C       -0.378897        0.000478       -0.000271        0.000207
    82 H        0.220652        0.000070       -0.000079       -0.000009
    83 C        0.073627        0.001199       -0.000589        0.000609
    84 C       -0.405603        0.000003       -0.000007       -0.000004
    85 H        0.238986        0.000002       -0.000004       -0.000003
    86 H        0.202819        0.000011       -0.000007        0.000004
    87 H        0.203146        0.000013       -0.000008        0.000005
    88 C       -0.759641        0.000286       -0.000805       -0.000519
    89 H        0.236586        0.000047       -0.000399       -0.000352
    90 H        0.244790        0.000035       -0.000064       -0.000029
    91 H        0.244311        0.000153       -0.000145        0.000008
    92 C       -0.551118        0.000610       -0.000926       -0.000316
    93 H        0.255603        0.000125       -0.000242       -0.000118
    94 H        0.227499        0.000032       -0.000149       -0.000117
    95 C       -0.639634        0.000088       -0.000094       -0.000006
    96 H        0.240467        0.000009       -0.000064       -0.000055
    97 H        0.217693        0.000005       -0.000017       -0.000012
    98 H        0.212093        0.000040       -0.000031        0.000009
    --------------------------------------------------------------------
    Sum:       -0.000000        1.000000       -1.000000       -0.000000
    
    Exciton analysis of the difference density matrix
      <r_h> [Ang]:                  [  0.060118,  -0.286674,  -1.449248]
      <r_e> [Ang]:                  [  0.034637,  -0.334220,  -1.495933]
      |<r_e - r_h>| [Ang]:            0.071341
      Hole size [Ang]:                5.348790
        Cartesian components [Ang]: [  2.765992,   0.837078,   4.500905]
      Electron size [Ang]:            5.681448
        Cartesian components [Ang]: [  3.041017,   0.885455,   4.716676]

  ----------------------------------------------------------------------------
                 Transition Density Matrix Analysis
  ----------------------------------------------------------------------------

  Excited state   1:
  ------------------
    Atomic CT numbers
      omega =     1.0000
    
    Exciton analysis of the transition density matrix
      <r_h> [Ang]:                        [  0.091431,  -0.482569,  -1.453615]
      <r_e> [Ang]:                        [  0.042475,  -0.145994,  -1.471953]
      |<r_e - r_h>| [Ang]:                  0.340611
      Hole size [Ang]:                      4.685283
        Cartesian components [Ang]:       [  3.891688,   0.918980,   2.441745]
      Electron size [Ang]:                  3.762744
        Cartesian components [Ang]:       [  2.148557,   0.944619,   2.941027]
      RMS electron-hole separation [Ang]:   5.866498
        Cartesian components [Ang]:       [  4.308690,   1.358168,   3.742508]
      Covariance(r_h, r_e) [Ang^2]:         0.905167
      Correlation coefficient:              0.051344
      Center-of-mass size [Ang]:            3.078979
        Cartesian components [Ang]:       [  2.289140,   0.659985,   1.950480]

  Excited state   2:
  ------------------
    Atomic CT numbers
      omega =     1.0000
    
    Exciton analysis of the transition density matrix
      <r_h> [Ang]:                        [  0.237203,  -0.245884,  -1.540779]
      <r_e> [Ang]:                        [  0.074718,  -0.176326,  -1.522108]
      |<r_e - r_h>| [Ang]:                  0.177731
      Hole size [Ang]:                      4.447146
        Cartesian components [Ang]:       [  2.674499,   0.859316,   3.447570]
      Electron size [Ang]:                  4.127077
        Cartesian components [Ang]:       [  2.308861,   0.939294,   3.289323]
      RMS electron-hole separation [Ang]:   5.386537
        Cartesian components [Ang]:       [  3.224919,   1.269739,   4.123401]
      Covariance(r_h, r_e) [Ang^2]:         3.913338
      Correlation coefficient:              0.213218
      Center-of-mass size [Ang]:            3.340529
        Cartesian components [Ang]:       [  1.910096,   0.639139,   2.664990]

  Excited state   3:
  ------------------
    Atomic CT numbers
      omega =     1.0000
    
    Exciton analysis of the transition density matrix
      <r_h> [Ang]:                        [ -0.159388,  -0.452258,  -1.627560]
      <r_e> [Ang]:                        [  0.035847,  -0.153280,  -1.488039]
      |<r_e - r_h>| [Ang]:                  0.383368
      Hole size [Ang]:                      4.766945
        Cartesian components [Ang]:       [  3.777786,   0.926577,   2.755641]
      Electron size [Ang]:                  3.893884
        Cartesian components [Ang]:       [  2.204958,   0.943932,   3.067489]
      RMS electron-hole separation [Ang]:   5.857914
        Cartesian components [Ang]:       [  4.193882,   1.354257,   3.859081]
      Covariance(r_h, r_e) [Ang^2]:         1.858953
      Correlation coefficient:              0.100149
      Center-of-mass size [Ang]:            3.225058
        Cartesian components [Ang]:       [  2.275768,   0.662284,   2.187067]

  Excited state   4:
  ------------------
    Atomic CT numbers
      omega =     1.0000
    
    Exciton analysis of the transition density matrix
      <r_h> [Ang]:                        [  0.134179,  -0.298963,  -1.613653]
      <r_e> [Ang]:                        [  0.062802,  -0.188835,  -1.518318]
      |<r_e - r_h>| [Ang]:                  0.162209
      Hole size [Ang]:                      5.379172
        Cartesian components [Ang]:       [  2.878489,   0.863664,   4.461375]
      Electron size [Ang]:                  4.331550
        Cartesian components [Ang]:       [  2.394213,   0.929042,   3.488116]
      RMS electron-hole separation [Ang]:   5.849310
        Cartesian components [Ang]:       [  3.268750,   1.266237,   4.682558]
      Covariance(r_h, r_e) [Ang^2]:         6.754849
      Correlation coefficient:              0.289906
      Center-of-mass size [Ang]:            3.911762
        Cartesian components [Ang]:       [  2.083044,   0.637739,   3.249015]

  Excited state   5:
  ------------------
    Atomic CT numbers
      omega =     1.0000
    
    Exciton analysis of the transition density matrix
      <r_h> [Ang]:                        [ -0.033546,  -0.329706,  -1.390293]
      <r_e> [Ang]:                        [  0.024393,  -0.194827,  -1.430885]
      |<r_e - r_h>| [Ang]:                  0.152306
      Hole size [Ang]:                      5.559103
        Cartesian components [Ang]:       [  2.976183,   0.878253,   4.612443]
      Electron size [Ang]:                  4.401940
        Cartesian components [Ang]:       [  2.435389,   0.931740,   3.546521]
      RMS electron-hole separation [Ang]:   5.874740
        Cartesian components [Ang]:       [  3.298970,   1.277199,   4.690216]
      Covariance(r_h, r_e) [Ang^2]:         7.895662
      Correlation coefficient:              0.322656
      Center-of-mass size [Ang]:            4.064235
        Cartesian components [Ang]:       [  2.162043,   0.645347,   3.380399]

  Excited state   6:
  ------------------
    Atomic CT numbers
      omega =     1.0000
    
[...]
 -- Occupied --
-19.523 -19.523 -10.499 -10.498 -10.488 -10.488 -10.462 -10.462
-10.462 -10.462 -10.462 -10.461 -10.460 -10.460 -10.460 -10.460
-10.459 -10.459 -10.459 -10.458 -10.458 -10.458 -10.458 -10.458
-10.457 -10.457 -10.457 -10.457 -10.450 -10.450 -10.450 -10.449
-10.448 -10.448 -10.447 -10.447 -10.444 -10.443 -10.434 -10.433
-10.431 -10.430 -10.430 -10.430 -10.429 -10.429 -10.427 -10.426
-10.424 -10.422 -10.420 -10.419 -10.412 -10.412  -6.944  -6.944
 -1.180  -1.180  -1.013  -1.013  -0.960  -0.956  -0.952  -0.950
 -0.931  -0.931  -0.906  -0.898  -0.881  -0.880  -0.858  -0.852
 -0.851  -0.847  -0.845  -0.844  -0.819  -0.815  -0.814  -0.811
 -0.809  -0.802  -0.773  -0.773  -0.761  -0.761  -0.732  -0.726
 -0.724  -0.718  -0.707  -0.706  -0.687  -0.679  -0.677  -0.662
 -0.657  -0.646  -0.645  -0.643  -0.635  -0.634  -0.592  -0.590
 -0.590  -0.586  -0.583  -0.582  -0.581  -0.573  -0.572  -0.559
 -0.558  -0.541  -0.541  -0.534  -0.533  -0.533  -0.526  -0.521
 -0.510  -0.505  -0.500  -0.497  -0.496  -0.495  -0.494  -0.491
 -0.489  -0.487  -0.483  -0.481  -0.481  -0.479  -0.477  -0.473
 -0.472  -0.469  -0.466  -0.465  -0.463  -0.461  -0.459  -0.452
 -0.446  -0.442  -0.438  -0.438  -0.432  -0.426  -0.426  -0.422
 -0.421  -0.420  -0.416  -0.413  -0.411  -0.408  -0.404  -0.403
 -0.396  -0.392  -0.392  -0.392  -0.390  -0.388  -0.383  -0.383
 -0.376  -0.370  -0.365  -0.362  -0.360  -0.353  -0.352  -0.348
 -0.337  -0.335  -0.315  -0.309  -0.293  -0.292  -0.277  -0.272
 -0.272  -0.259  -0.253  -0.253  -0.248  -0.245
 -- Virtual --
 -0.087  -0.056  -0.033  -0.026  -0.002   0.009   0.019   0.030
  0.031   0.039   0.040   0.050   0.072   0.085   0.089   0.094
  0.124   0.126   0.142   0.145   0.146   0.152   0.156   0.156
  0.159   0.161   0.165   0.169   0.169   0.172   0.181   0.182
  0.184   0.188   0.189   0.190   0.192   0.195   0.196   0.197
  0.201   0.204   0.205   0.206   0.209   0.212   0.214   0.215
  0.218   0.218   0.219   0.222   0.224   0.226   0.226   0.229
  0.232   0.233   0.235   0.238   0.240   0.242   0.249   0.251
  0.253   0.255   0.255   0.256   0.262   0.269   0.269   0.270
  0.271   0.275   0.283   0.284   0.284   0.287   0.291   0.298
  0.300   0.304   0.308   0.310   0.311   0.315   0.320   0.321
  0.326   0.326   0.335   0.336   0.338   0.342   0.350   0.352
  0.355   0.365   0.367   0.381   0.384   0.393   0.402   0.404
  0.407   0.414   0.416   0.420   0.424   0.433   0.436   0.443
  0.452   0.457   0.461   0.462   0.467   0.469   0.480   0.487
  0.491   0.493   0.497   0.500   0.500   0.502   0.505   0.507
  0.510   0.516   0.528   0.529   0.529   0.530   0.532   0.533
  0.535   0.538   0.539   0.540   0.543   0.546   0.549   0.551
  0.554   0.556   0.558   0.560   0.560   0.565   0.566   0.567
  0.569   0.572   0.574   0.576   0.580   0.582   0.584   0.590
  0.591   0.592   0.593   0.595   0.599   0.601   0.601   0.603
  0.605   0.605   0.608   0.615   0.615   0.620   0.620   0.623
  0.625   0.626   0.629   0.630   0.633   0.633   0.637   0.638
  0.641   0.644   0.652   0.655   0.658   0.660   0.661   0.662
  0.666   0.668   0.674   0.677   0.681   0.682   0.685   0.692
  0.701   0.703   0.704   0.707   0.711   0.712   0.716   0.718
  0.720   0.724   0.727   0.729   0.730   0.735   0.739   0.745
  0.746   0.751   0.754   0.757   0.761   0.767   0.769   0.773
  0.775   0.781   0.782   0.783   0.789   0.790   0.797   0.804
  0.804   0.810   0.814   0.822   0.829   0.835   0.836   0.843
  0.845   0.852   0.854   0.859   0.867   0.870   0.878   0.888
  0.898   0.902   0.907   0.914   0.916   0.917   0.926   0.928
  0.937   0.945   0.948   0.954   0.954   0.956   0.960   0.967
  0.968   0.975   0.982   0.983   0.984   0.985   0.987   0.988
  0.991   0.992   0.999   1.000   1.002   1.004   1.005   1.007
  1.010   1.014   1.022   1.024   1.028   1.030   1.033   1.034
  1.036   1.039   1.040   1.043   1.046   1.051   1.054   1.057
  1.060   1.062   1.065   1.069   1.074   1.077   1.080   1.080
  1.083   1.091   1.092   1.093   1.096   1.101   1.107   1.112
  1.119   1.121   1.125   1.129   1.134   1.137   1.142   1.149
  1.153   1.157   1.161   1.161   1.162   1.169   1.174   1.175
  1.181   1.181   1.188   1.194   1.197   1.202   1.205   1.213
  1.215   1.225   1.238   1.247   1.249   1.252   1.258   1.265
  1.268   1.274   1.276   1.279   1.284   1.287   1.290   1.295
  1.297   1.302   1.308   1.312   1.314   1.317   1.318   1.320
  1.329   1.335   1.342   1.344   1.349   1.358   1.363   1.365
  1.372   1.384   1.390   1.393   1.397   1.399   1.401   1.410
  1.414   1.419   1.427   1.429   1.436   1.437   1.441   1.446
  1.447   1.450   1.451   1.456   1.457   1.478   1.485   1.488
  1.499   1.510   1.512   1.514   1.519   1.520   1.521   1.522
  1.524   1.527   1.530   1.532   1.534   1.534   1.537   1.540
  1.550   1.553   1.555   1.561   1.567   1.568   1.574   1.579
  1.581   1.589   1.592   1.594   1.597   1.604   1.615   1.618
  1.623   1.632   1.637   1.641   1.646   1.652   1.668   1.675
  1.686   1.695   1.709   1.723   1.748   1.753   1.759   1.760
  1.763   1.775   1.779   1.786   1.793   1.801   1.808   1.811
  1.812   1.813   1.817   1.821   1.826   1.829   1.837   1.849
  1.855   1.860   1.882   1.887   1.900   1.906   1.909   1.921
  1.922   1.924   1.930   1.936   1.942   1.946   1.953   1.954
  1.955   1.970   1.973   1.982   1.983   1.985   1.988   1.992
  1.998   2.000   2.001   2.005   2.023   2.024   2.031   2.033
  2.038   2.048   2.050   2.056   2.058   2.059   2.074   2.076
  2.081   2.089   2.092   2.094   2.101   2.106   2.113   2.114
  2.115   2.127   2.130   2.138   2.148   2.150   2.154   2.160
  2.162   2.163   2.163   2.166   2.170   2.191   2.193   2.197
  2.205   2.207   2.208   2.223   2.230   2.234   2.236   2.243
  2.244   2.252   2.255   2.265   2.266   2.268   2.273   2.276
  2.281   2.287   2.292   2.293   2.299   2.301   2.311   2.316
  2.321   2.323   2.325   2.326   2.334   2.339   2.341   2.344
  2.345   2.349   2.353   2.355   2.361   2.362   2.363   2.367
  2.372   2.375   2.386   2.390   2.398   2.407   2.415   2.417
  2.420   2.423   2.426   2.429   2.435   2.435   2.441   2.445
  2.453   2.453   2.461   2.472   2.476   2.482   2.494   2.499
  2.499   2.503   2.508   2.510   2.518   2.526   2.535   2.541
  2.560   2.569   2.572   2.587   2.618   2.632   2.636   2.641
  2.645   2.646   2.648   2.653   2.664   2.667   2.689   2.692
  2.708   2.712   2.715   2.728   2.731   2.733   2.735   2.753
  2.753   2.762   2.779   2.780   2.782   2.783   2.788   2.790
  2.792   2.794   2.796   2.797   2.804   2.810   2.816   2.818
  2.820   2.826   2.846   2.854   2.855   2.859   2.875   2.877
  2.898   2.902   2.905   2.906   2.922   2.929   2.942   2.945
  2.959   2.983   2.998   3.011   3.011   3.030   3.048   3.066
  3.082   3.083   3.087   3.092   3.101   3.109   3.122   3.239
  3.256   3.258   3.321   3.324   3.405   3.443   3.455   3.495
  3.496   3.497   3.552   3.561   3.671   3.685   9.587   9.729
 13.145  13.178  13.402  13.479  13.496  13.514  13.527  13.548
 13.690  13.694  13.735  13.770  13.772  13.789  13.795  13.803
 13.821  13.844  13.863  13.889  13.899  13.907  13.939  13.994
 14.002  14.016  14.037  14.040  14.047  14.054  14.140  14.164
 14.165  14.195  14.213  14.216  14.227  14.269  14.283  14.287
 14.309  14.314  14.344  14.347  14.514  14.518  14.568  14.576
 14.581  14.585  14.587  14.588  25.790  25.791
 --------------------------------------------------------------
 
 -----------------------------------------------------------------
                    Cartesian Multipole Moments
 -----------------------------------------------------------------
    Charge (ESU x 10^10)
                -0.0000
    Dipole Moment (Debye)
         X       0.4078      Y      -1.1402      Z       0.1131
       Tot       1.2162
    Quadrupole Moments (Debye-Ang)
        XX    -278.0760     XY      17.0015     YY    -323.7578
        XZ       0.1627     YZ      13.7744     ZZ    -279.3520
    Octopole Moments (Debye-Ang^2)
       XXX      44.4620    XXY      95.3434    XYY     -49.4845
       YYY     424.0523    XXZ     425.5094    XYZ      -2.3748
       YYZ     442.3310    XZZ     -13.3082    YZZ      11.4966
       ZZZ    1218.1162
    Hexadecapole Moments (Debye-Ang^3)
      XXXX  -21791.9261   XXXY     349.6927   XXYY   -4668.6597
      XYYY    -319.5335   YYYY   -3350.5818   XXXZ    2141.3788
      XXYZ     106.5981   XYYZ    1138.2986   YYYZ   -1137.5739
      XXZZ   -8378.8318   XYZZ      69.9266   YYZZ   -6572.8097
      XZZZ    1426.9044   YZZZ    -239.6827   ZZZZ  -30017.9635
 -----------------------------------------------------------------
 -----------------------------------------------------------------
               TDA Excited-State Multipoles, State  1
 -----------------------------------------------------------------
    Charge (ESU x 10^10)
                -0.0000
    Dipole Moment (Debye)
         X       0.6429      Y      -2.7568      Z       0.2012
       Tot       2.8379
    Quadrupole Moments (Debye-Ang)
        XX    -227.4719     XY      15.9325     YY    -322.9712
        XZ      55.5136     YZ      14.8741     ZZ    -292.5184
    Octopole Moments (Debye-Ang^2)
       XXX      54.4322    XXY      54.6038    XYY     -47.6508
       YYY     419.8842    XXZ     355.1456    XYZ     -36.1845
       YYZ     443.4218    XZZ    -176.8712    YZZ      10.8987
       ZZZ    1275.6257
    Hexadecapole Moments (Debye-Ang^3)
      XXXX  -20304.2233   XXXY     312.2269   XXYY   -4603.4243
      XYYY    -318.4263   YYYY   -3341.1038   XXXZ    3389.0932
      XXYZ     141.2888   XYYZ    1198.0596   YYYZ   -1133.0873
      XXZZ   -8047.6084   XYZZ     169.6402   YYZZ   -6582.7750
      XZZZ    2698.5126   YZZZ    -272.9323   ZZZZ  -31179.5861
 -----------------------------------------------------------------
 -----------------------------------------------------------------
               TDA Excited-State Multipoles, State  2
 -----------------------------------------------------------------
    Charge (ESU x 10^10)
                -0.0000
    Dipole Moment (Debye)
         X       1.1882      Y      -1.4743      Z       0.0234
       Tot       1.8936
    Quadrupole Moments (Debye-Ang)
        XX    -269.0807     XY      16.1209     YY    -324.3077
        XZ       4.9291     YZ      13.9264     ZZ    -273.9567
    Octopole Moments (Debye-Ang^2)
       XXX      58.3334    XXY      86.9522    XYY     -48.1167
       YYY     423.9667    XXZ     419.6576    XYZ      -9.4419
       YYZ     443.8565    XZZ     -20.1799    YZZ      11.2910
       ZZZ    1183.9865
    Hexadecapole Moments (Debye-Ang^3)
      XXXX  -21561.4427   XXXY     329.9493   XXYY   -4659.7714
      XYYY    -320.6596   YYYY   -3353.5934   XXXZ    2455.1328
      XXYZ     108.6332   XYYZ    1146.2945   YYYZ   -1137.8389
      XXZZ   -8326.6682   XYZZ      85.7803   YYZZ   -6575.4719
      XZZZ    1550.9897   YZZZ    -244.9215   ZZZZ  -30041.5763
 -----------------------------------------------------------------
 -----------------------------------------------------------------
               TDA Excited-State Multipoles, State  3
 -----------------------------------------------------------------
    Charge (ESU x 10^10)
                -0.0000
    Dipole Moment (Debye)
         X      -0.5300      Y      -2.5762      Z      -0.5571
       Tot       2.6885
    Quadrupole Moments (Debye-Ang)
        XX    -232.7629     XY      16.7566     YY    -323.0442
        XZ      46.0071     YZ      15.1264     ZZ    -285.9864
    Octopole Moments (Debye-Ang^2)
       XXX      26.0319    XXY      58.8525    XYY     -49.2705
       YYY     419.8400    XXZ     347.0356    XYZ     -31.6516
       YYZ     442.4726    XZZ    -154.5716    YZZ       9.3420
       ZZZ    1243.1783
    Hexadecapole Moments (Debye-Ang^3)
      XXXX  -20466.0782   XXXY     335.8271   XXYY   -4611.2140
      XYYY    -316.5192   YYYY   -3342.1515   XXXZ    3218.8102
      XXYZ     149.4816   XYYZ    1188.8384   YYYZ   -1132.2369
      XXZZ   -7983.5110   XYZZ     161.0760   YYZZ   -6578.0798
      XZZZ    2485.3446   YZZZ    -262.4441   ZZZZ  -30946.2241
 -----------------------------------------------------------------
 -----------------------------------------------------------------
               TDA Excited-State Multipoles, State  4
 -----------------------------------------------------------------
    Charge (ESU x 10^10)
                -0.0000
    Dipole Moment (Debye)
         X       0.7506      Y      -1.6691      Z      -0.3448
       Tot       1.8624
    Quadrupole Moments (Debye-Ang)
        XX    -265.7438     XY      16.4705     YY    -324.0628
        XZ     -21.7166     YZ      15.5608     ZZ    -240.7558
    Octopole Moments (Debye-Ang^2)
       XXX      53.2487    XXY      86.0662    XYY     -48.7350
       YYY     423.0864    XXZ     397.7293    XYZ      10.4223
       YYZ     441.5727    XZZ      61.7722    YZZ     -14.7601
       ZZZ    1035.9916
    Hexadecapole Moments (Debye-Ang^3)
      XXXX  -21494.7755   XXXY     339.9011   XXYY   -4658.6245
      XYYY    -320.2963   YYYY   -3352.9126   XXXZ    1766.3374
      XXYZ     132.7538   XYYZ    1114.6209   YYYZ   -1133.0994
      XXZZ   -7868.7209   XYZZ      12.6869   YYZZ   -6534.1763
      XZZZ     501.7424   YZZZ     -88.4160   ZZZZ  -27868.4642
 -----------------------------------------------------------------
 -----------------------------------------------------------------
               TDA Excited-State Multipoles, State  5
 -----------------------------------------------------------------
    Charge (ESU x 10^10)
                -0.0000
    Dipole Moment (Debye)
         X       0.1295      Y      -1.7880      Z       0.3080
       Tot       1.8190
    Quadrupole Moments (Debye-Ang)
        XX    -264.0167     XY      16.7341     YY    -323.8830
        XZ     -22.3333     YZ      15.5841     ZZ    -238.1295
    Octopole Moments (Debye-Ang^2)
       XXX      38.1420    XXY      84.8949    XYY     -49.2609
       YYY     422.7965    XXZ     412.4985    XYZ      11.8619
       YYZ     441.6144    XZZ      50.5567    YZZ     -19.0210
       ZZZ    1027.8282
    Hexadecapole Moments (Debye-Ang^3)
      XXXX  -21441.0231   XXXY     348.4680   XXYY   -4656.4620
      XYYY    -319.9500   YYYY   -3351.8544   XXXZ    1759.2077
      XXYZ     125.9107   XYYZ    1113.3900   YYYZ   -1132.8470
      XXZZ   -7840.7863   XYZZ      14.2671   YYZZ   -6528.4863
      XZZZ     435.6393   YZZZ     -66.8612   ZZZZ  -27575.1584
 -----------------------------------------------------------------
 -----------------------------------------------------------------
               TDA Excited-State Multipoles, State  6
 -----------------------------------------------------------------
    Charge (ESU x 10^10)
                -0.0000
    Dipole Moment (Debye)
         X       0.5301      Y      -0.9118      Z       0.3373
       Tot       1.1073
    Quadrupole Moments (Debye-Ang)
        XX    -285.7355     XY      16.7840     YY    -324.2999
        XZ       1.4931     YZ      12.9101     ZZ    -289.5655
    Octopole Moments (Debye-Ang^2)
       XXX      49.9706    XXY     100.7874    XYY     -49.5407
       YYY     424.8526    XXZ     431.2805    XYZ      -8.0328
       YYZ     443.8929    XZZ     -16.7100    YZZ      25.6021
       ZZZ    1277.9092
    Hexadecapole Moments (Debye-Ang^3)
      XXXX  -22092.7509   XXXY     345.5313   XXYY   -4680.0144
      XYYY    -319.7039   YYYY   -3353.5314   XXXZ    2360.6517
      XXYZ     101.3727   XYYZ    1145.9232   YYYZ   -1140.7273
      XXZZ   -8569.1513   XYZZ      91.8374   YYZZ   -6597.0949
      XZZZ    1662.1456   YZZZ    -334.7703   ZZZZ  -31084.1917
 -----------------------------------------------------------------
Archival summary:
1\1\ctcp035\SP\ProcedureUnspecified\BasisUnspecified\252242\mewes1\TueOct2322:13:182018TueOct2322:13:182018\0\\#,ProcedureUnspecified,BasisUnspecified,\\0,1\C\C,1,1.39766\H,2,1.08457,1,119.726\C,2,1.38162,1,120.004,3,-177.512,0\C,4,1.41228,2,120.21,1,0.959614,0\C,5,1.38153,4,120.216,2,-1.60684,0\H,6,1.08481,5,120.443,4,178.499,0\C,6,1.39753,5,119.935,4,0.661266,0\C,4,1.46424,2,131.538,1,175.66,0\C,9,1.36973,4,135.324,2,2.37958,0\H,10,1.08272,9,121.889,4,2.31584,0\C,9,1.40676,4,106.168,2,-174.522,0\C,12,1.3909,9,124.29,4,176.572,0\C,12,1.40704,9,111.441,4,-0.100566,0\C,14,1.3703,12,118.507,9,176.624,0\H,15,1.08293,14,121.933,12,-178.764,0\C,10,1.41507,9,118.594,4,-176.837,0\H,17,1.08217,10,118.515,9,179.917,0\C,17,1.37481,10,122.47,9,0.765682,0\H,19,1.08324,17,119.91,10,178.955,0\C,15,1.41516,14,118.604,12,0.414258,0\H,21,1.08227,15,118.516,14,-179.772,0\C,21,1.37478,15,122.426,14,-0.302299,0\H,23,1.08324,21,119.871,15,-179.324,0\B,8,1.55361,6,120.018,5,176.778,0\B,1,1.55575,2,119.893,3,3.31228,0\C,26,1.55662,1,119.767,2,-177.612,0\C,27,1.39805,26,120.451,1,178.977,0\H,28,1.08436,27,119.481,26,-3.12744,0\C,28,1.38356,27,120.051,26,174.293,0\C,30,1.41185,28,120.002,27,-0.571607,0\C,31,1.38199,30,120.418,28,1.28527,0\H,32,1.08442,31,120.411,30,-178.301,0\C,32,1.39631,31,119.977,30,-1.15541,0\C,31,1.46123,30,108.325,28,-173.803,0\C,35,1.3696,31,134.942,30,174.66,0\H,36,1.08304,35,121.869,31,3.95979,0\C,35,1.40665,31,106.171,30,-0.592965,0\C,38,1.38988,35,124.074,31,175.772,0\C,38,1.40779,35,111.325,31,-0.092927,0\C,40,1.36953,38,118.36,35,177.359,0\H,41,1.08285,40,121.869,38,-178.903,0\C,36,1.41455,35,118.467,31,-175.051,0\H,43,1.08222,36,118.562,35,179.754,0\C,43,1.37497,36,122.385,35,0.474082,0\H,45,1.08311,43,119.793,36,179.116,0\C,39,1.41542,38,116.02,35,-177.269,0\H,47,1.08306,39,120.082,38,-179.933,0\C,47,1.37501,39,120.044,38,0.881686,0\H,49,1.08213,47,118.989,39,179.382,0\C,26,1.56919,1,119.106,2,8.41511,0\C,51,1.39227,26,122.651,1,-101.271,0\C,52,1.39616,51,120.754,26,179.827,0\H,53,1.0832,52,118.611,51,179.965,0\C,53,1.38608,52,120.129,51,0.393921,0\O,55,1.34967,53,124.72,52,179.407,0\C,55,1.39356,53,119.421,52,-0.240503,0\H,57,1.08375,55,118.776,53,179.346,0\C,57,1.382,55,120.815,53,-0.13939,0\C,56,1.40156,55,118.537,53,-0.303924,0\H,60,1.08812,56,106.637,55,-179.693,0\H,60,1.09499,56,112.322,55,-60.9945,0\H,60,1.09509,56,112.366,55,61.6121,0\C,59,1.50479,57,119.514,55,179.819,0\H,64,1.08953,59,111.535,57,-5.73302,0\H,64,1.09182,59,111.583,57,114.502,0\H,64,1.09243,59,111.67,57,-125.839,0\C,52,1.50637,51,120.635,26,2.40259,0\H,68,1.0933,52,109.747,51,-146.865,0\H,68,1.09389,52,110.147,51,-30.786,0\C,68,1.52733,52,112.354,51,91.3231,0\H,71,1.0901,68,111.322,52,-61.5935,0\H,71,1.09053,68,111.124,52,178.523,0\H,71,1.09075,68,111.137,52,58.3646,0\C,25,1.57085,8,120,6,-1.41967,0\C,75,1.39365,25,120.908,8,-95.2884,0\C,76,1.39551,75,120.585,25,-179.476,0\H,77,1.08344,76,118.432,75,179.509,0\C,77,1.38585,76,120.282,75,-0.111746,0\O,79,1.34993,77,124.48,76,179.624,0\C,79,1.39407,77,119.419,76,-0.130623,0\H,81,1.08349,79,118.874,77,179.572,0\C,81,1.38272,79,120.604,77,0.188163,0\C,80,1.40185,79,118.483,77,-1.20404,0\H,84,1.08808,80,106.65,79,-179.17,0\H,84,1.09512,80,112.412,79,62.1306,0\H,84,1.09514,80,112.347,79,-60.4675,0\C,83,1.50292,81,120.088,79,179.754,0\H,88,1.08936,83,111.862,81,-5.6625,0\H,88,1.09229,83,111.375,81,114.725,0\H,88,1.09229,83,111.349,81,-125.984,0\C,76,1.50859,75,121.23,25,2.90395,0\H,92,1.09356,76,110.484,75,-26.0012,0\H,92,1.09369,76,109.6,75,-141.847,0\C,92,1.52734,76,112.433,75,96.4358,0\H,95,1.0903,92,111.26,76,-60.844,0\H,95,1.09059,92,111.006,76,179.184,0\H,95,1.09068,92,111.167,76,59.142,0\\\@

 Total job time:  25528.08s(wall), 44880.39s(cpu) 
 Tue Oct 23 22:13:18 2018

        *************************************************************
        *                                                           *
        *  Thank you very much for using Q-Chem.  Have a nice day.  *
        *                                                           *
        *************************************************************


0 sent ACK to 0 
now end server 0 ... 
