mFile = /cm/shared/apps/q-chem/intel/QCHEM_5.0.1_Trunk/bin/mpi/machines
Process 0 of 1 is on ctcp011 - thread support 0
initial socket setup ...start
initial socket setup ...done 
now start server 0 ... 
ctcp011.cm.cluster 10.141.0
Q-Chem Developer Version! Running on 10.141.0.*
                  Welcome to Q-Chem
     A Quantum Leap Into The Future Of Chemistry


 Q-Chem 5.0, Q-Chem, Inc., Pleasanton, CA (2017)

 Yihan Shao,  Zhengting Gan,  E. Epifanovsky,  A. T. B. Gilbert,  M. Wormit,  
 J. Kussmann,  A. W. Lange,  A. Behn,  Jia Deng,  Xintian Feng,  D. Ghosh,  
 M. Goldey,  P. R. Horn,  L. D. Jacobson,  I. Kaliman,  T. Kus,  A. Landau,  
 Jie Liu,  E. I. Proynov,  R. M. Richard,  R. P. Steele,  E. J. Sundstrom,  
 H. L. Woodcock III,  P. M. Zimmerman,  D. Zuev,  B. Albrecht,  E. Alguire,  
 S. A. Baeppler,  Z. Benda,  Y. A. Bernard,  E. J. Berquist,  K. B. Bravaya,  
 D. Casanova,  Chun-Min Chang,  Yunqing Chen,  A. Chien,  K. D. Closser,  
 M. P. Coons,  S. Dasgupta,  M. Diedenhofen,  Hainam Do,  R. G. Edgar,  
 Po-Tung Fang,  S. Fatehi,  Qingguo Feng,  Qinghui Ge,  A. Ghysels,  
 J. Gomes,  J. Gonthier,  A. Gunina,  M. W. D. Hanson-Heine,  
 P. H. P. Harbach,  A. W. Hauser,  J. E. Herr,  E. G. Hohenstein,  
 Z. C. Holden,  Kerwin Hui,  T.-C. Jagau,  Hyunjun Ji,  B. Kaduk,  
 K. Khistyaev,  Jaehoon Kim,  P. Klunzinger,  K. Koh,  D. Kosenkov,  
 T. Kowalczyk,  C. M. Krauter,  A. Kunitsa,  Ka Un Lao,  A. Laurent,  
 K. V. Lawler,  Joonho Lee,  D. Lefrancois,  S. Lehtola,  D. S. Levine,  
 Yi-Pei Li,  You-Sheng Lin,  Fenglai Liu,  E. Livshits,  A. Luenser,  
 P. Manohar,  E. Mansoor,  S. F. Manzer,  Shan-Ping Mao,  Yuezhi Mao,  
 N. Mardirossian,  A. V. Marenich,  L. A. Martinez-Martinez,  S. A. Maurer,  
 N. J. Mayhall,  S. C. McKenzie,  J.-M. Mewes,  A. F. Morrison,  K. Nanda,  
 T. S. Nguyen-Beck,  R. Olivares-Amaya,  J. A. Parkhill,  T. M. Perrine,  
 F. Plasser,  S. Prager,  A. Prociuk,  D. R. Rehn,  F. Rob,  M. Schneider,  
 N. Sergueev,  S. M. Sharada,  S. Sharma,  D. W. Small,  T. Stauch,  
 T. Stein,  Yu-Chuan Su,  A. J. W. Thom,  T. Tsuchimochi,  L. Vogt,  
 O. Vydrov,  M. A. Watson,  J. Wenzel,  M. de Wergifosse,  T. A. Wesolowski,  
 A. White,  J. Witte,  A. Yamada,  Jun Yang,  K. Yao,  S. Yeganeh,  
 S. R. Yost,  Zhi-Qiang You,  A. Zech,  Igor Ying Zhang,  Xing Zhang,  
 Yan Zhao,  Ying Zhu,  B. R. Brooks,  G. K. L. Chan,  C. J. Cramer,  
 M. S. Gordon,  W. J. Hehre,  A. Klamt,  M. W. Schmidt,  C. D. Sherrill,  
 D. G. Truhlar,  A. Aspuru-Guzik,  R. Baer,  A. T. Bell,  N. A. Besley,  
 Jeng-Da Chai,  A. Dreuw,  B. D. Dunietz,  T. R. Furlani,  Chao-Ping Hsu,  
 Yousung Jung,  Jing Kong,  D. S. Lambrecht,  WanZhen Liang,  C. Ochsenfeld,  
 V. A. Rassolov,  L. V. Slipchenko,  J. E. Subotnik,  T. Van Voorhis,  
 J. M. Herbert,  A. I. Krylov,  P. M. W. Gill,  M. Head-Gordon

 Contributors to earlier versions of Q-Chem not listed above: 
 R. D. Adamson,  B. Austin,  J. Baker,  G. J. O. Beran,  K. Brandhorst,  
 S. T. Brown,  E. F. C. Byrd,  A. K. Chakraborty,  C.-L. Cheng,  
 Siu Hung Chien,  D. M. Chipman,  D. L. Crittenden,  H. Dachsel,  
 R. A. DiStasio Jr.,  R. J. Doerksen,  A. D. Dutoi,  L. Fusti-Molnar,  
 W. A. Goddard III,  A. Golubeva-Zadorozhnaya,  S. R. Gwaltney,  G. Hawkins,  
 A. Heyden,  S. Hirata,  G. Kedziora,  F. J. Keil,  C. Kelley,  Jihan Kim,  
 R. A. King,  R. Z. Khaliullin,  P. P. Korambath,  W. Kurlancheek,  
 A. M. Lee,  M. S. Lee,  S. V. Levchenko,  Ching Yeh Lin,  D. Liotard,  
 R. C. Lochan,  I. Lotan,  P. E. Maslen,  N. Nair,  D. P. O'Neill,  
 D. Neuhauser,  E. Neuscamman,  C. M. Oana,  R. Olson,  B. Peters,  
 R. Peverati,  P. A. Pieniazek,  Y. M. Rhee,  J. Ritchie,  M. A. Rohrdanz,  
 E. Rosta,  N. J. Russ,  H. F. Schaefer III,  N. E. Schultz,  N. Shenvi,  
 A. C. Simmonett,  A. Sodt,  D. Stuck,  K. S. Thanthiriwatte,  V. Vanovschi,  
 Tao Wang,  A. Warshel,  C. F. Williams,  Q. Wu,  X. Xu,  W. Zhang

 Please cite Q-Chem as follows:
 Y. Shao et al., Mol. Phys. 113, 184-215 (2015)
 DOI: 10.1080/00268976.2014.952696

 Q-Chem 5.0.1 for Intel X86 EM64T Linux

 Parts of Q-Chem use Armadillo 5.200.1 (Boston Tea Smuggler).
 http://arma.sourceforge.net/

 Q-Chem begins on Thu Oct 25 05:51:09 2018  

Host: ctcp011
0

     Scratch files written to /scratch/mewes/138338/qchem26270//
 Parallel job on  1  processors
The previous job contains 0 fragments, simply inherited here

Checking the input file for inconsistencies... 	...done.

--------------------------------------------------------------
User input:
--------------------------------------------------------------
$rem
threads 8
jobtype	opt
method PBEh-3c
basis def2-mSVP
mem_static	1024
mem_total	14000
sym_ignore	true
cis_n_roots             2
cis_singlets            false
cis_triplets		true
rpa                     false
cis_state_deriv         1
$end

$molecule 
read gsopt.mol
$end


--------------------------------------------------------------
 Adding empirical dispersion correction 
 ----------------------------------------------------------------
 Doing -D3(BJ) with
 s6 =   1.00000
 s8 =   0.00000
 a1 =   0.48600
 a2 =   4.50000
 -D3 energy including 3body term =     -0.0824537785 hartrees
 ----------------------------------------------------------------
 Adding gCP correction 
 ----------------------------------------------------------------
 gCP energy =      0.1092293993 hartrees
 ----------------------------------------------------------------
             Standard Nuclear Orientation (Angstroms)
    I     Atom           X                Y                Z
 ----------------------------------------------------------------
    1      C       0.0000000000     0.0000000000     0.0000000000
    2      C       0.0000000000     0.0000000000     1.3998220000
    3      H       0.9453129492     0.0000000000     1.9314413338
    4      C      -1.1852562271    -0.0439197277     2.0888531747
    5      C      -1.4489517596    -0.1301941159     3.5051479647
    6      C      -0.6688780495    -0.1631059843     4.6385429699
    7      H       0.4102892303    -0.0933669668     4.5907927612
    8      C      -1.3076881732    -0.2999522293     5.8856047751
    9      H      -0.6982585181    -0.3258752815     6.7795830809
   10      C      -2.6771084762    -0.4101631710     6.0098754350
   11      H      -3.1198312618    -0.5225289057     6.9918933141
   12      C      -2.8495966076    -0.2345597903     3.6387425285
   13      C      -3.5020396618    -0.3847136060     4.8624428916
   14      C      -4.9080499217    -0.5086179928     4.8007005040
   15      H      -5.4813477794    -0.6317727923     5.7111541476
   16      C      -5.5512270427    -0.4815338387     3.5812691760
   17      H      -6.6281028594    -0.5844745154     3.5586130305
   18      C      -4.8664001020    -0.3313133342     2.3577393275
   19      H      -5.4223470614    -0.3259636628     1.4294074136
   20      C      -3.4970747663    -0.2050702002     2.3820892220
   21      C      -2.4495568805    -0.0785550222     1.3859648725
   22      C      -2.4680885394    -0.0303078097     0.0113251352
   23      H      -3.4078400197    -0.0447971910    -0.5290987266
   24      C      -1.2645346554     0.0081436077    -0.7142726667
   25      B       1.3346699437    -0.0887273882    -0.7468569715
   26      C       1.3043301096    -0.1675490420    -2.2767624380
   27      C       2.5018428055    -0.3469931849    -2.9793595804
   28      H       3.4351201777    -0.4018528600    -2.4293957346
   29      C       2.4873186054    -0.4848287392    -4.3451883801
   30      C       3.5519896469    -0.7561964234    -5.2796107755
   31      C       4.9075992657    -0.9689906864    -5.1724165813
   32      H       5.4182574272    -0.9289119725    -4.2186091423
   33      C       5.6304380746    -1.2551227719    -6.3461386209
   34      H       6.6964619185    -1.4254152927    -6.2688368091
   35      C       5.0323159430    -1.3328452811    -7.5874903611
   36      H       5.6342551487    -1.5618121815    -8.4580863750
   37      C       2.9455453837    -0.8372766547    -6.5527035557
   38      C       3.6400280730    -1.1244743701    -7.7265318997
   39      C       2.8590482469    -1.1887288794    -8.9031259832
   40      H       3.3290992486    -1.4059538859    -9.8541546176
   41      C       1.4962474362    -0.9839556169    -8.8434948268
   42      H       0.9210770768    -1.0443563064    -9.7579597843
   43      C       0.8164417929    -0.7072852519    -7.6402599885
   44      H      -0.2564939797    -0.5668138172    -7.6466490606
   45      C       1.5483917116    -0.6304002983    -6.4789758760
   46      C       1.2421841306    -0.4138154702    -5.0800951816
   47      C       0.0583782339    -0.2219534748    -4.4057556659
   48      H      -0.8815639274    -0.1814140816    -4.9441386634
   49      C       0.0476222139    -0.1107548649    -3.0051370698
   50      B      -1.2868358135     0.0007430412    -2.2497708951
   51      C      -2.6527992985     0.0511152635    -3.0296534328
   52      C      -3.2338032397     1.2790013334    -3.3603380463
   53      C      -4.4380966766     1.3147739646    -4.0564604477
   54      H      -4.8752952290     2.2750858432    -4.3096712750
   55      C      -5.0898458481     0.1497107515    -4.4352646617
   56      C      -4.5105802841    -1.0670918979    -4.0936320293
   57      H      -5.0092412225    -1.9894626772    -4.3755174532
   58      C      -3.3089535046    -1.1309752089    -3.4004732135
   59      C      -6.3807647743     0.1896488730    -5.2004317478
   60      H      -6.7459166838     1.2092877191    -5.3189927705
   61      H      -7.1616545763    -0.3841912642    -4.6989985203
   62      H      -6.2638297894    -0.2338516054    -6.1998271539
   63      C      -2.5533688306     2.5579325313    -2.9580916913
   64      H      -3.0952755280     3.4344480323    -3.3132724169
   65      H      -1.5380210727     2.6135164277    -3.3563139372
   66      H      -2.4695877259     2.6401797296    -1.8721075154
   67      C      -2.7110798125    -2.4648846968    -3.0462159661
   68      H      -3.3632698223    -3.2887499939    -3.3364881794
   69      H      -2.5288383513    -2.5497870622    -1.9727955128
   70      H      -1.7484130476    -2.6184499970    -3.5391505082
   71      C       2.6922605825    -0.1770248674     0.0516499432
   72      C       3.2028093314    -1.4219700270     0.4381164045
   73      C       4.3968163218    -1.4959885397     1.1488901097
   74      H       4.7795946023    -2.4694197625     1.4385662391
   75      C       5.1082594532    -0.3569358862     1.4957272577
   76      C       4.5948553350     0.8762397528     1.1108825779
   77      H       5.1362640785     1.7805559904     1.3708258025
   78      C       3.4062605873     0.9778914103     0.3995087813
   79      C       6.3900213337    -0.4463622792     2.2727412947
   80      H       6.7144168831    -1.4796412422     2.3929499936
   81      H       7.1971697076     0.0970937028     1.7793278513
   82      H       6.2811609612    -0.0204904387     3.2721154462
   83      C       2.8751152990     2.3276317389     0.0066394699
   84      H       3.5585514177     3.1290371468     0.2874176476
   85      H       2.7106158584     2.3930923706    -1.0707587363
   86      H       1.9140302399     2.5298350147     0.4847481998
   87      C       2.4615978171    -2.6844835309     0.0939776439
   88      H       2.9911788513    -3.5704489212     0.4448237161
   89      H       2.3226872852    -2.7899696499    -0.9838715215
   90      H       1.4660822169    -2.6976477898     0.5428619474
 ----------------------------------------------------------------
 Nuclear Repulsion Energy =  6087.7742346976 hartrees
 There are      174 alpha and      174 beta electrons
 Requested basis set is def2-mSVP
 There are 440 shells and 856 basis functions

 Total QAlloc Memory Limit  14000 MB
 Mega-Array Size      1001 MB
 MEM_STATIC part      1024 MB
 A cutoff of  1.0D-11 yielded  36432 shell pairs
 There are    144814 function pairs (    159763 Cartesian)
 
 -------------------------------------------------------
 OpenMP Integral Computing Module                       
 Release: version 1.0, May 2013, Q-Chem Inc. Pittsburgh 
 -------------------------------------------------------
 Integral Job Info:
 Integral job number is                      11
 Integral operator is                         1
 short-range coefficients                     0
 long-range coefficients              100000000
 Omega coefficients                           0
 if combine SR and LR in K                    0
 Integral screening is                        0
 Integral computing path is                   2
 max size of driver memory is            800000
 size of driver memory is                593474
 size of scratch memory is              1809772
 max col of scratch BK array               1296
 max len of scratch array in speh3          155
 max len of scratch index in speh4           18
 max int batch size is                      520
 min int batch size is                       52
 fixed nKL is                                52
 max L of basis functions is                  2
 order of int derivative is                   0
 number of shells is                        440
 number of basis is                         908
 number of cartesian basis is               908
 number of contracted shell pairs         36432
 number of primitive shell pairs          76681
 maxK2 (contraction) of shell pair           25
 max number of K2 of shell pair               1
 max number of CS2 of shell pair           8710
 max number of PS2 of shell pair          13580
 mem total for path MDJ                  381464
 -------------------------------------------------------
 Smallest overlap matrix eigenvalue = 2.04E-04

 Scale SEOQF with 1.000000e-02/1.000000e-01/1.000000e-02

 Standard Electronic Orientation quadrupole field applied
 Nucleus-field energy     =    -0.0000000234 hartrees
 Guess from superposition of atomic densities
 Warning:  Energy on first SCF cycle will be non-variational
 A restricted hybrid HF-DFT SCF calculation will be
 performed using Pulay DIIS extrapolation
 Exchange:     0.4200 Hartree-Fock + 0.5800 PBEh-3c
 Correlation:  1.0000 PBEh-3c
 Using SG-1 standard quadrature grid
 Dispersion:   Grimme D3
 SCF converges when DIIS error is below 1.0E-08
 using 8 threads for integral computing
 -------------------------------------------------------
 OpenMP Integral computing Module                
 Release: version 1.0, May 2013, Q-Chem Inc. Pittsburgh 
 -------------------------------------------------------
 ---------------------------------------
  Cycle       Energy         DIIS Error
 ---------------------------------------
    1   -1991.3384907688      2.87E-02
    2   -1973.2699397321      1.98E-03
    3   -1973.4683423783      1.48E-03
    4   -1973.6674758512      5.19E-04
    5   -1973.6911276944      2.31E-04
    6   -1973.6964491573      6.04E-05
    7   -1973.6967707681      1.72E-05
    8   -1973.6967991093      5.54E-06
    9   -1973.6968023311      1.50E-06
   10   -1973.6968026411      7.46E-07
   11   -1973.6968027295      2.35E-07
   12   -1973.6968027415      9.58E-08
   13   -1973.6968027401      4.21E-08
   14   -1973.6968027315      1.50E-08
   15   -1973.6968027472      7.75E-09 Convergence criterion met
 ---------------------------------------
 SCF time:  CPU 2780.73 s  wall 723.44 s
 SCF   energy in the final basis set = -1973.69680275
 Total energy in the final basis set = -1973.69680275
 
 Direct TDDFT/TDA calculation will be performed
 Exchange:     0.4200 Hartree-Fock + 0.5800 PBEh-3c
 Correlation:  1.0000 PBEh-3c
 Using SG-1 standard quadrature grid
 Dispersion:   Grimme D3
 Triplet excitation energies requested
 CIS energy converged when residual is below 10e- 6
 ---------------------------------------------------
 Iter    Rts Conv    Rts Left    Ttl Dev     Max Dev
 ---------------------------------------------------
   1         0           2      0.000160    0.000087
   2         0           2      0.000064    0.000036
   3         0           2      0.000029    0.000019
   4         0           2      0.000010    0.000007
   5         1           1      0.000002    0.000002
   6         2           0      0.000001    0.000001    Roots Converged
 ---------------------------------------------------
 
 ---------------------------------------------------
         TDDFT/TDA Excitation Energies              
 ---------------------------------------------------

 Excited state   1: excitation energy (eV) =    1.9977
 Total energy for state  1:                 -1973.62339032 au
    Multiplicity: Triplet
    Trans. Mom.:  0.0000 X   0.0000 Y   0.0000 Z
    Strength   :     0.0000000000
    D(167) --> V(  2) amplitude = -0.2579
    D(174) --> V(  1) amplitude =  0.9249

 Excited state   2: excitation energy (eV) =    2.3624
 Total energy for state  2:                 -1973.60998779 au
    Multiplicity: Triplet
    Trans. Mom.:  0.0000 X   0.0000 Y   0.0000 Z
    Strength   :     0.0000000000
    D(171) --> V(  2) amplitude = -0.4396
    D(173) --> V(  1) amplitude =  0.8055
 
 ---------------------------------------------------
 Calculating Relaxed Density
 ---------------------------------------------------
 Iter    Rts Conv    Rts Left    Ttl Dev     Max Dev
 ---------------------------------------------------
   1         0           2      0.000125    0.000067
   2         0           2      0.000059    0.000029
   3         0           2      0.000016    0.000010
   4         0           2      0.000005    0.000003
   5         1           1      0.000001    0.000001
   6         2           0      0.000000    0.000000    Roots Converged
 ---------------------------------------------------
  SETman timing summary (seconds)
  CPU time              5125.67s
  System time              0.01s
  Wall time              753.46s
 
 --------------------------------------------------------------
 
                    Orbital Energies (a.u.)
 --------------------------------------------------------------
 
 Alpha MOs
 -- Occupied --
-10.464 -10.464 -10.464 -10.464 -10.464 -10.463 -10.462 -10.462
-10.462 -10.462 -10.462 -10.462 -10.460 -10.460 -10.460 -10.460
-10.459 -10.459 -10.459 -10.459 -10.458 -10.458 -10.451 -10.451
-10.449 -10.449 -10.446 -10.446 -10.446 -10.445 -10.445 -10.445
-10.444 -10.444 -10.433 -10.432 -10.431 -10.431 -10.428 -10.428
-10.428 -10.428 -10.428 -10.427 -10.423 -10.423 -10.423 -10.422
-10.416 -10.415  -6.940  -6.939  -1.013  -1.012  -0.958  -0.954
 -0.953  -0.951  -0.933  -0.932  -0.904  -0.895  -0.870  -0.866
 -0.865  -0.865  -0.855  -0.854  -0.847  -0.846  -0.815  -0.812
 -0.810  -0.796  -0.778  -0.778  -0.757  -0.754  -0.754  -0.754
 -0.731  -0.729  -0.728  -0.717  -0.687  -0.681  -0.676  -0.665
 -0.648  -0.641  -0.636  -0.636  -0.636  -0.634  -0.596  -0.592
 -0.589  -0.588  -0.582  -0.575  -0.573  -0.549  -0.544  -0.541
 -0.538  -0.537  -0.526  -0.526  -0.519  -0.507  -0.500  -0.498
 -0.493  -0.492  -0.491  -0.485  -0.481  -0.481  -0.479  -0.478
 -0.478  -0.477  -0.474  -0.466  -0.464  -0.463  -0.462  -0.461
 -0.460  -0.459  -0.453  -0.453  -0.448  -0.447  -0.444  -0.443
 -0.442  -0.437  -0.432  -0.426  -0.424  -0.419  -0.414  -0.410
 -0.409  -0.399  -0.398  -0.394  -0.394  -0.393  -0.389  -0.386
 -0.379  -0.377  -0.376  -0.376  -0.373  -0.363  -0.351  -0.346
 -0.344  -0.332  -0.320  -0.314  -0.295  -0.294  -0.274  -0.269
 -0.268  -0.262  -0.260  -0.259  -0.253  -0.247
 -- Virtual --
 -0.095  -0.061  -0.031  -0.029  -0.001   0.008   0.020   0.027
  0.027   0.036   0.037   0.045   0.075   0.087   0.092   0.092
  0.123   0.134   0.144   0.144   0.154   0.159   0.159   0.162
  0.167   0.168   0.170   0.172   0.177   0.177   0.183   0.184
  0.185   0.189   0.190   0.193   0.196   0.197   0.197   0.198
  0.208   0.211   0.214   0.215   0.218   0.221   0.223   0.225
  0.227   0.229   0.229   0.233   0.234   0.237   0.242   0.243
  0.244   0.250   0.251   0.253   0.254   0.255   0.259   0.262
  0.263   0.268   0.270   0.271   0.273   0.279   0.282   0.282
  0.284   0.286   0.289   0.299   0.307   0.308   0.310   0.315
  0.319   0.324   0.328   0.329   0.335   0.338   0.346   0.350
  0.355   0.360   0.367   0.381   0.384   0.390   0.393   0.406
  0.406   0.407   0.410   0.415   0.421   0.425   0.426   0.431
  0.437   0.449   0.454   0.456   0.458   0.470   0.471   0.485
  0.488   0.491   0.495   0.496   0.500   0.503   0.504   0.505
  0.507   0.509   0.511   0.524   0.527   0.529   0.530   0.532
  0.537   0.538   0.539   0.542   0.546   0.546   0.556   0.557
  0.560   0.562   0.562   0.567   0.568   0.575   0.579   0.581
  0.584   0.585   0.587   0.590   0.592   0.592   0.596   0.596
  0.597   0.598   0.598   0.600   0.607   0.608   0.609   0.611
  0.612   0.616   0.618   0.619   0.624   0.624   0.624   0.626
  0.628   0.630   0.633   0.637   0.640   0.645   0.650   0.653
  0.655   0.657   0.660   0.664   0.667   0.670   0.674   0.676
  0.679   0.681   0.687   0.692   0.697   0.701   0.702   0.707
  0.709   0.710   0.711   0.719   0.721   0.726   0.727   0.732
  0.733   0.734   0.751   0.752   0.754   0.755   0.756   0.758
  0.762   0.764   0.768   0.771   0.776   0.778   0.782   0.786
  0.788   0.790   0.798   0.807   0.816   0.818   0.822   0.831
  0.832   0.837   0.840   0.844   0.850   0.866   0.867   0.873
  0.878   0.881   0.883   0.888   0.892   0.912   0.913   0.916
  0.917   0.922   0.931   0.941   0.947   0.950   0.950   0.954
  0.957   0.964   0.968   0.970   0.977   0.983   0.987   0.987
  0.992   1.000   1.003   1.006   1.012   1.013   1.015   1.016
  1.022   1.031   1.033   1.036   1.038   1.042   1.044   1.047
  1.048   1.049   1.061   1.063   1.068   1.070   1.074   1.074
  1.077   1.077   1.081   1.085   1.087   1.091   1.094   1.094
  1.102   1.103   1.108   1.111   1.114   1.121   1.122   1.125
  1.128   1.133   1.134   1.139   1.142   1.143   1.148   1.154
  1.160   1.162   1.164   1.169   1.170   1.181   1.195   1.198
  1.206   1.208   1.209   1.212   1.225   1.239   1.243   1.250
  1.254   1.259   1.260   1.263   1.277   1.281   1.282   1.286
  1.289   1.300   1.306   1.310   1.313   1.315   1.318   1.320
  1.323   1.330   1.337   1.341   1.347   1.356   1.359   1.363
  1.365   1.378   1.381   1.383   1.386   1.389   1.394   1.400
  1.408   1.412   1.416   1.423   1.436   1.440   1.443   1.443
  1.444   1.464   1.467   1.473   1.476   1.481   1.500   1.508
  1.512   1.512   1.518   1.518   1.519   1.522   1.526   1.529
  1.531   1.532   1.536   1.548   1.549   1.552   1.559   1.560
  1.562   1.565   1.566   1.568   1.571   1.575   1.577   1.583
  1.587   1.593   1.600   1.606   1.614   1.624   1.645   1.654
  1.655   1.658   1.668   1.676   1.689   1.697   1.703   1.716
  1.745   1.756   1.783   1.794   1.796   1.810   1.811   1.812
  1.813   1.817   1.820   1.823   1.838   1.845   1.848   1.853
  1.867   1.870   1.898   1.903   1.905   1.907   1.909   1.916
  1.918   1.923   1.924   1.927   1.934   1.934   1.937   1.946
  1.955   1.957   1.958   1.958   1.959   1.962   1.967   1.976
  1.981   1.983   1.991   1.993   1.993   1.996   2.000   2.022
  2.026   2.049   2.050   2.054   2.057   2.060   2.063   2.069
  2.070   2.082   2.089   2.106   2.112   2.112   2.122   2.139
  2.143   2.147   2.151   2.154   2.155   2.170   2.178   2.194
  2.195   2.199   2.200   2.213   2.215   2.220   2.222   2.228
  2.231   2.234   2.236   2.244   2.246   2.256   2.261   2.263
  2.265   2.275   2.279   2.280   2.284   2.286   2.290   2.293
  2.303   2.308   2.322   2.323   2.324   2.341   2.347   2.348
  2.351   2.353   2.356   2.357   2.360   2.362   2.366   2.374
  2.379   2.381   2.383   2.390   2.394   2.402   2.407   2.409
  2.417   2.420   2.421   2.425   2.428   2.435   2.437   2.440
  2.444   2.446   2.459   2.463   2.470   2.472   2.478   2.481
  2.486   2.490   2.508   2.509   2.510   2.531   2.533   2.548
  2.562   2.584   2.599   2.603   2.609   2.629   2.641   2.644
  2.646   2.670   2.686   2.690   2.713   2.730   2.731   2.733
  2.734   2.735   2.742   2.745   2.747   2.756   2.768   2.768
  2.774   2.781   2.784   2.785   2.790   2.791   2.804   2.805
  2.811   2.823   2.835   2.845   2.859   2.860   2.864   2.868
  2.896   2.899   2.907   2.913   2.916   2.919   2.934   2.940
  2.941   2.946   2.958   2.959   2.966   2.990   2.994   3.009
  3.015   3.032   3.051   3.072   3.085   3.089   3.106   3.220
  3.223   3.248   3.265   3.268   3.410   3.427   3.452   3.484
  3.490   3.492   3.537   3.548   3.661   3.676   9.605   9.747
 13.143  13.179  13.392  13.471  13.503  13.507  13.523  13.550
 13.713  13.720  13.738  13.783  13.788  13.796  13.799  13.843
 13.859  13.892  13.902  13.903  13.911  13.922  13.958  14.004
 14.014  14.021  14.027  14.029  14.113  14.161  14.162  14.186
 14.192  14.196  14.209  14.236  14.257  14.266  14.316  14.319
 14.325  14.328  14.505  14.512  14.553  14.555  14.578  14.580
 14.583  14.586
 --------------------------------------------------------------
 
          Ground-State Mulliken Net Atomic Charges

     Atom                 Charge (a.u.)
  ----------------------------------------
      1 C                    -0.152581
      2 C                    -0.380288
      3 H                     0.236348
      4 C                     0.080107
      5 C                     0.199696
      6 C                    -0.369700
      7 H                     0.222098
      8 C                    -0.205831
      9 H                     0.226549
     10 C                    -0.331901
     11 H                     0.220153
     12 C                    -0.077679
     13 C                     0.254867
     14 C                    -0.335758
     15 H                     0.220521
     16 C                    -0.203076
     17 H                     0.226257
     18 C                    -0.378452
     19 H                     0.221855
     20 C                     0.201111
     21 C                     0.106751
     22 C                    -0.392136
     23 H                     0.235361
     24 C                    -0.153895
     25 B                     0.687284
     26 C                    -0.152645
     27 C                    -0.383411
     28 H                     0.235587
     29 C                     0.083043
     30 C                     0.200328
     31 C                    -0.369530
     32 H                     0.222470
     33 C                    -0.205509
     34 H                     0.226677
     35 C                    -0.332792
     36 H                     0.220216
     37 C                    -0.078900
     38 C                     0.255029
     39 C                    -0.335675
     40 H                     0.220526
     41 C                    -0.203761
     42 H                     0.226397
     43 C                    -0.376015
     44 H                     0.222046
     45 C                     0.200451
     46 C                     0.104020
     47 C                    -0.390471
     48 H                     0.235217
     49 C                    -0.153295
     50 B                     0.689768
     51 C                    -0.221329
     52 C                     0.064215
     53 C                    -0.343854
     54 H                     0.196016
     55 C                     0.130663
     56 C                    -0.337653
     57 H                     0.195892
     58 C                     0.057548
     59 C                    -0.709487
     60 H                     0.225915
     61 H                     0.228563
     62 H                     0.230256
     63 C                    -0.760574
     64 H                     0.233847
     65 H                     0.243369
     66 H                     0.244476
     67 C                    -0.756165
     68 H                     0.232871
     69 H                     0.243195
     70 H                     0.243865
     71 C                    -0.227471
     72 C                     0.058554
     73 C                    -0.343623
     74 H                     0.196104
     75 C                     0.130581
     76 C                    -0.336095
     77 H                     0.196229
     78 C                     0.064759
     79 C                    -0.709521
     80 H                     0.225738
     81 H                     0.228747
     82 H                     0.230680
     83 C                    -0.756620
     84 H                     0.233203
     85 H                     0.243807
     86 H                     0.241658
     87 C                    -0.757855
     88 H                     0.233328
     89 H                     0.244045
     90 H                     0.244689
  ----------------------------------------
  Sum of atomic charges =    -0.000000

 -----------------------------------------------------------------
                    Cartesian Multipole Moments
 -----------------------------------------------------------------
    Charge (ESU x 10^10)
                -0.0000
    Dipole Moment (Debye)
         X       0.0575      Y      -0.8037      Z       0.0865
       Tot       0.8104
    Quadrupole Moments (Debye-Ang)
        XX    -262.1386     XY      -1.3362     YY    -301.7518
        XZ      -5.4397     YZ       3.7976     ZZ    -254.2361
    Octopole Moments (Debye-Ang^2)
       XXX     -26.5060    XXY      49.3210    XYY      -3.6702
       YYY     302.6470    XXZ     388.3142    XYZ      42.3140
       YYZ     433.8605    XZZ       4.4715    YZZ      12.6442
       ZZZ    1126.4872
    Hexadecapole Moments (Debye-Ang^3)
      XXXX  -19476.1194   XXXY     564.1375   XXYY   -3938.2474
      XYYY     662.2685   YYYY   -2414.5017   XXXZ    2427.7818
      XXYZ    -165.8482   XYYZ    1278.3996   YYYZ   -1071.2145
      XXZZ   -7793.3547   XYZZ     -13.4960   YYZZ   -6185.6184
      XZZZ    1929.0311   YZZZ    -365.9170   ZZZZ  -28148.0962
 -----------------------------------------------------------------
 Calculating analytic gradient of the CIS energy
 -4.979217797373252E-004 -4.979285371317873E-004
 -4.979292139648227E-004 -4.979211934862809E-004
 -4.979247746407383E-004 -4.979255354383543E-004
 -4.979329812579825E-004 -4.979173217157371E-004
 -4.979302949697912E-004 -4.979201147142869E-004
 -4.979251996984826E-004 -4.979251225920731E-004
 -4.979360828357063E-004 -4.979142324087240E-004
 -4.979271766002080E-004 -4.979231835186528E-004
 -4.979236057524518E-004 -4.979267117732148E-004
 -4.979361656637869E-004 -4.979141503422290E-004
 -4.979318827147596E-004 -4.979185271187438E-004
 -4.979067806979061E-004 -4.979435318990464E-004
 -4.979312314077876E-004 -4.979190652147351E-004
 -4.979290075425694E-004 -4.979214013830336E-004
 -4.979272010947155E-004 -4.979231254574074E-004
 -4.979624469658383E-004 -4.978878815910792E-004
 -4.979289035441897E-004 -4.979214947159953E-004
 -4.979090158008775E-004 -4.979412866352212E-004
 -4.979309266236883E-004 -4.979193957308020E-004
 -4.979269368987374E-004 -4.979234032278524E-004
 -4.979208126667735E-004 -4.979294784798375E-004
 -4.979143249244188E-004 -4.979359546490602E-004
 -4.979204757058282E-004 -4.979299122268594E-004
 -4.979474690471684E-004 -4.979028656111773E-004
 -4.979337866678280E-004 -4.979164982847203E-004
 -4.979237487990693E-004 -4.979265885489450E-004
 -4.979144232447108E-004 -4.979358985143875E-004
 -4.979359944715737E-004 -4.979143312057801E-004
 -4.979251611109156E-004 -4.979252274883789E-004
 -4.979026440271699E-004 -4.979476495126065E-004
 -4.979162590836927E-004 -4.979340746875825E-004
 -4.979207422051246E-004 -4.979296162050344E-004
 -4.979379394370541E-004 -4.979123486270534E-004
 -4.979372280829817E-004 -4.979131023215537E-004
 -4.979277108236874E-004 -4.979226974232949E-004
 -4.979030530075926E-004 -4.979472776401893E-004
 -4.979103020947063E-004 -4.979399997793047E-004
 -4.979190135195400E-004 -4.979313728178993E-004
 -4.979559503975598E-004 -4.978943709711532E-004
 -4.979359040977022E-004 -4.979144039334442E-004
 -4.979255994976282E-004 -4.979247880264580E-004
 -4.979027295207393E-004 -4.979475806656952E-004
 -4.979202253930646E-004 -4.979300978074938E-004
 -4.979211507025970E-004 -4.979292069861041E-004
 -4.979401463044622E-004 -4.979101505210138E-004
 -4.979143657817544E-004 -4.979359319098816E-004
 -4.979204364674361E-004 -4.979299510217540E-004
 -4.979481106491890E-004 -4.979022120844587E-004
 -4.979290984355936E-004 -4.979212056848800E-004
 -4.979238652210366E-004 -4.979264724727326E-004
 -4.979126125986785E-004 -4.979376971720458E-004
 -4.979188207192744E-004 -4.979314982695233E-004
 -4.979260606305397E-004 -4.979243375586002E-004
 -4.978854919344642E-004 -4.979648216939894E-004
 -4.979257783790474E-004 -4.979245190227499E-004
 -4.979244658517765E-004 -4.979258739018249E-004
 -4.979186638626317E-004 -4.979316517731341E-004
 -4.979210077728377E-004 -4.979292976041193E-004
 -4.979262533408596E-004 -4.979241543142045E-004
 -4.979209268736699E-004 -4.979293945070770E-004
 -4.979348610459782E-004 -4.979154537179214E-004
 -4.979292559125152E-004 -4.979211531435619E-004
 -4.979061202295645E-004 -4.979441962412814E-004
 -4.979215679251896E-004 -4.979287605158190E-004
 -4.979262545465920E-004 -4.979241542177404E-004
 -4.979183195368015E-004 -4.979319793607804E-004
 -4.979201757436382E-004 -4.979301570147059E-004
 -4.979226531995099E-004 -4.979277062279152E-004
 -4.979148520219256E-004 -4.979354493240448E-004
 -4.979271364002177E-004 -4.979231742600415E-004
 -4.979281025464026E-004 -4.979223034802746E-004
 -4.979286675900729E-004 -4.979216481295017E-004
 -4.979322007115253E-004 -4.979181190081639E-004
 -4.979254030666640E-004 -4.979249845503301E-004
 -4.979293555059674E-004 -4.979209694218742E-004
 -4.979234376761760E-004 -4.979268730216243E-004
 -4.979292638374801E-004 -4.979211415613971E-004
 -4.979221324419377E-004 -4.979281850538416E-004
 -4.979289380593254E-004 -4.979213908442727E-004
 -4.979289887781220E-004 -4.979214188599665E-004
 -4.979327338100200E-004 -4.979175660544860E-004
 -4.979298565130431E-004 -4.979204756344097E-004
 -4.979254347931869E-004 -4.979249243544433E-004
 -4.979358459071474E-004 -4.979144555819845E-004
 -4.979154426855901E-004 -4.979348722990195E-004
 -4.979334184382531E-004 -4.979169889674847E-004
 -4.979431939677935E-004 -4.979071254503240E-004
 -4.979310003375928E-004 -4.979193071020653E-004
 -4.979270345670863E-004 -4.979233709716165E-004
 -4.979290978223697E-004 -4.979212218792615E-004
 -4.979295849041310E-004 -4.979207326030316E-004
 -4.979291483591120E-004 -4.979212466346394E-004
 -4.979650915267062E-004 -4.978852257312326E-004
 -4.979250971448015E-004 -4.979251979237096E-004
 -4.979254533790383E-004 -4.979248864463182E-004
 -4.979321116780777E-004 -4.979182073726832E-004
 -4.979382265919030E-004 -4.979120747689719E-004
 -4.979177126723747E-004 -4.979326726210339E-004
 -4.979042203313261E-004 -4.979460975451057E-004
 -4.979201468159968E-004 -4.979301580494816E-004
 -4.979249792176783E-004 -4.979253567179743E-004
 -4.979379075457325E-004 -4.979123983890858E-004
 -4.979117546951558E-004 -4.979385527720660E-004
 -4.979279623214791E-004 -4.979224206907445E-004
 -4.979456875936003E-004 -4.979046287315238E-004
 -4.979308579580607E-004 -4.979194627015889E-004
 -4.979195455936654E-004 -4.979308083296104E-004
 -4.979111906568219E-004 -4.979391138691449E-004
 -4.979125881686194E-004 -4.979377424586038E-004
 -4.979302135214951E-004 -4.979201918809323E-004
 -4.979460830229863E-004 -4.979042499896715E-004
 -4.979429004365961E-004 -4.979074035666368E-004
 -4.979154882626497E-004 -4.979348949285747E-004
 -4.978966632501546E-004 -4.979536579694290E-004
 -4.979121594323736E-004 -4.979381636609197E-004
 -4.979278182228526E-004 -4.979225651820869E-004
 -4.979458287443747E-004 -4.979044703654481E-004
 -4.979346711204907E-004 -4.979156599639256E-004
 -4.979193422297617E-004 -4.979310117850477E-004
 -4.979135000618499E-004 -4.979367930836396E-004
 -4.979382591334952E-004 -4.979120248589152E-004
 -4.979180563348616E-004 -4.979323293750087E-004
 -4.979041803046392E-004 -4.979461564070160E-004
 -4.979163450988745E-004 -4.979339418767883E-004
 -4.979251287923596E-004 -4.979252087312762E-004
 -4.979350246864366E-004 -4.979153011182753E-004
 -4.978881356790584E-004 -4.979621915859263E-004
 -4.979323556136686E-004 -4.979180405998267E-004
 -4.979391574563325E-004 -4.979111494436561E-004
 -4.979200542169038E-004 -4.979302671030825E-004
 -4.979266738632855E-004 -4.979236651845354E-004
 -4.979285274026465E-004 -4.979217650863273E-004
 -4.979203580028121E-004 -4.979299426149724E-004
 -4.979289325337801E-004 -4.979214744779976E-004
 -4.979225303158384E-004 -4.979277970686854E-004
 -4.979141139872427E-004 -4.979362045137521E-004
 -4.979344624472247E-004 -4.979159444593501E-004
 -4.979431662245949E-004 -4.979071483478577E-004
 -4.979176428932699E-004 -4.979326616514362E-004
 -4.979306338414889E-004 -4.979197732702691E-004
 -4.979246934303016E-004 -4.979256315132216E-004
 -4.979134160805352E-004 -4.979368992885623E-004
 -4.979275713449008E-004 -4.979227879447500E-004
 -4.979262547540490E-004 -4.979240645246877E-004
 -4.979290293937795E-004 -4.979212877796115E-004
 -4.979296323073357E-004 -4.979207732956364E-004
 -4.979257490364623E-004 -4.979245614393438E-004
 -4.979191930082648E-004 -4.979311276120176E-004
 -4.979260402412501E-004 -4.979243466788827E-004
 -4.979213246582058E-004 -4.979290019563058E-004
 -4.979144168618332E-004 -4.979359069349446E-004
 -4.979217013713506E-004 -4.979286202432975E-004
 -4.979190297130041E-004 -4.979312762265734E-004
 -4.979570319450940E-004 -4.978932748445926E-004
 -4.979497716529357E-004 -4.979005406861192E-004
 -4.979424287059342E-004 -4.979078833947412E-004
 -4.979147693983002E-004 -4.979355680616999E-004
 -4.979206912796407E-004 -4.979295914781649E-004
 -4.979186874810930E-004 -4.979316378004317E-004
 -4.979455524612010E-004 -4.979047822574628E-004
 -4.979250608387547E-004 -4.979252283035305E-004
 -4.979366225845645E-004 -4.979137004898959E-004
 -4.979610045098231E-004 -4.978893094852381E-004
 -4.979255601719086E-004 -4.979247484956583E-004
 -4.979465028357916E-004 -4.979038104401748E-004
 -4.979140551383094E-004 -4.979362819390216E-004
 -4.979225774818094E-004 -4.979277021268780E-004
 -4.979194661807915E-004 -4.979308543866127E-004
 -4.979470246825089E-004 -4.979033045455378E-004
 -4.979244557663293E-004 -4.979258275477834E-004
 -4.979382381956360E-004 -4.979120799682263E-004
 -4.979568347208852E-004 -4.978934690404307E-004
 -4.978956479032902E-004 -4.979546624552453E-004
 -4.979449686210123E-004 -4.979053371343222E-004
 -4.979064141219727E-004 -4.979439088608354E-004
 -4.979323720792678E-004 -4.979179220647792E-004
 -4.979171310064459E-004 -4.979331840077568E-004
 -4.979361085461760E-004 -4.979142043279128E-004
 -4.979252789863846E-004 -4.979250249562602E-004
 -4.979314651476822E-004 -4.979188480432611E-004
 -4.979303524902912E-004 -4.979199633497271E-004
 -4.979201663390352E-004 -4.979301370513150E-004
 -4.979354074600639E-004 -4.979149000618885E-004
 -4.979369311667328E-004 -4.979133705477233E-004
 -4.979205315145108E-004 -4.979297811153363E-004
 -4.979213833678501E-004 -4.979289294262764E-004
 -4.979287165239317E-004 -4.979216101603113E-004
 -4.978998512631279E-004 -4.979504392086275E-004
 -4.979258927846112E-004 -4.979244307435079E-004
 -4.979352560053531E-004 -4.979150791185622E-004
 -4.979134546769843E-004 -4.979368494964430E-004
 -4.979305218154085E-004 -4.979198027566035E-004
 -4.979403350547910E-004 -4.979099743908192E-004
 -4.979251235559365E-004 -4.979251840435723E-004
 -4.979258759671357E-004 -4.979244390385490E-004
 -4.979328845581118E-004 -4.979174330422151E-004
 -4.979250186350297E-004 -4.979252891667709E-004
 -4.979378116081180E-004 -4.979124988796173E-004
 -4.979282709179496E-004 -4.979220551462570E-004
 -4.979452260962811E-004 -4.979050676478434E-004
 -4.979271432826029E-004 -4.979231797160117E-004
 -4.979385803408661E-004 -4.979117537438765E-004
 -4.979358285781482E-004 -4.979144697166314E-004
 -4.979331961528239E-004 -4.979171225667297E-004
 -4.979378187140764E-004 -4.979124969811714E-004
 -4.979229435177169E-004 -4.979273679002351E-004
 -4.979394470730420E-004 -4.979108663652953E-004
 -4.979427030521511E-004 -4.979076132801242E-004
 -4.979235110672353E-004 -4.979267991199793E-004
 -4.979288961635271E-004 -4.979214187211000E-004
 -4.979354600101123E-004 -4.979148616649515E-004
 -4.979185603254057E-004 -4.979317617595509E-004
 -4.979314519639595E-004 -4.979188510724872E-004
 -4.978902892366282E-004 -4.979600144069715E-004
 -4.978998241114495E-004 -4.979504833451083E-004
 -4.979067339611818E-004 -4.979435681677680E-004
 -4.979339515568613E-004 -4.979163807270094E-004
 -4.979200936711527E-004 -4.979301882459494E-004
 -4.979311362491846E-004 -4.979191818924334E-004
 -4.979017625383179E-004 -4.979485621592792E-004
 -4.979274052753249E-004 -4.979228827235715E-004
 -4.979121683537011E-004 -4.979381474289170E-004
 -4.978892692412117E-004 -4.979610441397418E-004
 -4.979293855204362E-004 -4.979209237937068E-004
 -4.979032577825808E-004 -4.979470534773143E-004
 -4.979347343240145E-004 -4.979156041907313E-004
 -4.979181607625788E-004 -4.979321200557241E-004
 -4.979308762232728E-004 -4.979194470194395E-004
 -4.979052500753125E-004 -4.979450866562893E-004
 -4.979266451582707E-004 -4.979236412919915E-004
 -4.979135630026326E-004 -4.979367610426751E-004
 -4.978980791815019E-004 -4.979522269810061E-004
 -4.979532513125028E-004 -4.978970606220544E-004
 -4.979069278409847E-004 -4.979433810117710E-004
 -4.979426871763289E-004 -4.979076324635457E-004
 -4.979128257472603E-004 -4.979374769508779E-004
 -4.979332443650819E-004 -4.979170636253743E-004
 -4.979138448686067E-004 -4.979364615496790E-004
 -4.979270256711105E-004 -4.979232811601592E-004
 -4.979191303674299E-004 -4.979311782420177E-004
 -4.979205022145457E-004 -4.979298160911184E-004
 -4.979301335164703E-004 -4.979201721996124E-004
 -4.979136241154242E-004 -4.979366818657637E-004
 -4.979124835218402E-004 -4.979378192884927E-004
 -4.979299691851362E-004 -4.979203449536359E-004
 -4.979295848284198E-004 -4.979207264549389E-004
 -4.979186595547430E-004 -4.979316617654999E-004
 -4.978992254341593E-004 -4.979510699265345E-004
 -4.979242387394513E-004 -4.979260870367713E-004
 -4.979156186025229E-004 -4.979347151872545E-004
 -4.979139130518437E-004 -4.979363938162148E-004
 -4.979195107416562E-004 -4.979308133383638E-004
 -4.979163655708884E-004 -4.979339498331529E-004
 -4.979256636329182E-004 -4.979246460976614E-004
 -4.979124000683742E-004 -4.979379106753021E-004
 -4.979099997191438E-004 -4.979403110904223E-004
 -4.979253066508081E-004 -4.979249979024369E-004
 -4.979238714731850E-004 -4.979264435097967E-004
 -4.979247116513536E-004 -4.979256158113016E-004
 -4.979444318197080E-004 -4.979058595018978E-004
 -4.979242712645968E-004 -4.979260503006075E-004
 -4.979118869876851E-004 -4.979384462834787E-004
 -4.979380950629299E-004 -4.979122020754968E-004
 -4.979174805275652E-004 -4.979328377575234E-004
 -4.979125554227827E-004 -4.979377610392680E-004
 -4.979247272246713E-004 -4.979255828380834E-004
 -4.979116523441075E-004 -4.979386629016744E-004
 -4.979071957322659E-004 -4.979431191963308E-004
 -4.979251200633799E-004 -4.979251921774527E-004
 -4.979221433231999E-004 -4.979281714400663E-004
 CIS relaxed dipole moment
            1
    1   0.0259919
    2  -0.3315052
    3   0.0291954
	Magnitude:	 0.334 au	 0.848 Debye
 CIS 1 State Energy is -1973.6233903230
 Gradient of the state energy (including CIS Excitation Energy)
            1           2           3           4           5           6
    1  -0.0013830  -0.0010818   0.0002143  -0.0050745   0.0001823   0.0002650
    2  -0.0001531   0.0001291  -0.0001802   0.0001434   0.0003091  -0.0002010
    3  -0.0030134   0.0012547  -0.0000629  -0.0038436  -0.0025863   0.0010969
            7           8           9          10          11          12
    1   0.0001060   0.0015664   0.0001038  -0.0017696   0.0001010  -0.0012085
    2  -0.0000770   0.0000638  -0.0000275  -0.0000287  -0.0000801   0.0005986
    3   0.0002899  -0.0007674   0.0001036  -0.0007596   0.0001399  -0.0036439
           13          14          15          16          17          18
    1  -0.0011656   0.0019661   0.0003536   0.0004599   0.0002411  -0.0000943
    2  -0.0006606  -0.0000753  -0.0000613  -0.0001916  -0.0000721  -0.0001972
    3   0.0041945   0.0017973   0.0002819  -0.0008205   0.0001486   0.0010794
           19          20          21          22          23          24
    1   0.0003459   0.0005918   0.0017578  -0.0000580   0.0004814   0.0014752
    2  -0.0000548   0.0001776   0.0004252   0.0001105  -0.0001299   0.0002081
    3   0.0003696  -0.0016558   0.0007998   0.0006375   0.0000538  -0.0004737
           25          26          27          28          29          30
    1   0.0002199  -0.0031856   0.0008175   0.0001196  -0.0043563  -0.0013940
    2  -0.0001701   0.0001784  -0.0002856  -0.0000764   0.0006744   0.0000883
    3  -0.0000906  -0.0004003  -0.0018050   0.0003157  -0.0048221   0.0012820
           31          32          33          34          35          36
    1   0.0011989   0.0002207   0.0002130   0.0001679  -0.0011737   0.0001353
    2  -0.0004426  -0.0001063   0.0000829  -0.0000228  -0.0000424  -0.0000789
    3   0.0004108   0.0002833   0.0018635   0.0001852  -0.0006102   0.0001553
           37          38          39          40          41          42
    1  -0.0024186   0.0021671   0.0019837   0.0001981  -0.0008616   0.0001845
    2   0.0006807  -0.0007947  -0.0001468  -0.0000464   0.0002317  -0.0000606
    3  -0.0012478  -0.0028251   0.0011248   0.0002579   0.0012363   0.0002217
           43          44          45          46          47          48
    1   0.0002809   0.0003444  -0.0015671   0.0025794   0.0002011   0.0004352
    2  -0.0003928  -0.0000924   0.0008153  -0.0000345   0.0002292  -0.0001895
    3  -0.0001853   0.0003685   0.0011687  -0.0000906   0.0001383   0.0006604
           49          50          51          52          53          54
    1   0.0010890   0.0005288   0.0003197  -0.0000984  -0.0004699   0.0000242
    2   0.0000719   0.0004926  -0.0003137  -0.0002438   0.0001554   0.0000484
    3   0.0019430   0.0010250   0.0002470   0.0002262   0.0000813  -0.0000152
           55          56          57          58          59          60
    1   0.0000194  -0.0003358  -0.0000536   0.0001899   0.0002516   0.0001019
    2   0.0000166  -0.0000360  -0.0000381  -0.0000216  -0.0000308   0.0000224
    3   0.0001044  -0.0001338   0.0000233   0.0000874   0.0001907  -0.0000539
           61          62          63          64          65          66
    1   0.0000438   0.0000080   0.0003423  -0.0000659   0.0000663   0.0002492
    2  -0.0000074   0.0000217   0.0000646   0.0000741  -0.0001386   0.0000826
    3  -0.0000252  -0.0000796   0.0000693   0.0000110   0.0003814   0.0000932
           67          68          69          70          71          72
    1   0.0001665  -0.0000519   0.0003597   0.0001955  -0.0009472   0.0002597
    2  -0.0000405  -0.0000491   0.0001696  -0.0001281   0.0002953   0.0000958
    3   0.0003263  -0.0000314   0.0000874   0.0001597   0.0002027   0.0002531
           73          74          75          76          77          78
    1   0.0000338   0.0001779  -0.0000395   0.0002128   0.0001768   0.0003593
    2  -0.0001905  -0.0000890   0.0000623   0.0000747  -0.0000101  -0.0000329
    3   0.0000222   0.0000658  -0.0000024   0.0002739   0.0000914   0.0005183
           79          80          81          82          83          84
    1   0.0000216   0.0000502   0.0001023   0.0001443   0.0004827   0.0002422
    2  -0.0000530  -0.0000046   0.0000169  -0.0000108   0.0000273   0.0000439
    3  -0.0000946   0.0000686   0.0000690   0.0001259   0.0001918   0.0001676
           85          86          87          88          89          90
    1  -0.0000137   0.0000992   0.0002936   0.0002008   0.0001401   0.0002360
    2  -0.0001854  -0.0000768  -0.0000673  -0.0001269   0.0000209   0.0000647
    3   0.0002604   0.0001074   0.0002531   0.0001246   0.0002642   0.0001035
 Gradient time:  CPU 2461.00 s  wall 427.39 s
 Geometry Optimization Parameters
   NAtoms,    NIC,     NZ,  NCons,   NDum,   NFix, NCnnct, MaxDiis
       90     714      90       0       0       0       0       0


** GEOMETRY OPTIMIZATION IN DELOCALIZED INTERNAL COORDINATES **
   Searching for a Minimum

   Optimization Cycle:   1

                       Coordinates (Angstroms)
     ATOM                X               Y               Z
      1  C         0.0000000000    0.0000000000    0.0000000000
      2  C         0.0000000000    0.0000000000    1.3998220000
      3  H         0.9453129492    0.0000000000    1.9314413338
      4  C        -1.1852562271   -0.0439197277    2.0888531747
      5  C        -1.4489517596   -0.1301941159    3.5051479647
      6  C        -0.6688780495   -0.1631059843    4.6385429699
      7  H         0.4102892303   -0.0933669668    4.5907927612
      8  C        -1.3076881732   -0.2999522293    5.8856047751
      9  H        -0.6982585181   -0.3258752815    6.7795830809
     10  C        -2.6771084762   -0.4101631710    6.0098754350
     11  H        -3.1198312618   -0.5225289057    6.9918933141
     12  C        -2.8495966076   -0.2345597903    3.6387425285
     13  C        -3.5020396618   -0.3847136060    4.8624428916
     14  C        -4.9080499217   -0.5086179928    4.8007005040
     15  H        -5.4813477794   -0.6317727923    5.7111541476
     16  C        -5.5512270427   -0.4815338387    3.5812691760
     17  H        -6.6281028594   -0.5844745154    3.5586130305
     18  C        -4.8664001020   -0.3313133342    2.3577393275
     19  H        -5.4223470614   -0.3259636628    1.4294074136
     20  C        -3.4970747663   -0.2050702002    2.3820892220
     21  C        -2.4495568805   -0.0785550222    1.3859648725
     22  C        -2.4680885394   -0.0303078097    0.0113251352
     23  H        -3.4078400197   -0.0447971910   -0.5290987266
     24  C        -1.2645346554    0.0081436077   -0.7142726667
     25  B         1.3346699437   -0.0887273882   -0.7468569715
     26  C         1.3043301096   -0.1675490420   -2.2767624380
     27  C         2.5018428055   -0.3469931849   -2.9793595804
     28  H         3.4351201777   -0.4018528600   -2.4293957346
     29  C         2.4873186054   -0.4848287392   -4.3451883801
     30  C         3.5519896469   -0.7561964234   -5.2796107755
     31  C         4.9075992657   -0.9689906864   -5.1724165813
     32  H         5.4182574272   -0.9289119725   -4.2186091423
     33  C         5.6304380746   -1.2551227719   -6.3461386209
     34  H         6.6964619185   -1.4254152927   -6.2688368091
     35  C         5.0323159430   -1.3328452811   -7.5874903611
     36  H         5.6342551487   -1.5618121815   -8.4580863750
     37  C         2.9455453837   -0.8372766547   -6.5527035557
     38  C         3.6400280730   -1.1244743701   -7.7265318997
     39  C         2.8590482469   -1.1887288794   -8.9031259832
     40  H         3.3290992486   -1.4059538859   -9.8541546176
     41  C         1.4962474362   -0.9839556169   -8.8434948268
     42  H         0.9210770768   -1.0443563064   -9.7579597843
     43  C         0.8164417929   -0.7072852519   -7.6402599885
     44  H        -0.2564939797   -0.5668138172   -7.6466490606
     45  C         1.5483917116   -0.6304002983   -6.4789758760
     46  C         1.2421841306   -0.4138154702   -5.0800951816
     47  C         0.0583782339   -0.2219534748   -4.4057556659
     48  H        -0.8815639274   -0.1814140816   -4.9441386634
     49  C         0.0476222139   -0.1107548649   -3.0051370698
     50  B        -1.2868358135    0.0007430412   -2.2497708951
     51  C        -2.6527992985    0.0511152635   -3.0296534328
     52  C        -3.2338032397    1.2790013334   -3.3603380463
     53  C        -4.4380966766    1.3147739646   -4.0564604477
     54  H        -4.8752952290    2.2750858432   -4.3096712750
     55  C        -5.0898458481    0.1497107515   -4.4352646617
     56  C        -4.5105802841   -1.0670918979   -4.0936320293
     57  H        -5.0092412225   -1.9894626772   -4.3755174532
     58  C        -3.3089535046   -1.1309752089   -3.4004732135
     59  C        -6.3807647743    0.1896488730   -5.2004317478
     60  H        -6.7459166838    1.2092877191   -5.3189927705
     61  H        -7.1616545763   -0.3841912642   -4.6989985203
     62  H        -6.2638297894   -0.2338516054   -6.1998271539
     63  C        -2.5533688306    2.5579325313   -2.9580916913
     64  H        -3.0952755280    3.4344480323   -3.3132724169
     65  H        -1.5380210727    2.6135164277   -3.3563139372
     66  H        -2.4695877259    2.6401797296   -1.8721075154
     67  C        -2.7110798125   -2.4648846968   -3.0462159661
     68  H        -3.3632698223   -3.2887499939   -3.3364881794
     69  H        -2.5288383513   -2.5497870622   -1.9727955128
     70  H        -1.7484130476   -2.6184499970   -3.5391505082
     71  C         2.6922605825   -0.1770248674    0.0516499432
     72  C         3.2028093314   -1.4219700270    0.4381164045
     73  C         4.3968163218   -1.4959885397    1.1488901097
     74  H         4.7795946023   -2.4694197625    1.4385662391
     75  C         5.1082594532   -0.3569358862    1.4957272577
     76  C         4.5948553350    0.8762397528    1.1108825779
     77  H         5.1362640785    1.7805559904    1.3708258025
     78  C         3.4062605873    0.9778914103    0.3995087813
     79  C         6.3900213337   -0.4463622792    2.2727412947
     80  H         6.7144168831   -1.4796412422    2.3929499936
     81  H         7.1971697076    0.0970937028    1.7793278513
     82  H         6.2811609612   -0.0204904387    3.2721154462
     83  C         2.8751152990    2.3276317389    0.0066394699
     84  H         3.5585514177    3.1290371468    0.2874176476
     85  H         2.7106158584    2.3930923706   -1.0707587363
     86  H         1.9140302399    2.5298350147    0.4847481998
     87  C         2.4615978171   -2.6844835309    0.0939776439
     88  H         2.9911788513   -3.5704489212    0.4448237161
     89  H         2.3226872852   -2.7899696499   -0.9838715215
     90  H         1.4660822169   -2.6976477898    0.5428619474
   Point Group: c1    Number of degrees of freedom:   264


   Energy is  -1973.623390323


 Attempting to Generate Delocalized Internal Coordinates

264 Hessian modes will be used to form the next step
  Hessian Eigenvalues:
     0.008505    0.008639    0.008661    0.008718    0.008815    0.008973
     0.009003    0.009022    0.012368    0.012967    0.014218    0.015659
     0.016773    0.016967    0.016972    0.017057    0.017417    0.017446
     0.017518    0.017564    0.017570    0.017579    0.017866    0.018548
     0.018698    0.018992    0.019109    0.019296    0.019357    0.020478
     0.020506    0.020893    0.020915    0.021035    0.021056    0.021259
     0.021265    0.021436    0.021451    0.021770    0.021827    0.022304
     0.022371    0.022540    0.022565    0.022608    0.022620    0.022624
     0.022644    0.023174    0.023176    0.023197    0.023237    0.023374
     0.023410    0.023432    0.023455    0.023675    0.023676    0.023753
     0.023760    0.023779    0.023788    0.023800    0.023801    0.023873
     0.023915    0.024072    0.024113    0.024126    0.024136    0.024327
     0.024383    0.024389    0.024418    0.071356    0.071365    0.071462
     0.071504    0.071877    0.071883    0.072068    0.072079    0.072294
     0.072332    0.072428    0.072603    0.159888    0.159933    0.159936
     0.159950    0.159993    0.159994    0.159995    0.159995    0.159996
     0.159996    0.159997    0.159997    0.159998    0.159998    0.159998
     0.159999    0.160000    0.160000    0.160000    0.160000    0.160000
     0.160000    0.160000    0.160000    0.160000    0.160000    0.160000
     0.160000    0.160000    0.160000    0.160000    0.160000    0.160000
     0.160000    0.160000    0.160000    0.160000    0.160000    0.220602
     0.220604    0.222112    0.222112    0.231425    0.231744    0.233680
     0.233684    0.234609    0.234609    0.234836    0.234840    0.237278
     0.237283    0.239172    0.239537    0.248551    0.248589    0.248983
     0.249210    0.249266    0.249411    0.249476    0.249503    0.249574
     0.249658    0.249775    0.249808    0.249831    0.249987    0.249991
     0.249994    0.249994    0.249995    0.249997    0.249997    0.249998
     0.250000    0.250000    0.254403    0.257286    0.283153    0.286026
     0.290777    0.291106    0.319527    0.319698    0.320147    0.320904
     0.322149    0.322536    0.327262    0.329378    0.345390    0.345461
     0.345468    0.345690    0.345727    0.345753    0.345973    0.345999
     0.346087    0.346165    0.346849    0.346969    0.347923    0.347987
     0.348088    0.348129    0.348525    0.348681    0.349963    0.353064
     0.353286    0.353548    0.353843    0.354377    0.354508    0.354965
     0.355189    0.355875    0.356288    0.356412    0.356450    0.356507
     0.356763    0.356973    0.357174    0.357234    0.357405    0.357437
     0.357511    0.357542    0.357684    0.364921    0.381337    0.383141
     0.386648    0.388661    0.403354    0.404041    0.407491    0.408315
     0.420297    0.420875    0.423415    0.424047    0.424843    0.424844
     0.426208    0.427174    0.431935    0.432564    0.436129    0.436616
     0.446452    0.446909    0.451780    0.452852    0.459192    0.460067
     0.467036    0.467287    0.472697    0.472785    0.475441    0.475915
     0.476139    0.476965    0.478774    0.479454    0.486122    0.486753
     0.490410    0.490703    0.492618    0.493017    0.495664    0.497315

 Minimum Search - Taking Simple RFO Step
 Searching for Lamda that Minimizes Along All modes
 Value Taken    Lamda =  -0.00275562
 Step Taken.  Stepsize is  0.243609

                             Maximum     Tolerance    Cnvgd?
         Gradient           0.011431      0.000300      NO
         Displacement       0.184824      0.001200      NO
         Energy change     *********      0.000001      NO


 New Cartesian Coordinates Obtained by Inverse Iteration

 Displacement from previous Coordinates is:  3.059154
 Adding empirical dispersion correction 
 ----------------------------------------------------------------
 Doing -D3(BJ) with
 s6 =   1.00000
 s8 =   0.00000
 a1 =   0.48600
 a2 =   4.50000
 -D3 energy including 3body term =     -0.0824215172 hartrees
 ----------------------------------------------------------------
 Adding gCP correction 
 ----------------------------------------------------------------
 gCP energy =      0.1091285539 hartrees
 ----------------------------------------------------------------
             Standard Nuclear Orientation (Angstroms)
    I     Atom           X                Y                Z
 ----------------------------------------------------------------
    1      C       0.0113922265    -0.1597398579     0.0449839473
    2      C       0.0121426094    -0.1298161881     1.4484326707
    3      H       0.9569942052    -0.1314818910     1.9804015991
    4      C      -1.1761648034    -0.1092719978     2.1404566920
    5      C      -1.4720183727    -0.1200709760     3.5583392477
    6      C      -0.7225495945    -0.1344066612     4.7110958613
    7      H       0.3594799106    -0.1242984330     4.6869077641
    8      C      -1.3992881842    -0.1654594629     5.9470076350
    9      H      -0.8136747002    -0.1750936443     6.8568351054
   10      C      -2.7746907962    -0.1860804483     6.0423202525
   11      H      -3.2457914509    -0.2125377988     7.0170268005
   12      C      -2.8804621564    -0.1355059701     3.6673321140
   13      C      -3.5718236189    -0.1732389090     4.8738716827
   14      C      -4.9850280934    -0.2033294390     4.7811460332
   15      H      -5.5868478592    -0.2331853198     5.6808718230
   16      C      -5.6013781158    -0.1980181252     3.5490684752
   17      H      -6.6824884674    -0.2237044846     3.5037283141
   18      C      -4.8785485758    -0.1639587185     2.3401563038
   19      H      -5.4098538689    -0.1651719451     1.3966609095
   20      C      -3.5047543308    -0.1306416066     2.3996933012
   21      C      -2.4382687035    -0.1142919679     1.4212591506
   22      C      -2.4549668705    -0.1178893665     0.0465866569
   23      H      -3.3955867950    -0.1025497355    -0.4936126963
   24      C      -1.2532012898    -0.1400479040    -0.6765633812
   25      B       1.3412975775    -0.2592101144    -0.7145833217
   26      C       1.3147523780    -0.3246458816    -2.2448929332
   27      C       2.5187834053    -0.4554705270    -2.9497955153
   28      H       3.4535919536    -0.4937002864    -2.4018121963
   29      C       2.5099732394    -0.5342822368    -4.3220550224
   30      C       3.5741373985    -0.7027636383    -5.2889232860
   31      C       4.9401170279    -0.8501563168    -5.2223813155
   32      H       5.4683377510    -0.8406056323    -4.2779793841
   33      C       5.6534087755    -1.0205246343    -6.4260201867
   34      H       6.7281234610    -1.1368717201    -6.3786348964
   35      C       5.0380490830    -1.0470740461    -7.6594602259
   36      H       5.6332240636    -1.1818251959    -8.5541154057
   37      C       2.9536490359    -0.7315701258    -6.5583492686
   38      C       3.6348371135    -0.9014132895    -7.7605901914
   39      C       2.8390588079    -0.9172723767    -8.9324089403
   40      H       3.3038218731    -1.0423668082    -9.9026426008
   41      C       1.4717427529    -0.7743163946    -8.8456815303
   42      H       0.8854634539    -0.7894983126    -9.7554428636
   43      C       0.8036617338    -0.6105400489    -7.6158837272
   44      H      -0.2738125028    -0.5061821113    -7.5996437485
   45      C       1.5517262396    -0.5891315643    -6.4609854731
   46      C       1.2537314895    -0.4663632098    -5.0501812083
   47      C       0.0652692949    -0.3347478319    -4.3729366055
   48      H      -0.8737584284    -0.2802143020    -4.9137996988
   49      C       0.0544997098    -0.2679148165    -2.9718810727
   50      B      -1.2802129379    -0.1632123798    -2.2164420801
   51      C      -2.6442129551    -0.0828010869    -3.0053262227
   52      C      -3.1963541041     1.1567479779    -3.3458415819
   53      C      -4.3937384133     1.2173592861    -4.0520124507
   54      H      -4.8083956376     2.1867153257    -4.3084123050
   55      C      -5.0688934979     0.0675643598    -4.4351440865
   56      C      -4.5155240727    -1.1601706765    -4.0918928108
   57      H      -5.0293588257    -2.0720030389    -4.3804551303
   58      C      -3.3218885125    -1.2498752482    -3.3885007870
   59      C      -6.3563518718     0.1343385844    -5.2054191885
   60      H      -6.7014798404     1.1609451115    -5.3238874907
   61      H      -7.1502808434    -0.4243690441    -4.7072368821
   62      H      -6.2443992467    -0.2907519522    -6.2045989594
   63      C      -2.4954530130     2.4243098218    -2.9457895129
   64      H      -3.0209397811     3.3081638747    -3.3069930744
   65      H      -1.4783356131     2.4617373466    -3.3419491958
   66      H      -2.4162276619     2.5092371537    -1.8598481568
   67      C      -2.7569946974    -2.5994757805    -3.0426327459
   68      H      -3.4229370809    -3.4053116826    -3.3512802126
   69      H      -2.5918070138    -2.7024415253    -1.9682365364
   70      H      -1.7924986485    -2.7670921367    -3.5269411342
   71      C       2.7055321792    -0.3114802504     0.0613138342
   72      C       3.2407043367    -1.5399947132     0.4592042230
   73      C       4.4470610080    -1.5775520073     1.1510341685
   74      H       4.8520253169    -2.5374829226     1.4543700182
   75      C       5.1432269238    -0.4173623365     1.4597358968
   76      C       4.6042113156     0.7990648128     1.0546454737
   77      H       5.1350206329     1.7181605240     1.2819454353
   78      C       3.4025233618     0.8639679504     0.3628477063
   79      C       6.4385678654    -0.4663975039     2.2164213031
   80      H       6.7828267823    -1.4908445962     2.3551370172
   81      H       7.2271871735     0.0790750954     1.6961609902
   82      H       6.3377835935    -0.0183794461     3.2067560276
   83      C       2.8366904441     2.1904525540    -0.0634898320
   84      H       3.5051932187     3.0150630863     0.1825742142
   85      H       2.6569321517     2.2202252339    -1.1404387164
   86      H       1.8772955458     2.3871202485     0.4204784788
   87      C       2.5108538556    -2.8171691945     0.1423786285
   88      H       3.0555328118    -3.6920027721     0.4968938572
   89      H       2.3581566197    -2.9385071941    -0.9323661929
   90      H       1.5209556958    -2.8371966122     0.6038847858
 ----------------------------------------------------------------
 Nuclear Repulsion Energy =  6083.1634022970 hartrees
 There are      174 alpha and      174 beta electrons
 Applying Cartesian multipole field
    Component          Value
    ---------          -----
     (2,0,0)        1.00000E-12
     (0,2,0)        2.00000E-11
     (0,0,2)       -3.00000E-12
 Nucleus-field energy     =    -0.0000000251 hartrees
 Requested basis set is def2-mSVP
 There are 440 shells and 856 basis functions
 A cutoff of  1.0D-11 yielded  36406 shell pairs
 There are    144716 function pairs (    159649 Cartesian)
 Smallest overlap matrix eigenvalue = 2.04E-04
 Guess MOs from SCF MO coefficient file
 Reading MOs from coefficient file
 Reading MOs from coefficient file
 A restricted hybrid HF-DFT SCF calculation will be
 performed using Pulay DIIS extrapolation
 Exchange:     0.4200 Hartree-Fock + 0.5800 PBEh-3c
 Correlation:  1.0000 PBEh-3c
 Using SG-1 standard quadrature grid
 Dispersion:   Grimme D3
 SCF converges when DIIS error is below 1.0E-08
 Geometry optimization detected.  Setting ReadMinima to 0
 Setting SaveMinima to 0
 using 8 threads for integral computing
 -------------------------------------------------------
 OpenMP Integral computing Module                
 Release: version 1.0, May 2013, Q-Chem Inc. Pittsburgh 
 -------------------------------------------------------
 ---------------------------------------
  Cycle       Energy         DIIS Error
 ---------------------------------------
    1   -1973.6125440692      1.21E-03
    2   -1973.6948760689      1.14E-04
    3   -1973.6965561745      9.47E-05
    4   -1973.6972959068      4.62E-05
    5   -1973.6974949290      1.93E-05
    6   -1973.6975312998      6.51E-06
    7   -1973.6975353525      1.50E-06
    8   -1973.6975355708      6.11E-07
    9   -1973.6975356110      2.36E-07
   10   -1973.6975356188      7.52E-08
   11   -1973.6975356151      2.27E-08
   12   -1973.6975356036      9.14E-09 Convergence criterion met
 ---------------------------------------
 SCF time:  CPU 2301.97 s  wall 590.19 s
 SCF   energy in the final basis set = -1973.69753560
 Total energy in the final basis set = -1973.69753560
 
 Direct TDDFT/TDA calculation will be performed
 Exchange:     0.4200 Hartree-Fock + 0.5800 PBEh-3c
 Correlation:  1.0000 PBEh-3c
 Using SG-1 standard quadrature grid
 Dispersion:   Grimme D3
 Triplet excitation energies requested
 CIS energy converged when residual is below 10e- 6
 ---------------------------------------------------
 Iter    Rts Conv    Rts Left    Ttl Dev     Max Dev
 ---------------------------------------------------
   1         0           2      0.000160    0.000088
   2         0           2      0.000064    0.000036
   3         0           2      0.000029    0.000020
   4         0           2      0.000010    0.000007
   5         1           1      0.000002    0.000002
   6         2           0      0.000001    0.000001    Roots Converged
 ---------------------------------------------------
 
 ---------------------------------------------------
         TDDFT/TDA Excitation Energies              
 ---------------------------------------------------

 Excited state   1: excitation energy (eV) =    1.9847
 Total energy for state  1:                 -1973.62459981 au
    Multiplicity: Triplet
    Trans. Mom.:  0.0000 X   0.0000 Y   0.0000 Z
    Strength   :     0.0000000000
    D(167) --> V(  2) amplitude =  0.2600
    D(174) --> V(  1) amplitude =  0.9255

 Excited state   2: excitation energy (eV) =    2.3697
 Total energy for state  2:                 -1973.61045102 au
    Multiplicity: Triplet
    Trans. Mom.:  0.0000 X   0.0000 Y   0.0000 Z
    Strength   :     0.0000000000
    D(171) --> V(  2) amplitude = -0.4726
    D(173) --> V(  1) amplitude =  0.8045
 
 ---------------------------------------------------
 Calculating Relaxed Density
 ---------------------------------------------------
 Iter    Rts Conv    Rts Left    Ttl Dev     Max Dev
 ---------------------------------------------------
   1         0           2      0.000125    0.000067
   2         0           2      0.000058    0.000029
   3         0           2      0.000016    0.000010
   4         0           2      0.000005    0.000003
   5         1           1      0.000001    0.000001
   6         2           0      0.000000    0.000000    Roots Converged
 ---------------------------------------------------
  SETman timing summary (seconds)
  CPU time              5211.47s
  System time              0.01s
  Wall time              771.72s
 
 --------------------------------------------------------------
 
                    Orbital Energies (a.u.)
 --------------------------------------------------------------
 
 Alpha MOs
 -- Occupied --
-10.464 -10.464 -10.464 -10.464 -10.464 -10.463 -10.462 -10.462
-10.462 -10.462 -10.462 -10.461 -10.461 -10.461 -10.459 -10.459
-10.459 -10.459 -10.459 -10.459 -10.459 -10.459 -10.450 -10.450
-10.450 -10.450 -10.446 -10.446 -10.445 -10.445 -10.445 -10.445
-10.444 -10.444 -10.433 -10.432 -10.432 -10.431 -10.428 -10.428
-10.428 -10.428 -10.428 -10.427 -10.423 -10.423 -10.423 -10.422
-10.416 -10.414  -6.941  -6.938  -1.012  -1.012  -0.957  -0.954
 -0.953  -0.951  -0.933  -0.933  -0.903  -0.894  -0.870  -0.866
 -0.865  -0.865  -0.855  -0.854  -0.847  -0.847  -0.815  -0.812
 -0.810  -0.795  -0.778  -0.778  -0.757  -0.754  -0.754  -0.754
 -0.731  -0.729  -0.728  -0.717  -0.687  -0.681  -0.676  -0.665
 -0.647  -0.640  -0.636  -0.636  -0.636  -0.634  -0.596  -0.592
 -0.588  -0.588  -0.582  -0.575  -0.573  -0.549  -0.544  -0.540
 -0.538  -0.537  -0.526  -0.526  -0.519  -0.507  -0.500  -0.498
 -0.492  -0.492  -0.491  -0.485  -0.481  -0.481  -0.479  -0.478
 -0.478  -0.477  -0.474  -0.466  -0.464  -0.463  -0.462  -0.461
 -0.461  -0.459  -0.453  -0.453  -0.448  -0.447  -0.444  -0.443
 -0.442  -0.437  -0.432  -0.426  -0.423  -0.418  -0.414  -0.410
 -0.409  -0.399  -0.398  -0.394  -0.394  -0.393  -0.389  -0.385
 -0.379  -0.377  -0.376  -0.376  -0.373  -0.363  -0.351  -0.346
 -0.344  -0.331  -0.320  -0.314  -0.295  -0.294  -0.274  -0.269
 -0.269  -0.262  -0.260  -0.259  -0.253  -0.246
 -- Virtual --
 -0.095  -0.061  -0.031  -0.029  -0.001   0.008   0.020   0.027
  0.027   0.036   0.037   0.045   0.075   0.087   0.092   0.093
  0.123   0.134   0.144   0.144   0.154   0.159   0.159   0.162
  0.167   0.167   0.170   0.172   0.176   0.177   0.183   0.185
  0.185   0.189   0.190   0.193   0.196   0.197   0.197   0.198
  0.208   0.210   0.214   0.215   0.218   0.221   0.223   0.225
  0.227   0.228   0.230   0.233   0.234   0.237   0.241   0.243
  0.243   0.251   0.251   0.253   0.254   0.255   0.259   0.262
  0.263   0.268   0.270   0.271   0.273   0.278   0.282   0.282
  0.283   0.285   0.288   0.299   0.306   0.308   0.310   0.315
  0.319   0.324   0.329   0.329   0.335   0.338   0.346   0.350
  0.355   0.360   0.368   0.381   0.384   0.390   0.393   0.406
  0.407   0.407   0.409   0.415   0.421   0.425   0.425   0.430
  0.437   0.448   0.453   0.456   0.457   0.469   0.471   0.484
  0.488   0.491   0.495   0.496   0.500   0.503   0.503   0.505
  0.508   0.509   0.510   0.524   0.527   0.529   0.530   0.532
  0.537   0.538   0.539   0.542   0.546   0.546   0.555   0.558
  0.559   0.563   0.564   0.567   0.567   0.573   0.580   0.581
  0.584   0.584   0.587   0.590   0.591   0.592   0.595   0.596
  0.597   0.598   0.598   0.600   0.607   0.608   0.609   0.611
  0.612   0.617   0.617   0.620   0.623   0.624   0.625   0.625
  0.628   0.630   0.633   0.637   0.639   0.645   0.650   0.653
  0.656   0.657   0.661   0.664   0.668   0.671   0.673   0.676
  0.679   0.680   0.686   0.692   0.697   0.702   0.702   0.707
  0.708   0.710   0.711   0.720   0.721   0.726   0.727   0.731
  0.732   0.733   0.751   0.754   0.754   0.756   0.757   0.759
  0.761   0.764   0.765   0.771   0.776   0.778   0.783   0.786
  0.787   0.790   0.801   0.807   0.816   0.818   0.822   0.830
  0.831   0.836   0.839   0.849   0.850   0.861   0.865   0.873
  0.877   0.880   0.883   0.891   0.891   0.911   0.913   0.915
  0.916   0.920   0.931   0.941   0.948   0.950   0.950   0.953
  0.957   0.965   0.967   0.969   0.976   0.983   0.987   0.987
  0.992   1.000   1.003   1.006   1.012   1.014   1.015   1.015
  1.023   1.031   1.033   1.036   1.038   1.044   1.044   1.047
  1.048   1.049   1.060   1.063   1.068   1.071   1.074   1.074
  1.076   1.077   1.080   1.085   1.088   1.093   1.093   1.095
  1.098   1.102   1.107   1.111   1.114   1.120   1.123   1.126
  1.127   1.133   1.135   1.141   1.142   1.143   1.148   1.151
  1.160   1.162   1.163   1.168   1.170   1.181   1.196   1.198
  1.207   1.208   1.209   1.212   1.224   1.239   1.243   1.251
  1.255   1.260   1.261   1.263   1.278   1.282   1.282   1.286
  1.293   1.300   1.303   1.311   1.314   1.318   1.319   1.321
  1.324   1.330   1.342   1.347   1.347   1.360   1.361   1.364
  1.367   1.378   1.379   1.381   1.383   1.390   1.395   1.397
  1.410   1.414   1.414   1.416   1.437   1.441   1.441   1.444
  1.451   1.463   1.467   1.475   1.477   1.482   1.487   1.509
  1.511   1.512   1.518   1.518   1.519   1.524   1.527   1.528
  1.531   1.531   1.539   1.546   1.550   1.552   1.560   1.561
  1.563   1.565   1.566   1.572   1.573   1.574   1.578   1.580
  1.589   1.593   1.598   1.606   1.614   1.625   1.647   1.656
  1.657   1.658   1.669   1.678   1.689   1.698   1.704   1.712
  1.746   1.757   1.782   1.794   1.795   1.809   1.812   1.813
  1.813   1.816   1.817   1.819   1.837   1.844   1.848   1.854
  1.868   1.870   1.897   1.902   1.904   1.906   1.910   1.915
  1.917   1.922   1.924   1.927   1.932   1.934   1.937   1.946
  1.954   1.956   1.957   1.958   1.959   1.962   1.967   1.975
  1.981   1.983   1.991   1.992   1.993   1.996   1.999   2.022
  2.025   2.049   2.050   2.054   2.056   2.058   2.063   2.068
  2.069   2.083   2.090   2.106   2.113   2.113   2.121   2.139
  2.143   2.147   2.149   2.152   2.153   2.169   2.178   2.194
  2.195   2.200   2.200   2.213   2.214   2.220   2.222   2.228
  2.232   2.235   2.237   2.244   2.247   2.255   2.260   2.263
  2.264   2.274   2.279   2.282   2.282   2.285   2.290   2.292
  2.303   2.309   2.323   2.323   2.324   2.342   2.348   2.350
  2.352   2.354   2.357   2.358   2.361   2.362   2.366   2.374
  2.378   2.381   2.384   2.390   2.392   2.402   2.404   2.408
  2.416   2.419   2.420   2.425   2.429   2.435   2.438   2.440
  2.445   2.446   2.459   2.463   2.467   2.472   2.477   2.481
  2.486   2.490   2.508   2.508   2.510   2.529   2.534   2.549
  2.558   2.584   2.599   2.603   2.605   2.626   2.640   2.645
  2.646   2.671   2.685   2.689   2.713   2.730   2.732   2.733
  2.734   2.735   2.742   2.745   2.747   2.755   2.767   2.769
  2.772   2.780   2.781   2.784   2.791   2.791   2.803   2.805
  2.811   2.823   2.834   2.845   2.860   2.862   2.863   2.865
  2.894   2.902   2.909   2.915   2.917   2.919   2.934   2.939
  2.941   2.946   2.956   2.959   2.966   2.990   2.993   3.007
  3.015   3.033   3.051   3.072   3.086   3.090   3.105   3.220
  3.223   3.245   3.265   3.268   3.408   3.424   3.450   3.482
  3.489   3.489   3.538   3.549   3.661   3.674   9.605   9.748
 13.142  13.178  13.393  13.473  13.504  13.506  13.523  13.552
 13.713  13.721  13.737  13.783  13.786  13.795  13.798  13.844
 13.860  13.895  13.902  13.905  13.911  13.922  13.958  14.005
 14.013  14.019  14.027  14.028  14.112  14.162  14.163  14.186
 14.193  14.195  14.209  14.237  14.258  14.267  14.311  14.315
 14.323  14.326  14.505  14.513  14.549  14.552  14.579  14.581
 14.583  14.588
 --------------------------------------------------------------
 
          Ground-State Mulliken Net Atomic Charges

     Atom                 Charge (a.u.)
  ----------------------------------------
      1 C                    -0.155617
      2 C                    -0.383405
      3 H                     0.235261
      4 C                     0.087820
      5 C                     0.202660
      6 C                    -0.373833
      7 H                     0.222058
      8 C                    -0.204945
      9 H                     0.226452
     10 C                    -0.334021
     11 H                     0.220280
     12 C                    -0.073065
     13 C                     0.251596
     14 C                    -0.333064
     15 H                     0.220263
     16 C                    -0.204262
     17 H                     0.226663
     18 C                    -0.373052
     19 H                     0.221994
     20 C                     0.199772
     21 C                     0.092787
     22 C                    -0.387145
     23 H                     0.234262
     24 C                    -0.155374
     25 B                     0.689927
     26 C                    -0.153548
     27 C                    -0.383177
     28 H                     0.236933
     29 C                     0.089304
     30 C                     0.203274
     31 C                    -0.374592
     32 H                     0.222437
     33 C                    -0.204405
     34 H                     0.226438
     35 C                    -0.334209
     36 H                     0.220386
     37 C                    -0.073964
     38 C                     0.250860
     39 C                    -0.332147
     40 H                     0.220340
     41 C                    -0.204556
     42 H                     0.226745
     43 C                    -0.372291
     44 H                     0.221906
     45 C                     0.200240
     46 C                     0.090611
     47 C                    -0.386143
     48 H                     0.235164
     49 C                    -0.153671
     50 B                     0.692166
     51 C                    -0.223017
     52 C                     0.060711
     53 C                    -0.343686
     54 H                     0.196093
     55 C                     0.130860
     56 C                    -0.336438
     57 H                     0.196026
     58 C                     0.059872
     59 C                    -0.709628
     60 H                     0.225960
     61 H                     0.228832
     62 H                     0.230358
     63 C                    -0.758798
     64 H                     0.233708
     65 H                     0.243309
     66 H                     0.244124
     67 C                    -0.755988
     68 H                     0.232945
     69 H                     0.242711
     70 H                     0.243311
     71 C                    -0.225482
     72 C                     0.063073
     73 C                    -0.344980
     74 H                     0.195804
     75 C                     0.130300
     76 C                    -0.339213
     77 H                     0.196088
     78 C                     0.064602
     79 C                    -0.709225
     80 H                     0.225613
     81 H                     0.228394
     82 H                     0.230642
[...]
    2  -0.0000128   0.0000086   0.0000013  -0.0000013   0.0000005  -0.0000023
    3  -0.0000044  -0.0000047   0.0000009   0.0000056   0.0000001   0.0000023
           67          68          69          70          71          72
    1   0.0000028   0.0000013   0.0000011   0.0000015  -0.0000006   0.0000100
    2  -0.0000043  -0.0000011  -0.0000009   0.0000017  -0.0000124   0.0000072
    3   0.0000036  -0.0000007   0.0000002   0.0000005   0.0000010   0.0000097
           73          74          75          76          77          78
    1   0.0000002   0.0000018   0.0000042   0.0000010  -0.0000008   0.0000015
    2   0.0000002   0.0000015   0.0000053   0.0000015   0.0000023   0.0000046
    3  -0.0000101  -0.0000023  -0.0000001  -0.0000011  -0.0000016  -0.0000053
           79          80          81          82          83          84
    1   0.0000021   0.0000014   0.0000021   0.0000021   0.0000005  -0.0000030
    2   0.0000016   0.0000023   0.0000013   0.0000044   0.0000027   0.0000021
    3  -0.0000009  -0.0000027  -0.0000047  -0.0000042  -0.0000022   0.0000025
           85          86          87          88          89          90
    1   0.0000023  -0.0000017   0.0000046   0.0000017   0.0000016   0.0000020
    2   0.0000005  -0.0000022   0.0000027   0.0000006   0.0000004  -0.0000004
    3  -0.0000007  -0.0000013  -0.0000012  -0.0000004  -0.0000018  -0.0000054
 Gradient time:  CPU 2482.32 s  wall 428.33 s
 Geometry Optimization Parameters
   NAtoms,    NIC,     NZ,  NCons,   NDum,   NFix, NCnnct, MaxDiis
       90     714      90       0       0       0       0       0

 Cartesian Hessian Update
 Hessian Updated using BFGS Update


** GEOMETRY OPTIMIZATION IN DELOCALIZED INTERNAL COORDINATES **
   Searching for a Minimum

   Optimization Cycle:  12

                       Coordinates (Angstroms)
     ATOM                X               Y               Z
      1  C         0.0020561278   -0.2501802342    0.0615771968
      2  C         0.0066834935   -0.2044735785    1.4651202043
      3  H         0.9541860158   -0.2411841695    1.9913565977
      4  C        -1.1750596985   -0.1181144528    2.1589262940
      5  C        -1.4757834497   -0.0632866408    3.5762885014
      6  C        -0.7347775349   -0.0744643329    4.7337741015
      7  H         0.3457854143   -0.1341846670    4.7182006978
      8  C        -1.4169415346   -0.0066946073    5.9666258946
      9  H        -0.8351504492   -0.0159657968    6.8789632992
     10  C        -2.7896301508    0.0700561891    6.0547600275
     11  H        -3.2644650671    0.1197563255    7.0267239774
     12  C        -2.8817744166    0.0155439432    3.6786787794
     13  C        -3.5789511465    0.0830376602    4.8800078049
     14  C        -4.9897332336    0.1555354900    4.7781148517
     15  H        -5.5943273200    0.2099797553    5.6748743356
     16  C        -5.6005565041    0.1571177575    3.5423552593
     17  H        -6.6802003150    0.2135079547    3.4928769527
     18  C        -4.8734034983    0.0878915568    2.3377803993
     19  H        -5.3967434335    0.0920541315    1.3900844948
     20  C        -3.5008436106    0.0153385145    2.4074805746
     21  C        -2.4363830813   -0.0704431531    1.4355099716
     22  C        -2.4575385812   -0.1119813041    0.0593662525
     23  H        -3.3998728409   -0.0761552557   -0.4769988052
     24  C        -1.2616137312   -0.2018061935   -0.6625365567
     25  B         1.3281538687   -0.3590889974   -0.6999813839
     26  C         1.3045337097   -0.3932091387   -2.2323857139
     27  C         2.5146293589   -0.4698687498   -2.9397114483
     28  H         3.4484034042   -0.5059686844   -2.3899333564
     29  C         2.5122708710   -0.4992200475   -4.3114767457
     30  C         3.5834113230   -0.5700673911   -5.2870825908
     31  C         4.9552268880   -0.6337364022   -5.2315728635
     32  H         5.4880440698   -0.6407849666   -4.2895495239
     33  C         5.6740613248   -0.6910598804   -6.4440944092
     34  H         6.7541930417   -0.7405699115   -6.4016368229
     35  C         5.0571510273   -0.6869389890   -7.6757186505
     36  H         5.6550376442   -0.7327343408   -8.5775095547
     37  C         2.9618381629   -0.5672518855   -6.5546319360
     38  C         3.6463708006   -0.6236180068   -7.7648839818
     39  C         2.8490283070   -0.6113463304   -8.9353199884
     40  H         3.3188397189   -0.6530062589   -9.9102387406
     41  C         1.4759119322   -0.5462078878   -8.8410699228
     42  H         0.8885772941   -0.5377020675   -9.7500841084
     43  C         0.8037419912   -0.4900306768   -7.6035069975
     44  H        -0.2774436014   -0.4399515428   -7.5796845775
     45  C         1.5542330833   -0.5006367957   -6.4500703172
     46  C         1.2538252131   -0.4570282086   -5.0365333577
     47  C         0.0588870041   -0.3864419236   -4.3585163651
     48  H        -0.8794285986   -0.3583641197   -4.9024119808
     49  C         0.0446706611   -0.3478440119   -2.9581935972
     50  B        -1.2901036789   -0.2539863743   -2.2003098269
     51  C        -2.6535180898   -0.2128406595   -2.9918094269
     52  C        -3.2042979826    1.0045179083   -3.4059953749
     53  C        -4.3970084282    1.0223463424   -4.1227627183
     54  H        -4.8105986916    1.9751345200   -4.4367506455
     55  C        -5.0680760020   -0.1482974552   -4.4451436010
     56  C        -4.5143536556   -1.3539258736   -4.0303732125
     57  H        -5.0229468120   -2.2821514046   -4.2720518669
     58  C        -3.3257751922   -1.4004586219   -3.3146179208
     59  C        -6.3520884121   -0.1269918273   -5.2233362066
     60  H        -6.6869280934    0.8911864928   -5.4186765373
     61  H        -7.1524477314   -0.6395112196   -4.6871489660
     62  H        -6.2416103243   -0.6266571485   -6.1875398577
     63  C        -2.5029308605    2.2942688944   -3.0845994721
     64  H        -3.0634744039    3.1585168503   -3.4406087684
     65  H        -1.5121288332    2.3336719529   -3.5426704685
     66  H        -2.3590489867    2.4151531609   -2.0089545433
     67  C        -2.7538622335   -2.7253594674   -2.8929473511
     68  H        -3.3964752035   -3.5547176856   -3.1883627626
     69  H        -2.6231782858   -2.7789168518   -1.8101652454
     70  H        -1.7715614581   -2.8952057949   -3.3391650179
     71  C         2.6958309265   -0.4475649600    0.0697481904
     72  C         3.2236303229   -1.6919680796    0.4253865575
     73  C         4.4376398580   -1.7616938747    1.1009410135
     74  H         4.8368221800   -2.7336192836    1.3722585002
     75  C         5.1485823769   -0.6177263138    1.4344542137
     76  C         4.6176493313    0.6152583798    1.0710571623
     77  H         5.1613233658    1.5213810691    1.3194699631
     78  C         3.4079223539    0.7130500159    0.3968342511
     79  C         6.4509428091   -0.7007578328    2.1766026512
     80  H         6.7880779227   -1.7317146734    2.2799737247
     81  H         7.2392457322   -0.1455653980    1.6662278305
     82  H         6.3629859634   -0.2834089860    3.1814136926
     83  C         2.8563521887    2.0567788381    0.0089094157
     84  H         3.5080199001    2.8700262443    0.3276660252
     85  H         2.7313771845    2.1383365424   -1.0732758167
     86  H         1.8729934553    2.2281316424    0.4523185408
     87  C         2.4798971623   -2.9506188244    0.0713955858
     88  H         3.0022732858   -3.8412544372    0.4204024326
     89  H         2.3501544982   -3.0483342551   -1.0088788576
     90  H         1.4798681444   -2.9627972548    0.5105449586
   Point Group: c1    Number of degrees of freedom:   264


   Energy is  -1973.624834179

 Hessian Updated using BFGS Update

254 Hessian modes will be used to form the next step
  Hessian Eigenvalues:
     0.000568    0.001753    0.006975    0.008661    0.008703    0.008864
     0.008975    0.009231    0.010571    0.013196    0.015605    0.015878
     0.016409    0.016925    0.016975    0.017087    0.017423    0.017454
     0.017509    0.017544    0.017779    0.018372    0.018554    0.018891
     0.019029    0.019228    0.019349    0.019906    0.020412    0.020554
     0.020917    0.021010    0.021048    0.021078    0.021190    0.021291
     0.021444    0.021495    0.021747    0.021796    0.021879    0.022313
     0.022380    0.022442    0.022572    0.022614    0.022631    0.022715
     0.022841    0.023124    0.023176    0.023191    0.023229    0.023257
     0.023393    0.023445    0.023563    0.023611    0.023684    0.023700
     0.023748    0.023757    0.023792    0.023826    0.023868    0.023937
     0.024017    0.024100    0.024136    0.024162    0.024375    0.024379
     0.024471    0.025573    0.027590    0.071347    0.071371    0.071463
     0.071537    0.071835    0.071888    0.072101    0.072148    0.072296
     0.072362    0.072426    0.072650    0.159416    0.159534    0.159708
     0.159916    0.159951    0.159957    0.159962    0.159985    0.159994
     0.159996    0.159996    0.159996    0.159997    0.159997    0.159998
     0.159999    0.159999    0.160000    0.160000    0.160000    0.160007
     0.160024    0.160084    0.160159    0.160336    0.160388    0.160813
     0.161240    0.220594    0.220828    0.222121    0.222292    0.231487
     0.231717    0.231954    0.233688    0.234689    0.234840    0.234874
     0.235198    0.235920    0.237422    0.237894    0.239195    0.241182
     0.246927    0.248169    0.248603    0.248866    0.249292    0.249424
     0.249483    0.249546    0.249618    0.249771    0.249797    0.249886
     0.249966    0.249986    0.249993    0.250002    0.250014    0.250342
     0.250612    0.252028    0.253593    0.256704    0.262518    0.271282
     0.283511    0.288372    0.292324    0.294161    0.319629    0.319942
     0.320436    0.321212    0.322257    0.322663    0.327272    0.331723
     0.345400    0.345459    0.345479    0.345681    0.345773    0.345926
     0.345993    0.346084    0.346112    0.346271    0.346795    0.346973
     0.347940    0.347992    0.348108    0.348133    0.348525    0.348677
     0.348709    0.353072    0.353294    0.353559    0.353849    0.354419
     0.354557    0.355030    0.355257    0.356305    0.356416    0.356459
     0.356510    0.356779    0.356829    0.357017    0.357183    0.357237
     0.357413    0.357523    0.357564    0.357607    0.363076    0.365493
     0.375545    0.384702    0.386330    0.390214    0.402159    0.403338
     0.403997    0.408133    0.420187    0.420841    0.422337    0.424074
     0.425157    0.426759    0.427876    0.430324    0.432004    0.434779
     0.436293    0.436863    0.446593    0.448462    0.452830    0.454302
     0.459613    0.460524    0.467147    0.467272    0.472739    0.472778
     0.474021    0.475651    0.475989    0.476782    0.477234    0.479142
     0.483128    0.486616    0.490543    0.490792    0.492560    0.493362
     0.496255    0.501903

 Minimum Search - Taking Simple RFO Step
 Searching for Lamda that Minimizes Along All modes
 Value Taken    Lamda =   0.00000000
 Step Taken.  Stepsize is  0.030825

                             Maximum     Tolerance    Cnvgd?
         Gradient           0.000034      0.000300     YES
         Displacement       0.019612      0.001200      NO
         Energy change     -0.000004      0.000001      NO


 New Cartesian Coordinates Obtained by Inverse Iteration

 Displacement from previous Coordinates is:  0.087431
 Adding empirical dispersion correction 
 ----------------------------------------------------------------
 Doing -D3(BJ) with
 s6 =   1.00000
 s8 =   0.00000
 a1 =   0.48600
 a2 =   4.50000
 -D3 energy including 3body term =     -0.0824305468 hartrees
 ----------------------------------------------------------------
 Adding gCP correction 
 ----------------------------------------------------------------
 gCP energy =      0.1091413403 hartrees
 ----------------------------------------------------------------
             Standard Nuclear Orientation (Angstroms)
    I     Atom           X                Y                Z
 ----------------------------------------------------------------
    1      C       0.0021992034    -0.2509629727     0.0612835112
    2      C       0.0067249636    -0.2061072955     1.4649019028
    3      H       0.9541253920    -0.2430081455     1.9912894644
    4      C      -1.1750978659    -0.1202634300     2.1586162997
    5      C      -1.4756615773    -0.0664781799     3.5761201850
    6      C      -0.7344925406    -0.0784858974     4.7334570110
    7      H       0.3460634564    -0.1382883879     4.7176762708
    8      C      -1.4164848634    -0.0114675103     5.9664654644
    9      H      -0.8345921567    -0.0214040284     6.8787297346
   10      C      -2.7891470070     0.0653891798     6.0547953640
   11      H      -3.2638943254     0.1145025200     7.0268349440
   12      C      -2.8816252460     0.0124165420     3.6786758599
   13      C      -3.5786162119     0.0792462855     4.8801687597
   14      C      -4.9893806673     0.1522171312     4.7785254362
   15      H      -5.5938966581     0.2061382312     5.6753681385
   16      C      -5.6003062490     0.1549215541     3.5428208842
   17      H      -6.6799349212     0.2117158557     3.4934558322
   18      C      -4.8732963931     0.0863850734     2.3381176868
   19      H      -5.3968096658     0.0914771694     1.3905141258
   20      C      -3.5007695869     0.0133005900     2.4075387423
   21      C      -2.4363212361    -0.0718391536     1.4353893541
   22      C      -2.4573989808    -0.1123356956     0.0592329627
   23      H      -3.3996201069    -0.0757766160    -0.4772807961
   24      C      -1.2614288387    -0.2021104952    -0.6626625163
   25      B       1.3283607597    -0.3594592603    -0.7003164972
   26      C       1.3045696068    -0.3943434596    -2.2326421729
   27      C       2.5145848746    -0.4712691591    -2.9400783558
   28      H       3.4484369976    -0.5068962143    -2.3904022658
   29      C       2.5119957075    -0.5014224326    -4.3118250306
   30      C       3.5830966894    -0.5721028055    -5.2874248396
   31      C       4.9549783908    -0.6346051642    -5.2318774940
   32      H       5.4877794032    -0.6409624208    -4.2898449433
   33      C       5.6738161179    -0.6916096282    -6.4443924076
   34      H       6.7539918136    -0.7401964785    -6.4020072093
   35      C       5.0568494765    -0.6882126929    -7.6760044422
   36      H       5.6547613984    -0.7336740964    -8.5777978505
   37      C       2.9614405245    -0.5700012481    -6.5549527311
   38      C       3.6460363201    -0.6259984274    -7.7652005272
   39      C       2.8486575312    -0.6142477732    -8.9356184010
   40      H       3.3183971828    -0.6556706469    -9.9105800780
   41      C       1.4754837391    -0.5498575333    -8.8413184947
   42      H       0.8881455261    -0.5417127706    -9.7503355435
   43      C       0.8032843583    -0.4939166021    -7.6038128649
   44      H      -0.2779263612    -0.4443415325    -7.5800350568
   45      C       1.5537654037    -0.5040516788    -6.4503079828
   46      C       1.2534276659    -0.4600639773    -5.0368728944
   47      C       0.0585568941    -0.3891612324    -4.3586760411
   48      H      -0.8799019547    -0.3616412038    -4.9023560007
   49      C       0.0445684355    -0.3494284286    -2.9584465348
   50      B      -1.2900397738    -0.2543472385    -2.2004465409
   51      C      -2.6534126979    -0.2117585853    -2.9919666384
   52      C      -3.2017073849     1.0062615369    -3.4075229253
   53      C      -4.3942913313     1.0257078027    -4.1244813792
   54      H      -4.8059187729     1.9789717989    -4.4395958694
   55      C      -5.0676773215    -0.1439274555    -4.4456193188
   56      C      -4.5163723336    -1.3502331367    -4.0295695565
   57      H      -5.0267517532    -2.2776935005    -4.2704297170
   58      C      -3.3279906813    -1.3983820474    -3.3136231431
   59      C      -6.3521611266    -0.1208670986    -5.2229969010
   60      H      -6.6789684503     0.8977638176    -5.4292389310
   61      H      -7.1561338261    -0.6208612785    -4.6803594935
   62      H      -6.2467490627    -0.6321389937    -6.1816342450
   63      C      -2.4977442719     2.2949850903    -3.0876489977
   64      H      -3.0574571358     3.1600047425    -3.4430903350
   65      H      -1.5075945818     2.3326470661    -3.5472784173
   66      H      -2.3520195608     2.4160270577    -2.0122710171
   67      C      -2.7586267009    -2.7239658175    -2.8906025598
   68      H      -3.4026811055    -3.5524008664    -3.1854689514
   69      H      -2.6283548986    -2.7767762748    -1.8077381538
   70      H      -1.7765150674    -2.8959904287    -3.3363851415
   71      C       2.6960086127    -0.4466494913     0.0695877342
   72      C       3.2254308326    -1.6902696109     0.4254322426
   73      C       4.4391545334    -1.7582879844     1.1016764410
   74      H       4.8395462488    -2.7296656244     1.3731708145
   75      C       5.1482517774    -0.6133244052     1.4356967136
   76      C       4.6157715049     0.6189135546     1.0719980121
   77      H       5.1579861048     1.5258177388     1.3207400495
   78      C       3.4063172724     0.7149892087     0.3970597485
   79      C       6.4501787106    -0.6945424033     2.1787867586
   80      H       6.7895978555    -1.7248843026     2.2808043434
   81      H       7.2376226909    -0.1367129450     1.6699725319
   82      H       6.3604173871    -0.2790005117     3.1841927897
   83      C       2.8530862907     2.0579578802     0.0088741382
   84      H       3.5037181940     2.8720772346     0.3275140904
   85      H       2.7280421245     2.1391441957    -1.0733278512
   86      H       1.8694984938     2.2281630024     0.4522332821
   87      C       2.4837781963    -2.9499554719     0.0707468669
   88      H       3.0061922935    -3.8397976815     0.4217089913
   89      H       2.3566633541    -3.0486401126    -1.0097513790
   90      H       1.4827164984    -2.9627719442     0.5075163691
 ----------------------------------------------------------------
 Nuclear Repulsion Energy =  6083.1085875118 hartrees
 There are      174 alpha and      174 beta electrons
 Applying Cartesian multipole field
    Component          Value
    ---------          -----
     (2,0,0)        1.00000E-12
     (0,2,0)        2.00000E-11
     (0,0,2)       -3.00000E-12
 Nucleus-field energy     =    -0.0000000259 hartrees
 Requested basis set is def2-mSVP
 There are 440 shells and 856 basis functions
 A cutoff of  1.0D-11 yielded  36434 shell pairs
 There are    144898 function pairs (    159881 Cartesian)
 Smallest overlap matrix eigenvalue = 2.04E-04
 Guess MOs from SCF MO coefficient file
 Reading MOs from coefficient file
 Reading MOs from coefficient file
 A restricted hybrid HF-DFT SCF calculation will be
 performed using Pulay DIIS extrapolation
 Exchange:     0.4200 Hartree-Fock + 0.5800 PBEh-3c
 Correlation:  1.0000 PBEh-3c
 Using SG-1 standard quadrature grid
 Dispersion:   Grimme D3
 SCF converges when DIIS error is below 1.0E-08
 Geometry optimization detected.  Setting ReadMinima to 0
 Setting SaveMinima to 0
 using 8 threads for integral computing
 -------------------------------------------------------
 OpenMP Integral computing Module                
 Release: version 1.0, May 2013, Q-Chem Inc. Pittsburgh 
 -------------------------------------------------------
 ---------------------------------------
  Cycle       Energy         DIIS Error
 ---------------------------------------
    1   -1973.6976246285      2.67E-05
    2   -1973.6977542421      3.18E-06
    3   -1973.6977562151      1.67E-06
    4   -1973.6977563974      1.09E-06
    5   -1973.6977565138      2.84E-07
    6   -1973.6977565195      9.28E-08
    7   -1973.6977565262      3.24E-08
