mFile = /cm/shared/apps/q-chem/intel/QCHEM_5.0.1_Trunk/bin/mpi/machines
Process 0 of 1 is on ctcp041 - thread support 0
initial socket setup ...start
initial socket setup ...done 
now start server 0 ... 
ctcp041.cm.cluster 10.141.0
Q-Chem Developer Version! Running on 10.141.0.*
                  Welcome to Q-Chem
     A Quantum Leap Into The Future Of Chemistry


 Q-Chem 5.0, Q-Chem, Inc., Pleasanton, CA (2017)

 Yihan Shao,  Zhengting Gan,  E. Epifanovsky,  A. T. B. Gilbert,  M. Wormit,  
 J. Kussmann,  A. W. Lange,  A. Behn,  Jia Deng,  Xintian Feng,  D. Ghosh,  
 M. Goldey,  P. R. Horn,  L. D. Jacobson,  I. Kaliman,  T. Kus,  A. Landau,  
 Jie Liu,  E. I. Proynov,  R. M. Richard,  R. P. Steele,  E. J. Sundstrom,  
 H. L. Woodcock III,  P. M. Zimmerman,  D. Zuev,  B. Albrecht,  E. Alguire,  
 S. A. Baeppler,  Z. Benda,  Y. A. Bernard,  E. J. Berquist,  K. B. Bravaya,  
 D. Casanova,  Chun-Min Chang,  Yunqing Chen,  A. Chien,  K. D. Closser,  
 M. P. Coons,  S. Dasgupta,  M. Diedenhofen,  Hainam Do,  R. G. Edgar,  
 Po-Tung Fang,  S. Fatehi,  Qingguo Feng,  Qinghui Ge,  A. Ghysels,  
 J. Gomes,  J. Gonthier,  A. Gunina,  M. W. D. Hanson-Heine,  
 P. H. P. Harbach,  A. W. Hauser,  J. E. Herr,  E. G. Hohenstein,  
 Z. C. Holden,  Kerwin Hui,  T.-C. Jagau,  Hyunjun Ji,  B. Kaduk,  
 K. Khistyaev,  Jaehoon Kim,  P. Klunzinger,  K. Koh,  D. Kosenkov,  
 T. Kowalczyk,  C. M. Krauter,  A. Kunitsa,  Ka Un Lao,  A. Laurent,  
 K. V. Lawler,  Joonho Lee,  D. Lefrancois,  S. Lehtola,  D. S. Levine,  
 Yi-Pei Li,  You-Sheng Lin,  Fenglai Liu,  E. Livshits,  A. Luenser,  
 P. Manohar,  E. Mansoor,  S. F. Manzer,  Shan-Ping Mao,  Yuezhi Mao,  
 N. Mardirossian,  A. V. Marenich,  L. A. Martinez-Martinez,  S. A. Maurer,  
 N. J. Mayhall,  S. C. McKenzie,  J.-M. Mewes,  A. F. Morrison,  K. Nanda,  
 T. S. Nguyen-Beck,  R. Olivares-Amaya,  J. A. Parkhill,  T. M. Perrine,  
 F. Plasser,  S. Prager,  A. Prociuk,  D. R. Rehn,  F. Rob,  M. Schneider,  
 N. Sergueev,  S. M. Sharada,  S. Sharma,  D. W. Small,  T. Stauch,  
 T. Stein,  Yu-Chuan Su,  A. J. W. Thom,  T. Tsuchimochi,  L. Vogt,  
 O. Vydrov,  M. A. Watson,  J. Wenzel,  M. de Wergifosse,  T. A. Wesolowski,  
 A. White,  J. Witte,  A. Yamada,  Jun Yang,  K. Yao,  S. Yeganeh,  
 S. R. Yost,  Zhi-Qiang You,  A. Zech,  Igor Ying Zhang,  Xing Zhang,  
 Yan Zhao,  Ying Zhu,  B. R. Brooks,  G. K. L. Chan,  C. J. Cramer,  
 M. S. Gordon,  W. J. Hehre,  A. Klamt,  M. W. Schmidt,  C. D. Sherrill,  
 D. G. Truhlar,  A. Aspuru-Guzik,  R. Baer,  A. T. Bell,  N. A. Besley,  
 Jeng-Da Chai,  A. Dreuw,  B. D. Dunietz,  T. R. Furlani,  Chao-Ping Hsu,  
 Yousung Jung,  Jing Kong,  D. S. Lambrecht,  WanZhen Liang,  C. Ochsenfeld,  
 V. A. Rassolov,  L. V. Slipchenko,  J. E. Subotnik,  T. Van Voorhis,  
 J. M. Herbert,  A. I. Krylov,  P. M. W. Gill,  M. Head-Gordon

 Contributors to earlier versions of Q-Chem not listed above: 
 R. D. Adamson,  B. Austin,  J. Baker,  G. J. O. Beran,  K. Brandhorst,  
 S. T. Brown,  E. F. C. Byrd,  A. K. Chakraborty,  C.-L. Cheng,  
 Siu Hung Chien,  D. M. Chipman,  D. L. Crittenden,  H. Dachsel,  
 R. A. DiStasio Jr.,  R. J. Doerksen,  A. D. Dutoi,  L. Fusti-Molnar,  
 W. A. Goddard III,  A. Golubeva-Zadorozhnaya,  S. R. Gwaltney,  G. Hawkins,  
 A. Heyden,  S. Hirata,  G. Kedziora,  F. J. Keil,  C. Kelley,  Jihan Kim,  
 R. A. King,  R. Z. Khaliullin,  P. P. Korambath,  W. Kurlancheek,  
 A. M. Lee,  M. S. Lee,  S. V. Levchenko,  Ching Yeh Lin,  D. Liotard,  
 R. C. Lochan,  I. Lotan,  P. E. Maslen,  N. Nair,  D. P. O'Neill,  
 D. Neuhauser,  E. Neuscamman,  C. M. Oana,  R. Olson,  B. Peters,  
 R. Peverati,  P. A. Pieniazek,  Y. M. Rhee,  J. Ritchie,  M. A. Rohrdanz,  
 E. Rosta,  N. J. Russ,  H. F. Schaefer III,  N. E. Schultz,  N. Shenvi,  
 A. C. Simmonett,  A. Sodt,  D. Stuck,  K. S. Thanthiriwatte,  V. Vanovschi,  
 Tao Wang,  A. Warshel,  C. F. Williams,  Q. Wu,  X. Xu,  W. Zhang

 Please cite Q-Chem as follows:
 Y. Shao et al., Mol. Phys. 113, 184-215 (2015)
 DOI: 10.1080/00268976.2014.952696

 Q-Chem 5.0.1 for Intel X86 EM64T Linux

 Parts of Q-Chem use Armadillo 5.200.1 (Boston Tea Smuggler).
 http://arma.sourceforge.net/

 Q-Chem begins on Thu Oct 25 07:36:45 2018  

Host: 32512

     Scratch files written to /scratch/mewes/138340/qchem15571//
 Parallel job on  1  processors
The previous job contains 0 fragments, simply inherited here

Checking the input file for inconsistencies... 	...done.

--------------------------------------------------------------
User input:
--------------------------------------------------------------
$rem
threads 8
jobtype	opt
method PBEh-3c
basis def2-mSVP
mem_static	1024
mem_total	14000
sym_ignore	true
cis_n_roots             4
cis_singlets            false
cis_triplets		true
rpa                     false
cis_state_deriv         3
state_follow		true
$end

$molecule 
read gsopt.mol
$end


--------------------------------------------------------------
 Adding empirical dispersion correction 
 ----------------------------------------------------------------
 Doing -D3(BJ) with
 s6 =   1.00000
 s8 =   0.00000
 a1 =   0.48600
 a2 =   4.50000
 -D3 energy including 3body term =     -0.0824537785 hartrees
 ----------------------------------------------------------------
 Adding gCP correction 
 ----------------------------------------------------------------
 gCP energy =      0.1092293993 hartrees
 ----------------------------------------------------------------
             Standard Nuclear Orientation (Angstroms)
    I     Atom           X                Y                Z
 ----------------------------------------------------------------
    1      C       0.0000000000     0.0000000000     0.0000000000
    2      C       0.0000000000     0.0000000000     1.3998220000
    3      H       0.9453129492     0.0000000000     1.9314413338
    4      C      -1.1852562271    -0.0439197277     2.0888531747
    5      C      -1.4489517596    -0.1301941159     3.5051479647
    6      C      -0.6688780495    -0.1631059843     4.6385429699
    7      H       0.4102892303    -0.0933669668     4.5907927612
    8      C      -1.3076881732    -0.2999522293     5.8856047751
    9      H      -0.6982585181    -0.3258752815     6.7795830809
   10      C      -2.6771084762    -0.4101631710     6.0098754350
   11      H      -3.1198312618    -0.5225289057     6.9918933141
   12      C      -2.8495966076    -0.2345597903     3.6387425285
   13      C      -3.5020396618    -0.3847136060     4.8624428916
   14      C      -4.9080499217    -0.5086179928     4.8007005040
   15      H      -5.4813477794    -0.6317727923     5.7111541476
   16      C      -5.5512270427    -0.4815338387     3.5812691760
   17      H      -6.6281028594    -0.5844745154     3.5586130305
   18      C      -4.8664001020    -0.3313133342     2.3577393275
   19      H      -5.4223470614    -0.3259636628     1.4294074136
   20      C      -3.4970747663    -0.2050702002     2.3820892220
   21      C      -2.4495568805    -0.0785550222     1.3859648725
   22      C      -2.4680885394    -0.0303078097     0.0113251352
   23      H      -3.4078400197    -0.0447971910    -0.5290987266
   24      C      -1.2645346554     0.0081436077    -0.7142726667
   25      B       1.3346699437    -0.0887273882    -0.7468569715
   26      C       1.3043301096    -0.1675490420    -2.2767624380
   27      C       2.5018428055    -0.3469931849    -2.9793595804
   28      H       3.4351201777    -0.4018528600    -2.4293957346
   29      C       2.4873186054    -0.4848287392    -4.3451883801
   30      C       3.5519896469    -0.7561964234    -5.2796107755
   31      C       4.9075992657    -0.9689906864    -5.1724165813
   32      H       5.4182574272    -0.9289119725    -4.2186091423
   33      C       5.6304380746    -1.2551227719    -6.3461386209
   34      H       6.6964619185    -1.4254152927    -6.2688368091
   35      C       5.0323159430    -1.3328452811    -7.5874903611
   36      H       5.6342551487    -1.5618121815    -8.4580863750
   37      C       2.9455453837    -0.8372766547    -6.5527035557
   38      C       3.6400280730    -1.1244743701    -7.7265318997
   39      C       2.8590482469    -1.1887288794    -8.9031259832
   40      H       3.3290992486    -1.4059538859    -9.8541546176
   41      C       1.4962474362    -0.9839556169    -8.8434948268
   42      H       0.9210770768    -1.0443563064    -9.7579597843
   43      C       0.8164417929    -0.7072852519    -7.6402599885
   44      H      -0.2564939797    -0.5668138172    -7.6466490606
   45      C       1.5483917116    -0.6304002983    -6.4789758760
   46      C       1.2421841306    -0.4138154702    -5.0800951816
   47      C       0.0583782339    -0.2219534748    -4.4057556659
   48      H      -0.8815639274    -0.1814140816    -4.9441386634
   49      C       0.0476222139    -0.1107548649    -3.0051370698
   50      B      -1.2868358135     0.0007430412    -2.2497708951
   51      C      -2.6527992985     0.0511152635    -3.0296534328
   52      C      -3.2338032397     1.2790013334    -3.3603380463
   53      C      -4.4380966766     1.3147739646    -4.0564604477
   54      H      -4.8752952290     2.2750858432    -4.3096712750
   55      C      -5.0898458481     0.1497107515    -4.4352646617
   56      C      -4.5105802841    -1.0670918979    -4.0936320293
   57      H      -5.0092412225    -1.9894626772    -4.3755174532
   58      C      -3.3089535046    -1.1309752089    -3.4004732135
   59      C      -6.3807647743     0.1896488730    -5.2004317478
   60      H      -6.7459166838     1.2092877191    -5.3189927705
   61      H      -7.1616545763    -0.3841912642    -4.6989985203
   62      H      -6.2638297894    -0.2338516054    -6.1998271539
   63      C      -2.5533688306     2.5579325313    -2.9580916913
   64      H      -3.0952755280     3.4344480323    -3.3132724169
   65      H      -1.5380210727     2.6135164277    -3.3563139372
   66      H      -2.4695877259     2.6401797296    -1.8721075154
   67      C      -2.7110798125    -2.4648846968    -3.0462159661
   68      H      -3.3632698223    -3.2887499939    -3.3364881794
   69      H      -2.5288383513    -2.5497870622    -1.9727955128
   70      H      -1.7484130476    -2.6184499970    -3.5391505082
   71      C       2.6922605825    -0.1770248674     0.0516499432
   72      C       3.2028093314    -1.4219700270     0.4381164045
   73      C       4.3968163218    -1.4959885397     1.1488901097
   74      H       4.7795946023    -2.4694197625     1.4385662391
   75      C       5.1082594532    -0.3569358862     1.4957272577
   76      C       4.5948553350     0.8762397528     1.1108825779
   77      H       5.1362640785     1.7805559904     1.3708258025
   78      C       3.4062605873     0.9778914103     0.3995087813
   79      C       6.3900213337    -0.4463622792     2.2727412947
   80      H       6.7144168831    -1.4796412422     2.3929499936
   81      H       7.1971697076     0.0970937028     1.7793278513
   82      H       6.2811609612    -0.0204904387     3.2721154462
   83      C       2.8751152990     2.3276317389     0.0066394699
   84      H       3.5585514177     3.1290371468     0.2874176476
   85      H       2.7106158584     2.3930923706    -1.0707587363
   86      H       1.9140302399     2.5298350147     0.4847481998
   87      C       2.4615978171    -2.6844835309     0.0939776439
   88      H       2.9911788513    -3.5704489212     0.4448237161
   89      H       2.3226872852    -2.7899696499    -0.9838715215
   90      H       1.4660822169    -2.6976477898     0.5428619474
 ----------------------------------------------------------------
 Nuclear Repulsion Energy =  6087.7742346976 hartrees
 There are      174 alpha and      174 beta electrons
 Requested basis set is def2-mSVP
 There are 440 shells and 856 basis functions

 Total QAlloc Memory Limit  14000 MB
 Mega-Array Size      1001 MB
 MEM_STATIC part      1024 MB
 A cutoff of  1.0D-11 yielded  36432 shell pairs
 There are    144814 function pairs (    159763 Cartesian)
 
 -------------------------------------------------------
 OpenMP Integral Computing Module                       
 Release: version 1.0, May 2013, Q-Chem Inc. Pittsburgh 
 -------------------------------------------------------
 Integral Job Info:
 Integral job number is                      11
 Integral operator is                         1
 short-range coefficients                     0
 long-range coefficients              100000000
 Omega coefficients                           0
 if combine SR and LR in K                    0
 Integral screening is                        0
 Integral computing path is                   2
 max size of driver memory is            800000
 size of driver memory is                593474
 size of scratch memory is              1809772
 max col of scratch BK array               1296
 max len of scratch array in speh3          155
 max len of scratch index in speh4           18
 max int batch size is                      520
 min int batch size is                       52
 fixed nKL is                                52
 max L of basis functions is                  2
 order of int derivative is                   0
 number of shells is                        440
 number of basis is                         908
 number of cartesian basis is               908
 number of contracted shell pairs         36432
 number of primitive shell pairs          76681
 maxK2 (contraction) of shell pair           25
 max number of K2 of shell pair               1
 max number of CS2 of shell pair           8710
 max number of PS2 of shell pair          13580
 mem total for path MDJ                  381464
 -------------------------------------------------------
 Smallest overlap matrix eigenvalue = 2.04E-04

 Scale SEOQF with 1.000000e-02/1.000000e-01/1.000000e-02

 Standard Electronic Orientation quadrupole field applied
 Nucleus-field energy     =    -0.0000000234 hartrees
 Guess from superposition of atomic densities
 Warning:  Energy on first SCF cycle will be non-variational
 A restricted hybrid HF-DFT SCF calculation will be
 performed using Pulay DIIS extrapolation
 Exchange:     0.4200 Hartree-Fock + 0.5800 PBEh-3c
 Correlation:  1.0000 PBEh-3c
 Using SG-1 standard quadrature grid
 Dispersion:   Grimme D3
 SCF converges when DIIS error is below 1.0E-08
 using 8 threads for integral computing
 -------------------------------------------------------
 OpenMP Integral computing Module                
 Release: version 1.0, May 2013, Q-Chem Inc. Pittsburgh 
 -------------------------------------------------------
 ---------------------------------------
  Cycle       Energy         DIIS Error
 ---------------------------------------
    1   -1991.3384907688      2.87E-02
    2   -1973.2699397321      1.98E-03
    3   -1973.4683423783      1.48E-03
    4   -1973.6674758512      5.19E-04
    5   -1973.6911276944      2.31E-04
    6   -1973.6964491573      6.04E-05
    7   -1973.6967707681      1.72E-05
    8   -1973.6967991093      5.54E-06
    9   -1973.6968023311      1.50E-06
   10   -1973.6968026411      7.46E-07
   11   -1973.6968027295      2.35E-07
   12   -1973.6968027414      9.58E-08
   13   -1973.6968027401      4.21E-08
   14   -1973.6968027317      1.50E-08
   15   -1973.6968027474      7.75E-09 Convergence criterion met
 ---------------------------------------
 SCF time:  CPU 2456.58 s  wall 632.03 s
 SCF   energy in the final basis set = -1973.69680275
 Total energy in the final basis set = -1973.69680275
 
 Direct TDDFT/TDA calculation will be performed
 Exchange:     0.4200 Hartree-Fock + 0.5800 PBEh-3c
 Correlation:  1.0000 PBEh-3c
 Using SG-1 standard quadrature grid
 Dispersion:   Grimme D3
 Triplet excitation energies requested
 CIS energy converged when residual is below 10e- 6
 ---------------------------------------------------
 Iter    Rts Conv    Rts Left    Ttl Dev     Max Dev
 ---------------------------------------------------
   1         0           4      0.000286    0.000087
   2         0           4      0.000126    0.000043
   3         0           4      0.000058    0.000021
   4         0           4      0.000026    0.000009
   5         1           3      0.000079    0.000074
   6         2           2      0.000029    0.000026
   7         2           2      0.000017    0.000015
   8         3           1      0.000005    0.000003
   9         4           0      0.000002    0.000001    Roots Converged
 ---------------------------------------------------
 
 ---------------------------------------------------
         TDDFT/TDA Excitation Energies              
 ---------------------------------------------------

 Excited state   1: excitation energy (eV) =    1.9977
 Total energy for state  1:                 -1973.62339035 au
    Multiplicity: Triplet
    Trans. Mom.:  0.0000 X   0.0000 Y   0.0000 Z
    Strength   :     0.0000000000
    D(167) --> V(  2) amplitude = -0.2579
    D(174) --> V(  1) amplitude =  0.9249

 Excited state   2: excitation energy (eV) =    2.3623
 Total energy for state  2:                 -1973.60999079 au
    Multiplicity: Triplet
    Trans. Mom.:  0.0000 X   0.0000 Y   0.0000 Z
    Strength   :     0.0000000000
    D(171) --> V(  2) amplitude = -0.4394
    D(173) --> V(  1) amplitude =  0.8047

 Excited state   3: excitation energy (eV) =    2.4248
 Total energy for state  3:                 -1973.60769384 au
    Multiplicity: Triplet
    Trans. Mom.:  0.0000 X   0.0000 Y   0.0000 Z
    Strength   :     0.0000000000
    D(171) --> V(  1) amplitude =  0.6589
    D(172) --> V(  1) amplitude = -0.3154
    D(173) --> V(  2) amplitude = -0.5519

 Excited state   4: excitation energy (eV) =    2.5038
 Total energy for state  4:                 -1973.60479144 au
    Multiplicity: Triplet
    Trans. Mom.:  0.0000 X   0.0000 Y   0.0000 Z
    Strength   :     0.0000000000
    D(167) --> V(  1) amplitude =  0.7181
    D(174) --> V(  2) amplitude = -0.5766
 
 ---------------------------------------------------
 Calculating Relaxed Density
 ---------------------------------------------------
 Iter    Rts Conv    Rts Left    Ttl Dev     Max Dev
 ---------------------------------------------------
   1         0           4      0.000214    0.000064
   2         0           4      0.000097    0.000028
   3         0           4      0.000022    0.000007
   4         0           4      0.000007    0.000002
   5         4           0      0.000000    0.000000    Roots Converged
 ---------------------------------------------------
                Calling CISFollow                   
 ---------------------------------------------------
 Step:              0 State:             3
 Initial State:  3     Spin:   triplet 
 Only searching over triplet s
 Restricted Calculation
 Initial state compared to all other same-spin states
 Overlap based on att/det density analysis
 ---------------------------------------------------
 State |    Energy (Eh)   | Delta E (Eh) |  Overlap 
 ---------------------------------------------------
   1   |   -1973.62339035 |  -0.015697   |  0.344863
   2   |   -1973.60999079 |  -0.002297   |  0.733685
   3   |   -1973.60769384 |   0.000000   |  1.000000
   4   |   -1973.60479144 |   0.002902   |  0.619745
 ---------------------------------------------------
 Stored State:    3 -1973.60769384
 ---------------------------------------------------
 Dynamic thresholds being used
 to change set FOLLOW_ENERGY and FOLLOW_OVERLAP
 ---------------------------------------------------
  SETman timing summary (seconds)
  CPU time              6717.34s
  System time              0.02s
  Wall time             1024.90s
 
 --------------------------------------------------------------
 
                    Orbital Energies (a.u.)
 --------------------------------------------------------------
 
 Alpha MOs
 -- Occupied --
-10.464 -10.464 -10.464 -10.464 -10.464 -10.463 -10.462 -10.462
-10.462 -10.462 -10.462 -10.462 -10.460 -10.460 -10.460 -10.460
-10.459 -10.459 -10.459 -10.459 -10.458 -10.458 -10.451 -10.451
-10.449 -10.449 -10.446 -10.446 -10.446 -10.445 -10.445 -10.445
-10.444 -10.444 -10.433 -10.432 -10.431 -10.431 -10.428 -10.428
-10.428 -10.428 -10.428 -10.427 -10.423 -10.423 -10.423 -10.422
-10.416 -10.415  -6.940  -6.939  -1.013  -1.012  -0.958  -0.954
 -0.953  -0.951  -0.933  -0.932  -0.904  -0.895  -0.870  -0.866
 -0.865  -0.865  -0.855  -0.854  -0.847  -0.846  -0.815  -0.812
 -0.810  -0.796  -0.778  -0.778  -0.757  -0.754  -0.754  -0.754
 -0.731  -0.729  -0.728  -0.717  -0.687  -0.681  -0.676  -0.665
 -0.648  -0.641  -0.636  -0.636  -0.636  -0.634  -0.596  -0.592
 -0.589  -0.588  -0.582  -0.575  -0.573  -0.549  -0.544  -0.541
 -0.538  -0.537  -0.526  -0.526  -0.519  -0.507  -0.500  -0.498
 -0.493  -0.492  -0.491  -0.485  -0.481  -0.481  -0.479  -0.478
 -0.478  -0.477  -0.474  -0.466  -0.464  -0.463  -0.462  -0.461
 -0.460  -0.459  -0.453  -0.453  -0.448  -0.447  -0.444  -0.443
 -0.442  -0.437  -0.432  -0.426  -0.424  -0.419  -0.414  -0.410
 -0.409  -0.399  -0.398  -0.394  -0.394  -0.393  -0.389  -0.386
 -0.379  -0.377  -0.376  -0.376  -0.373  -0.363  -0.351  -0.346
 -0.344  -0.332  -0.320  -0.314  -0.295  -0.294  -0.274  -0.269
 -0.268  -0.262  -0.260  -0.259  -0.253  -0.247
 -- Virtual --
 -0.095  -0.061  -0.031  -0.029  -0.001   0.008   0.020   0.027
  0.027   0.036   0.037   0.045   0.075   0.087   0.092   0.092
  0.123   0.134   0.144   0.144   0.154   0.159   0.159   0.162
  0.167   0.168   0.170   0.172   0.177   0.177   0.183   0.184
  0.185   0.189   0.190   0.193   0.196   0.197   0.197   0.198
  0.208   0.211   0.214   0.215   0.218   0.221   0.223   0.225
  0.227   0.229   0.229   0.233   0.234   0.237   0.242   0.243
  0.244   0.250   0.251   0.253   0.254   0.255   0.259   0.262
  0.263   0.268   0.270   0.271   0.273   0.279   0.282   0.282
  0.284   0.286   0.289   0.299   0.307   0.308   0.310   0.315
  0.319   0.324   0.328   0.329   0.335   0.338   0.346   0.350
  0.355   0.360   0.367   0.381   0.384   0.390   0.393   0.406
  0.406   0.407   0.410   0.415   0.421   0.425   0.426   0.431
  0.437   0.449   0.454   0.456   0.458   0.470   0.471   0.485
  0.488   0.491   0.495   0.496   0.500   0.503   0.504   0.505
  0.507   0.509   0.511   0.524   0.527   0.529   0.530   0.532
  0.537   0.538   0.539   0.542   0.546   0.546   0.556   0.557
  0.560   0.562   0.562   0.567   0.568   0.575   0.579   0.581
  0.584   0.585   0.587   0.590   0.592   0.592   0.596   0.596
  0.597   0.598   0.598   0.600   0.607   0.608   0.609   0.611
  0.612   0.616   0.618   0.619   0.624   0.624   0.624   0.626
  0.628   0.630   0.633   0.637   0.640   0.645   0.650   0.653
  0.655   0.657   0.660   0.664   0.667   0.670   0.674   0.676
  0.679   0.681   0.687   0.692   0.697   0.701   0.702   0.707
  0.709   0.710   0.711   0.719   0.721   0.726   0.727   0.732
  0.733   0.734   0.751   0.752   0.754   0.755   0.756   0.758
  0.762   0.764   0.768   0.771   0.776   0.778   0.782   0.786
  0.788   0.790   0.798   0.807   0.816   0.818   0.822   0.831
  0.832   0.837   0.840   0.844   0.850   0.866   0.867   0.873
  0.878   0.881   0.883   0.888   0.892   0.912   0.913   0.916
  0.917   0.922   0.931   0.941   0.947   0.950   0.950   0.954
  0.957   0.964   0.968   0.970   0.977   0.983   0.987   0.987
  0.992   1.000   1.003   1.006   1.012   1.013   1.015   1.016
  1.022   1.031   1.033   1.036   1.038   1.042   1.044   1.047
  1.048   1.049   1.061   1.063   1.068   1.070   1.074   1.074
  1.077   1.077   1.081   1.085   1.087   1.091   1.094   1.094
  1.102   1.103   1.108   1.111   1.114   1.121   1.122   1.125
  1.128   1.133   1.134   1.139   1.142   1.143   1.148   1.154
  1.160   1.162   1.164   1.169   1.170   1.181   1.195   1.198
  1.206   1.208   1.209   1.212   1.225   1.239   1.243   1.250
  1.254   1.259   1.260   1.263   1.277   1.281   1.282   1.286
  1.289   1.300   1.306   1.310   1.313   1.315   1.318   1.320
  1.323   1.330   1.337   1.341   1.347   1.356   1.359   1.363
  1.365   1.378   1.381   1.383   1.386   1.389   1.394   1.400
  1.408   1.412   1.416   1.423   1.436   1.440   1.443   1.443
  1.444   1.464   1.467   1.473   1.476   1.481   1.500   1.508
  1.512   1.512   1.518   1.518   1.519   1.522   1.526   1.529
  1.531   1.532   1.536   1.548   1.549   1.552   1.559   1.560
  1.562   1.565   1.566   1.568   1.571   1.575   1.577   1.583
  1.587   1.593   1.600   1.606   1.614   1.624   1.645   1.654
  1.655   1.658   1.668   1.676   1.689   1.697   1.703   1.716
  1.745   1.756   1.783   1.794   1.796   1.810   1.811   1.812
  1.813   1.817   1.820   1.823   1.838   1.845   1.848   1.853
  1.867   1.870   1.898   1.903   1.905   1.907   1.909   1.916
  1.918   1.923   1.924   1.927   1.934   1.934   1.937   1.946
  1.955   1.957   1.958   1.958   1.959   1.962   1.967   1.976
  1.981   1.983   1.991   1.993   1.993   1.996   2.000   2.022
  2.026   2.049   2.050   2.054   2.057   2.060   2.063   2.069
  2.070   2.082   2.089   2.106   2.112   2.112   2.122   2.139
  2.143   2.147   2.151   2.154   2.155   2.170   2.178   2.194
  2.195   2.199   2.200   2.213   2.215   2.220   2.222   2.228
  2.231   2.234   2.236   2.244   2.246   2.256   2.261   2.263
  2.265   2.275   2.279   2.280   2.284   2.286   2.290   2.293
  2.303   2.308   2.322   2.323   2.324   2.341   2.347   2.348
  2.351   2.353   2.356   2.357   2.360   2.362   2.366   2.374
  2.379   2.381   2.383   2.390   2.394   2.402   2.407   2.409
  2.417   2.420   2.421   2.425   2.428   2.435   2.437   2.440
  2.444   2.446   2.459   2.463   2.470   2.472   2.478   2.481
  2.486   2.490   2.508   2.509   2.510   2.531   2.533   2.548
  2.562   2.584   2.599   2.603   2.609   2.629   2.641   2.644
  2.646   2.670   2.686   2.690   2.713   2.730   2.731   2.733
  2.734   2.735   2.742   2.745   2.747   2.756   2.768   2.768
  2.774   2.781   2.784   2.785   2.790   2.791   2.804   2.805
  2.811   2.823   2.835   2.845   2.859   2.860   2.864   2.868
  2.896   2.899   2.907   2.913   2.916   2.919   2.934   2.940
  2.941   2.946   2.958   2.959   2.966   2.990   2.994   3.009
  3.015   3.032   3.051   3.072   3.085   3.089   3.106   3.220
  3.223   3.248   3.265   3.268   3.410   3.427   3.452   3.484
  3.490   3.492   3.537   3.548   3.661   3.676   9.605   9.747
 13.143  13.179  13.392  13.471  13.503  13.507  13.523  13.550
 13.713  13.720  13.738  13.783  13.788  13.796  13.799  13.843
 13.859  13.892  13.902  13.903  13.911  13.922  13.958  14.004
 14.014  14.021  14.027  14.029  14.113  14.161  14.162  14.186
 14.192  14.196  14.209  14.236  14.257  14.266  14.316  14.319
 14.325  14.328  14.505  14.512  14.553  14.555  14.578  14.580
 14.583  14.586
 --------------------------------------------------------------
 
          Ground-State Mulliken Net Atomic Charges

     Atom                 Charge (a.u.)
  ----------------------------------------
      1 C                    -0.152581
      2 C                    -0.380288
      3 H                     0.236348
      4 C                     0.080107
      5 C                     0.199696
      6 C                    -0.369700
      7 H                     0.222098
      8 C                    -0.205831
      9 H                     0.226549
     10 C                    -0.331901
     11 H                     0.220153
     12 C                    -0.077679
     13 C                     0.254867
     14 C                    -0.335758
     15 H                     0.220521
     16 C                    -0.203076
     17 H                     0.226257
     18 C                    -0.378452
     19 H                     0.221855
     20 C                     0.201111
     21 C                     0.106751
     22 C                    -0.392136
     23 H                     0.235361
     24 C                    -0.153895
     25 B                     0.687284
     26 C                    -0.152645
     27 C                    -0.383411
     28 H                     0.235587
     29 C                     0.083043
     30 C                     0.200328
     31 C                    -0.369530
     32 H                     0.222470
     33 C                    -0.205509
     34 H                     0.226677
     35 C                    -0.332792
     36 H                     0.220216
     37 C                    -0.078900
     38 C                     0.255029
     39 C                    -0.335675
     40 H                     0.220526
     41 C                    -0.203761
     42 H                     0.226397
     43 C                    -0.376015
     44 H                     0.222046
     45 C                     0.200451
     46 C                     0.104020
     47 C                    -0.390471
     48 H                     0.235217
     49 C                    -0.153295
     50 B                     0.689768
     51 C                    -0.221329
     52 C                     0.064215
     53 C                    -0.343854
     54 H                     0.196016
     55 C                     0.130663
     56 C                    -0.337653
     57 H                     0.195892
     58 C                     0.057548
     59 C                    -0.709487
     60 H                     0.225915
     61 H                     0.228563
     62 H                     0.230256
     63 C                    -0.760574
     64 H                     0.233847
     65 H                     0.243369
     66 H                     0.244476
     67 C                    -0.756165
     68 H                     0.232871
     69 H                     0.243195
     70 H                     0.243865
     71 C                    -0.227471
     72 C                     0.058554
     73 C                    -0.343623
     74 H                     0.196104
     75 C                     0.130581
     76 C                    -0.336095
     77 H                     0.196229
     78 C                     0.064759
     79 C                    -0.709521
     80 H                     0.225738
     81 H                     0.228747
     82 H                     0.230680
     83 C                    -0.756620
     84 H                     0.233203
     85 H                     0.243807
     86 H                     0.241658
     87 C                    -0.757855
     88 H                     0.233328
     89 H                     0.244045
     90 H                     0.244689
  ----------------------------------------
  Sum of atomic charges =    -0.000000

 -----------------------------------------------------------------
                    Cartesian Multipole Moments
 -----------------------------------------------------------------
    Charge (ESU x 10^10)
                -0.0000
    Dipole Moment (Debye)
         X       0.0575      Y      -0.8037      Z       0.0865
       Tot       0.8104
    Quadrupole Moments (Debye-Ang)
        XX    -262.1386     XY      -1.3362     YY    -301.7518
        XZ      -5.4397     YZ       3.7976     ZZ    -254.2361
    Octopole Moments (Debye-Ang^2)
       XXX     -26.5060    XXY      49.3210    XYY      -3.6702
       YYY     302.6470    XXZ     388.3142    XYZ      42.3140
       YYZ     433.8605    XZZ       4.4715    YZZ      12.6442
       ZZZ    1126.4872
    Hexadecapole Moments (Debye-Ang^3)
      XXXX  -19476.1194   XXXY     564.1375   XXYY   -3938.2474
      XYYY     662.2685   YYYY   -2414.5017   XXXZ    2427.7818
      XXYZ    -165.8482   XYYZ    1278.3996   YYYZ   -1071.2145
      XXZZ   -7793.3547   XYZZ     -13.4960   YYZZ   -6185.6184
      XZZZ    1929.0311   YZZZ    -365.9170   ZZZZ  -28148.0962
 -----------------------------------------------------------------
 Calculating analytic gradient of the CIS energy
 -4.979217797373252E-004 -4.979285371317873E-004
 -4.979292139648227E-004 -4.979211934862809E-004
 -4.979247746407383E-004 -4.979255354383543E-004
 -4.979329812579825E-004 -4.979173217157371E-004
 -4.979302949697912E-004 -4.979201147142869E-004
 -4.979251996984826E-004 -4.979251225920731E-004
 -4.979360828357063E-004 -4.979142324087240E-004
 -4.979271766002080E-004 -4.979231835186528E-004
 -4.979236057524518E-004 -4.979267117732148E-004
 -4.979361656637869E-004 -4.979141503422290E-004
 -4.979318827147596E-004 -4.979185271187438E-004
 -4.979067806979061E-004 -4.979435318990464E-004
 -4.979312314077876E-004 -4.979190652147351E-004
 -4.979290075425694E-004 -4.979214013830336E-004
 -4.979272010947155E-004 -4.979231254574074E-004
 -4.979624469658383E-004 -4.978878815910792E-004
 -4.979289035441897E-004 -4.979214947159953E-004
 -4.979090158008775E-004 -4.979412866352212E-004
 -4.979309266236883E-004 -4.979193957308020E-004
 -4.979269368987374E-004 -4.979234032278524E-004
 -4.979208126667735E-004 -4.979294784798375E-004
 -4.979143249244188E-004 -4.979359546490602E-004
 -4.979204757058282E-004 -4.979299122268594E-004
 -4.979474690471684E-004 -4.979028656111773E-004
 -4.979337866678280E-004 -4.979164982847203E-004
 -4.979237487990693E-004 -4.979265885489450E-004
 -4.979144232447108E-004 -4.979358985143875E-004
 -4.979359944715737E-004 -4.979143312057801E-004
 -4.979251611109156E-004 -4.979252274883789E-004
 -4.979026440271699E-004 -4.979476495126065E-004
 -4.979162590836927E-004 -4.979340746875825E-004
 -4.979207422051246E-004 -4.979296162050344E-004
 -4.979379394370541E-004 -4.979123486270534E-004
 -4.979372280829817E-004 -4.979131023215537E-004
 -4.979277108236874E-004 -4.979226974232949E-004
 -4.979030530075926E-004 -4.979472776401893E-004
 -4.979103020947063E-004 -4.979399997793047E-004
 -4.979190135195400E-004 -4.979313728178993E-004
 -4.979559503975598E-004 -4.978943709711532E-004
 -4.979359040977022E-004 -4.979144039334442E-004
 -4.979255994976282E-004 -4.979247880264580E-004
 -4.979027295207393E-004 -4.979475806656952E-004
 -4.979202253930646E-004 -4.979300978074938E-004
 -4.979211507025970E-004 -4.979292069861041E-004
 -4.979401463044622E-004 -4.979101505210138E-004
 -4.979143657817544E-004 -4.979359319098816E-004
 -4.979204364674361E-004 -4.979299510217540E-004
 -4.979481106491890E-004 -4.979022120844587E-004
 -4.979290984355936E-004 -4.979212056848800E-004
 -4.979238652210366E-004 -4.979264724727326E-004
 -4.979126125986785E-004 -4.979376971720458E-004
 -4.979188207192744E-004 -4.979314982695233E-004
 -4.979260606305397E-004 -4.979243375586002E-004
 -4.978854919344642E-004 -4.979648216939894E-004
 -4.979257783790474E-004 -4.979245190227499E-004
 -4.979244658517765E-004 -4.979258739018249E-004
 -4.979186638626317E-004 -4.979316517731341E-004
 -4.979210077728377E-004 -4.979292976041193E-004
 -4.979262533408596E-004 -4.979241543142045E-004
 -4.979209268736699E-004 -4.979293945070770E-004
 -4.979348610459782E-004 -4.979154537179214E-004
 -4.979292559125152E-004 -4.979211531435619E-004
 -4.979061202295645E-004 -4.979441962412814E-004
 -4.979215679251896E-004 -4.979287605158190E-004
 -4.979262545465920E-004 -4.979241542177404E-004
 -4.979183195368015E-004 -4.979319793607804E-004
 -4.979201757436382E-004 -4.979301570147059E-004
 -4.979226531995099E-004 -4.979277062279152E-004
 -4.979148520219256E-004 -4.979354493240448E-004
 -4.979271364002177E-004 -4.979231742600415E-004
 -4.979281025464026E-004 -4.979223034802746E-004
 -4.979286675900729E-004 -4.979216481295017E-004
 -4.979322007115253E-004 -4.979181190081639E-004
 -4.979254030666640E-004 -4.979249845503301E-004
 -4.979293555059674E-004 -4.979209694218742E-004
 -4.979234376761760E-004 -4.979268730216243E-004
 -4.979292638374801E-004 -4.979211415613971E-004
 -4.979221324419377E-004 -4.979281850538416E-004
 -4.979289380593254E-004 -4.979213908442727E-004
 -4.979289887781220E-004 -4.979214188599665E-004
 -4.979327338100200E-004 -4.979175660544860E-004
 -4.979298565130431E-004 -4.979204756344097E-004
 -4.979254347931869E-004 -4.979249243544433E-004
 -4.979358459071474E-004 -4.979144555819845E-004
 -4.979154426855901E-004 -4.979348722990195E-004
 -4.979334184382531E-004 -4.979169889674847E-004
 -4.979431939677935E-004 -4.979071254503240E-004
 -4.979310003375928E-004 -4.979193071020653E-004
 -4.979270345670863E-004 -4.979233709716164E-004
 -4.979290978223697E-004 -4.979212218792615E-004
 -4.979295849041310E-004 -4.979207326030316E-004
 -4.979291483591120E-004 -4.979212466346394E-004
 -4.979650915267062E-004 -4.978852257312326E-004
 -4.979250971448015E-004 -4.979251979237096E-004
 -4.979254533790383E-004 -4.979248864463182E-004
 -4.979321116780777E-004 -4.979182073726832E-004
 -4.979382265919030E-004 -4.979120747689719E-004
 -4.979177126723747E-004 -4.979326726210339E-004
 -4.979042203313261E-004 -4.979460975451057E-004
 -4.979201468159968E-004 -4.979301580494816E-004
 -4.979249792176783E-004 -4.979253567179743E-004
 -4.979379075457325E-004 -4.979123983890858E-004
 -4.979117546951558E-004 -4.979385527720660E-004
 -4.979279623214791E-004 -4.979224206907445E-004
 -4.979456875936003E-004 -4.979046287315238E-004
 -4.979308579580607E-004 -4.979194627015889E-004
 -4.979195455936654E-004 -4.979308083296104E-004
 -4.979111906568219E-004 -4.979391138691449E-004
 -4.979125881686194E-004 -4.979377424586038E-004
 -4.979302135214951E-004 -4.979201918809323E-004
 -4.979460830229863E-004 -4.979042499896715E-004
 -4.979429004365961E-004 -4.979074035666368E-004
 -4.979154882626497E-004 -4.979348949285747E-004
 -4.978966632501546E-004 -4.979536579694290E-004
 -4.979121594323736E-004 -4.979381636609197E-004
 -4.979278182228526E-004 -4.979225651820869E-004
 -4.979458287443747E-004 -4.979044703654481E-004
 -4.979346711204907E-004 -4.979156599639256E-004
 -4.979193422297617E-004 -4.979310117850477E-004
 -4.979135000618499E-004 -4.979367930836396E-004
 -4.979382591334952E-004 -4.979120248589152E-004
 -4.979180563348616E-004 -4.979323293750087E-004
 -4.979041803046392E-004 -4.979461564070160E-004
 -4.979163450988745E-004 -4.979339418767883E-004
 -4.979251287923596E-004 -4.979252087312762E-004
 -4.979350246864366E-004 -4.979153011182753E-004
 -4.978881356790584E-004 -4.979621915859263E-004
 -4.979323556136686E-004 -4.979180405998267E-004
 -4.979391574563325E-004 -4.979111494436561E-004
 -4.979200542169038E-004 -4.979302671030825E-004
 -4.979266738632855E-004 -4.979236651845354E-004
 -4.979285274026465E-004 -4.979217650863273E-004
 -4.979203580028121E-004 -4.979299426149724E-004
 -4.979289325337801E-004 -4.979214744779976E-004
 -4.979225303158384E-004 -4.979277970686854E-004
 -4.979141139872427E-004 -4.979362045137521E-004
 -4.979344624472247E-004 -4.979159444593501E-004
 -4.979431662245949E-004 -4.979071483478577E-004
 -4.979176428932699E-004 -4.979326616514362E-004
 -4.979306338414889E-004 -4.979197732702691E-004
 -4.979246934303016E-004 -4.979256315132216E-004
 -4.979134160805352E-004 -4.979368992885623E-004
 -4.979275713449008E-004 -4.979227879447500E-004
 -4.979262547540490E-004 -4.979240645246877E-004
 -4.979290293937795E-004 -4.979212877796115E-004
 -4.979296323073357E-004 -4.979207732956364E-004
 -4.979257490364623E-004 -4.979245614393438E-004
 -4.979191930082648E-004 -4.979311276120176E-004
 -4.979260402412501E-004 -4.979243466788827E-004
 -4.979213246582058E-004 -4.979290019563058E-004
 -4.979144168618332E-004 -4.979359069349446E-004
 -4.979217013713506E-004 -4.979286202432975E-004
 -4.979190297130041E-004 -4.979312762265734E-004
 -4.979570319450940E-004 -4.978932748445926E-004
 -4.979497716529357E-004 -4.979005406861192E-004
 -4.979424287059342E-004 -4.979078833947412E-004
 -4.979147693983002E-004 -4.979355680616999E-004
 -4.979206912796407E-004 -4.979295914781649E-004
 -4.979186874810930E-004 -4.979316378004317E-004
 -4.979455524612010E-004 -4.979047822574628E-004
 -4.979250608387547E-004 -4.979252283035305E-004
 -4.979366225845645E-004 -4.979137004898959E-004
 -4.979610045098231E-004 -4.978893094852381E-004
 -4.979255601719086E-004 -4.979247484956583E-004
 -4.979465028357916E-004 -4.979038104401748E-004
 -4.979140551383094E-004 -4.979362819390216E-004
 -4.979225774818095E-004 -4.979277021268780E-004
 -4.979194661807915E-004 -4.979308543866127E-004
 -4.979470246825089E-004 -4.979033045455378E-004
 -4.979244557663293E-004 -4.979258275477834E-004
 -4.979382381956360E-004 -4.979120799682263E-004
 -4.979568347208852E-004 -4.978934690404307E-004
 -4.978956479032902E-004 -4.979546624552454E-004
 -4.979449686210123E-004 -4.979053371343222E-004
 -4.979064141219727E-004 -4.979439088608354E-004
 -4.979323720792678E-004 -4.979179220647792E-004
 -4.979171310064459E-004 -4.979331840077568E-004
 -4.979361085461760E-004 -4.979142043279128E-004
 -4.979252789863846E-004 -4.979250249562602E-004
 -4.979314651476822E-004 -4.979188480432611E-004
 -4.979303524902912E-004 -4.979199633497271E-004
 -4.979201663390352E-004 -4.979301370513150E-004
 -4.979354074600639E-004 -4.979149000618885E-004
 -4.979369311667328E-004 -4.979133705477233E-004
 -4.979205315145108E-004 -4.979297811153363E-004
 -4.979213833678501E-004 -4.979289294262764E-004
 -4.979287165239317E-004 -4.979216101603113E-004
 -4.978998512631279E-004 -4.979504392086275E-004
 -4.979258927846112E-004 -4.979244307435079E-004
 -4.979352560053531E-004 -4.979150791185622E-004
 -4.979134546769843E-004 -4.979368494964430E-004
 -4.979305218154085E-004 -4.979198027566035E-004
 -4.979403350547910E-004 -4.979099743908192E-004
 -4.979251235559365E-004 -4.979251840435723E-004
 -4.979258759671357E-004 -4.979244390385490E-004
 -4.979328845581118E-004 -4.979174330422151E-004
 -4.979250186350297E-004 -4.979252891667709E-004
 -4.979378116081180E-004 -4.979124988796173E-004
 -4.979282709179496E-004 -4.979220551462570E-004
 -4.979452260962811E-004 -4.979050676478434E-004
 -4.979271432826029E-004 -4.979231797160117E-004
 -4.979385803408661E-004 -4.979117537438765E-004
 -4.979358285781482E-004 -4.979144697166314E-004
 -4.979331961528239E-004 -4.979171225667297E-004
 -4.979378187140764E-004 -4.979124969811714E-004
 -4.979229435177169E-004 -4.979273679002351E-004
 -4.979394470730420E-004 -4.979108663652953E-004
 -4.979427030521511E-004 -4.979076132801242E-004
 -4.979235110672353E-004 -4.979267991199793E-004
 -4.979288961635271E-004 -4.979214187211000E-004
 -4.979354600101123E-004 -4.979148616649515E-004
 -4.979185603254057E-004 -4.979317617595509E-004
 -4.979314519639595E-004 -4.979188510724872E-004
 -4.978902892366282E-004 -4.979600144069715E-004
 -4.978998241114495E-004 -4.979504833451083E-004
 -4.979067339611818E-004 -4.979435681677680E-004
 -4.979339515568613E-004 -4.979163807270094E-004
 -4.979200936711527E-004 -4.979301882459494E-004
 -4.979311362491846E-004 -4.979191818924334E-004
 -4.979017625383179E-004 -4.979485621592792E-004
 -4.979274052753249E-004 -4.979228827235715E-004
 -4.979121683537011E-004 -4.979381474289170E-004
 -4.978892692412117E-004 -4.979610441397418E-004
 -4.979293855204362E-004 -4.979209237937068E-004
 -4.979032577825808E-004 -4.979470534773143E-004
 -4.979347343240145E-004 -4.979156041907313E-004
 -4.979181607625788E-004 -4.979321200557241E-004
 -4.979308762232728E-004 -4.979194470194395E-004
 -4.979052500753125E-004 -4.979450866562893E-004
 -4.979266451582707E-004 -4.979236412919915E-004
 -4.979135630026326E-004 -4.979367610426751E-004
 -4.978980791815019E-004 -4.979522269810061E-004
 -4.979532513125028E-004 -4.978970606220544E-004
 -4.979069278409847E-004 -4.979433810117710E-004
 -4.979426871763289E-004 -4.979076324635457E-004
 -4.979128257472603E-004 -4.979374769508779E-004
 -4.979332443650819E-004 -4.979170636253743E-004
 -4.979138448686067E-004 -4.979364615496790E-004
 -4.979270256711105E-004 -4.979232811601592E-004
 -4.979191303674299E-004 -4.979311782420177E-004
 -4.979205022145457E-004 -4.979298160911184E-004
 -4.979301335164703E-004 -4.979201721996124E-004
 -4.979136241154242E-004 -4.979366818657637E-004
 -4.979124835218402E-004 -4.979378192884927E-004
 -4.979299691851362E-004 -4.979203449536359E-004
 -4.979295848284198E-004 -4.979207264549389E-004
 -4.979186595547430E-004 -4.979316617654999E-004
 -4.978992254341593E-004 -4.979510699265345E-004
 -4.979242387394513E-004 -4.979260870367713E-004
 -4.979156186025229E-004 -4.979347151872545E-004
 -4.979139130518437E-004 -4.979363938162148E-004
 -4.979195107416562E-004 -4.979308133383638E-004
 -4.979163655708884E-004 -4.979339498331529E-004
 -4.979256636329182E-004 -4.979246460976614E-004
 -4.979124000683742E-004 -4.979379106753021E-004
 -4.979099997191438E-004 -4.979403110904223E-004
 -4.979253066508081E-004 -4.979249979024369E-004
 -4.979238714731850E-004 -4.979264435097967E-004
 -4.979247116513536E-004 -4.979256158113016E-004
 -4.979444318197080E-004 -4.979058595018978E-004
 -4.979242712645968E-004 -4.979260503006075E-004
 -4.979118869876851E-004 -4.979384462834787E-004
 -4.979380950629299E-004 -4.979122020754968E-004
 -4.979174805275652E-004 -4.979328377575234E-004
 -4.979125554227827E-004 -4.979377610392680E-004
 -4.979247272246713E-004 -4.979255828380834E-004
 -4.979116523441075E-004 -4.979386629016744E-004
 -4.979071957322659E-004 -4.979431191963308E-004
 -4.979251200633799E-004 -4.979251921774527E-004
 -4.979221433231999E-004 -4.979281714400663E-004
 CIS relaxed dipole moment
            1
    1   0.0266634
    2  -0.3602156
    3   0.1731881
	Magnitude:	 0.401 au	 1.018 Debye
 CIS 3 State Energy is -1973.6076938420
 Gradient of the state energy (including CIS Excitation Energy)
            1           2           3           4           5           6
    1   0.0242633  -0.0029681  -0.0003245   0.0180357   0.0125418  -0.0053987
    2  -0.0016564   0.0007009  -0.0002533   0.0005281   0.0001524   0.0012360
    3   0.0049815   0.0055421  -0.0002533   0.0009618   0.0153625  -0.0235239
            7           8           9          10          11          12
    1   0.0001894  -0.0180899  -0.0001111   0.0128814   0.0001269   0.0014587
    2  -0.0001169  -0.0020314  -0.0000462   0.0011398  -0.0000673   0.0004729
    3  -0.0000748   0.0096457   0.0002860  -0.0020969   0.0001673  -0.0020689
           13          14          15          16          17          18
    1   0.0007063  -0.0057969   0.0003084   0.0021651   0.0002311   0.0189589
    2  -0.0007570   0.0000732  -0.0000368  -0.0013540  -0.0000916   0.0021168
    3   0.0059454  -0.0102017   0.0002479   0.0183121   0.0003693  -0.0070387
           19          20          21          22          23          24
    1   0.0005895  -0.0159425  -0.0169705  -0.0011584   0.0009408  -0.0198971
    2  -0.0000437  -0.0008361  -0.0003026  -0.0000760  -0.0001863   0.0004400
    3   0.0001620  -0.0075914  -0.0111124   0.0002988   0.0003180  -0.0190156
           25          26          27          28          29          30
    1  -0.0013255   0.0171795   0.0037056  -0.0003212   0.0141360   0.0156401
    2  -0.0002827  -0.0006893  -0.0006726  -0.0001028  -0.0001020  -0.0022052
    3  -0.0012215   0.0187017  -0.0053635  -0.0000049   0.0115544   0.0042860
           31          32          33          34          35          36
    1  -0.0176359  -0.0000365  -0.0010890   0.0001927   0.0041262   0.0001369
    2   0.0035786  -0.0000751  -0.0022129  -0.0000536   0.0006734  -0.0000575
    3   0.0066355   0.0004670  -0.0162104  -0.0000301   0.0105540   0.0001643
           37          38          39          40          41          42
    1   0.0000020   0.0043947  -0.0097624   0.0001687   0.0129401   0.0003246
    2   0.0003244  -0.0012131   0.0014769  -0.0000273  -0.0026366  -0.0000899
    3  -0.0000048  -0.0023792   0.0005672   0.0002730  -0.0050863   0.0001402
           43          44          45          46          47          48
    1   0.0022762   0.0003393  -0.0139441  -0.0181084  -0.0003778   0.0008659
    2   0.0017570  -0.0000863   0.0016002   0.0007669   0.0001638  -0.0002422
    3   0.0158519   0.0006439  -0.0063582  -0.0124081  -0.0013984   0.0009411
           49          50          51          52          53          54
    1  -0.0267290   0.0028592   0.0003729  -0.0001962  -0.0005796  -0.0000572
    2   0.0013337   0.0008133  -0.0006098  -0.0004609   0.0004512   0.0000470
    3  -0.0067642   0.0021967   0.0002348   0.0001479   0.0000273  -0.0000585
           55          56          57          58          59          60
    1   0.0000804  -0.0004696  -0.0001398  -0.0000075   0.0002443   0.0000948
    2   0.0000152  -0.0003568  -0.0000285   0.0002484  -0.0000311   0.0000318
    3   0.0001483  -0.0002258  -0.0000307   0.0000029   0.0001844  -0.0000568
           61          62          63          64          65          66
    1   0.0000295  -0.0000094   0.0001610  -0.0002040  -0.0000351   0.0003355
    2  -0.0000128   0.0000156   0.0002325   0.0000848  -0.0001532   0.0000803
    3  -0.0000319  -0.0000931  -0.0000991  -0.0000392   0.0005311  -0.0000214
           67          68          69          70          71          72
    1  -0.0000868  -0.0001494   0.0004077   0.0001647  -0.0010350   0.0004343
    2  -0.0001464  -0.0000534   0.0002005  -0.0001311   0.0003279   0.0003307
    3   0.0003034  -0.0001286  -0.0000780   0.0002702   0.0000909   0.0003629
           73          74          75          76          77          78
    1   0.0001190   0.0002533  -0.0000957   0.0003381   0.0002453   0.0005121
    2  -0.0004857  -0.0000814   0.0000671   0.0003411  -0.0000274  -0.0002634
    3   0.0000756   0.0001149  -0.0000404   0.0003337   0.0001454   0.0005792
           79          80          81          82          83          84
    1   0.0000281   0.0000510   0.0001105   0.0001504   0.0006832   0.0003325
    2  -0.0000549  -0.0000089   0.0000220  -0.0000101   0.0001064   0.0000508
    3  -0.0000891   0.0000711   0.0000726   0.0001296   0.0002494   0.0002428
           85          86          87          88          89          90
    1  -0.0000540   0.0001358   0.0004635   0.0002843   0.0001142   0.0002754
    2  -0.0001848  -0.0000835  -0.0001384  -0.0001472  -0.0000025   0.0000755
    3   0.0003854   0.0000145   0.0003149   0.0001810   0.0003614   0.0000466
 Gradient time:  CPU 2157.62 s  wall 363.31 s
 Geometry Optimization Parameters
   NAtoms,    NIC,     NZ,  NCons,   NDum,   NFix, NCnnct, MaxDiis
       90     714      90       0       0       0       0       0


** GEOMETRY OPTIMIZATION IN DELOCALIZED INTERNAL COORDINATES **
   Searching for a Minimum

   Optimization Cycle:   1

                       Coordinates (Angstroms)
     ATOM                X               Y               Z
      1  C         0.0000000000    0.0000000000    0.0000000000
      2  C         0.0000000000    0.0000000000    1.3998220000
      3  H         0.9453129492    0.0000000000    1.9314413338
      4  C        -1.1852562271   -0.0439197277    2.0888531747
      5  C        -1.4489517596   -0.1301941159    3.5051479647
      6  C        -0.6688780495   -0.1631059843    4.6385429699
      7  H         0.4102892303   -0.0933669668    4.5907927612
      8  C        -1.3076881732   -0.2999522293    5.8856047751
      9  H        -0.6982585181   -0.3258752815    6.7795830809
     10  C        -2.6771084762   -0.4101631710    6.0098754350
     11  H        -3.1198312618   -0.5225289057    6.9918933141
     12  C        -2.8495966076   -0.2345597903    3.6387425285
     13  C        -3.5020396618   -0.3847136060    4.8624428916
     14  C        -4.9080499217   -0.5086179928    4.8007005040
     15  H        -5.4813477794   -0.6317727923    5.7111541476
     16  C        -5.5512270427   -0.4815338387    3.5812691760
     17  H        -6.6281028594   -0.5844745154    3.5586130305
     18  C        -4.8664001020   -0.3313133342    2.3577393275
     19  H        -5.4223470614   -0.3259636628    1.4294074136
     20  C        -3.4970747663   -0.2050702002    2.3820892220
     21  C        -2.4495568805   -0.0785550222    1.3859648725
     22  C        -2.4680885394   -0.0303078097    0.0113251352
     23  H        -3.4078400197   -0.0447971910   -0.5290987266
     24  C        -1.2645346554    0.0081436077   -0.7142726667
     25  B         1.3346699437   -0.0887273882   -0.7468569715
     26  C         1.3043301096   -0.1675490420   -2.2767624380
     27  C         2.5018428055   -0.3469931849   -2.9793595804
     28  H         3.4351201777   -0.4018528600   -2.4293957346
     29  C         2.4873186054   -0.4848287392   -4.3451883801
     30  C         3.5519896469   -0.7561964234   -5.2796107755
     31  C         4.9075992657   -0.9689906864   -5.1724165813
     32  H         5.4182574272   -0.9289119725   -4.2186091423
     33  C         5.6304380746   -1.2551227719   -6.3461386209
     34  H         6.6964619185   -1.4254152927   -6.2688368091
     35  C         5.0323159430   -1.3328452811   -7.5874903611
     36  H         5.6342551487   -1.5618121815   -8.4580863750
     37  C         2.9455453837   -0.8372766547   -6.5527035557
     38  C         3.6400280730   -1.1244743701   -7.7265318997
     39  C         2.8590482469   -1.1887288794   -8.9031259832
     40  H         3.3290992486   -1.4059538859   -9.8541546176
     41  C         1.4962474362   -0.9839556169   -8.8434948268
     42  H         0.9210770768   -1.0443563064   -9.7579597843
     43  C         0.8164417929   -0.7072852519   -7.6402599885
     44  H        -0.2564939797   -0.5668138172   -7.6466490606
     45  C         1.5483917116   -0.6304002983   -6.4789758760
     46  C         1.2421841306   -0.4138154702   -5.0800951816
     47  C         0.0583782339   -0.2219534748   -4.4057556659
     48  H        -0.8815639274   -0.1814140816   -4.9441386634
     49  C         0.0476222139   -0.1107548649   -3.0051370698
     50  B        -1.2868358135    0.0007430412   -2.2497708951
     51  C        -2.6527992985    0.0511152635   -3.0296534328
     52  C        -3.2338032397    1.2790013334   -3.3603380463
     53  C        -4.4380966766    1.3147739646   -4.0564604477
     54  H        -4.8752952290    2.2750858432   -4.3096712750
     55  C        -5.0898458481    0.1497107515   -4.4352646617
     56  C        -4.5105802841   -1.0670918979   -4.0936320293
     57  H        -5.0092412225   -1.9894626772   -4.3755174532
     58  C        -3.3089535046   -1.1309752089   -3.4004732135
     59  C        -6.3807647743    0.1896488730   -5.2004317478
     60  H        -6.7459166838    1.2092877191   -5.3189927705
     61  H        -7.1616545763   -0.3841912642   -4.6989985203
     62  H        -6.2638297894   -0.2338516054   -6.1998271539
     63  C        -2.5533688306    2.5579325313   -2.9580916913
     64  H        -3.0952755280    3.4344480323   -3.3132724169
     65  H        -1.5380210727    2.6135164277   -3.3563139372
     66  H        -2.4695877259    2.6401797296   -1.8721075154
     67  C        -2.7110798125   -2.4648846968   -3.0462159661
     68  H        -3.3632698223   -3.2887499939   -3.3364881794
     69  H        -2.5288383513   -2.5497870622   -1.9727955128
     70  H        -1.7484130476   -2.6184499970   -3.5391505082
     71  C         2.6922605825   -0.1770248674    0.0516499432
     72  C         3.2028093314   -1.4219700270    0.4381164045
     73  C         4.3968163218   -1.4959885397    1.1488901097
     74  H         4.7795946023   -2.4694197625    1.4385662391
     75  C         5.1082594532   -0.3569358862    1.4957272577
     76  C         4.5948553350    0.8762397528    1.1108825779
     77  H         5.1362640785    1.7805559904    1.3708258025
     78  C         3.4062605873    0.9778914103    0.3995087813
     79  C         6.3900213337   -0.4463622792    2.2727412947
     80  H         6.7144168831   -1.4796412422    2.3929499936
     81  H         7.1971697076    0.0970937028    1.7793278513
     82  H         6.2811609612   -0.0204904387    3.2721154462
     83  C         2.8751152990    2.3276317389    0.0066394699
     84  H         3.5585514177    3.1290371468    0.2874176476
     85  H         2.7106158584    2.3930923706   -1.0707587363
     86  H         1.9140302399    2.5298350147    0.4847481998
     87  C         2.4615978171   -2.6844835309    0.0939776439
     88  H         2.9911788513   -3.5704489212    0.4448237161
     89  H         2.3226872852   -2.7899696499   -0.9838715215
     90  H         1.4660822169   -2.6976477898    0.5428619474
   Point Group: c1    Number of degrees of freedom:   264


   Energy is  -1973.607693842


 Attempting to Generate Delocalized Internal Coordinates

264 Hessian modes will be used to form the next step
  Hessian Eigenvalues:
     0.008505    0.008639    0.008661    0.008718    0.008815    0.008973
     0.009003    0.009022    0.012368    0.012967    0.014218    0.015659
     0.016773    0.016967    0.016972    0.017057    0.017417    0.017446
     0.017518    0.017564    0.017570    0.017579    0.017866    0.018548
     0.018698    0.018992    0.019109    0.019296    0.019357    0.020478
     0.020506    0.020893    0.020915    0.021035    0.021056    0.021259
     0.021265    0.021436    0.021451    0.021770    0.021827    0.022304
     0.022371    0.022540    0.022565    0.022608    0.022620    0.022624
     0.022644    0.023174    0.023176    0.023197    0.023237    0.023374
     0.023410    0.023432    0.023455    0.023675    0.023676    0.023753
     0.023760    0.023779    0.023788    0.023800    0.023801    0.023873
     0.023915    0.024072    0.024113    0.024126    0.024136    0.024327
     0.024383    0.024389    0.024418    0.071356    0.071365    0.071462
     0.071504    0.071877    0.071883    0.072068    0.072079    0.072294
     0.072332    0.072428    0.072603    0.159888    0.159933    0.159936
     0.159950    0.159993    0.159994    0.159995    0.159995    0.159996
     0.159996    0.159997    0.159997    0.159998    0.159998    0.159998
     0.159999    0.160000    0.160000    0.160000    0.160000    0.160000
     0.160000    0.160000    0.160000    0.160000    0.160000    0.160000
     0.160000    0.160000    0.160000    0.160000    0.160000    0.160000
     0.160000    0.160000    0.160000    0.160000    0.160000    0.220602
     0.220604    0.222112    0.222112    0.231425    0.231744    0.233680
     0.233684    0.234609    0.234609    0.234836    0.234840    0.237278
     0.237283    0.239172    0.239537    0.248551    0.248589    0.248983
     0.249210    0.249266    0.249411    0.249476    0.249503    0.249574
     0.249658    0.249775    0.249808    0.249831    0.249987    0.249991
     0.249994    0.249994    0.249995    0.249997    0.249997    0.249998
     0.250000    0.250000    0.254403    0.257286    0.283153    0.286026
     0.290777    0.291106    0.319527    0.319698    0.320147    0.320904
     0.322149    0.322536    0.327262    0.329378    0.345390    0.345461
     0.345468    0.345690    0.345727    0.345753    0.345973    0.345999
     0.346087    0.346165    0.346849    0.346969    0.347923    0.347987
     0.348088    0.348129    0.348525    0.348681    0.349963    0.353064
     0.353286    0.353548    0.353843    0.354377    0.354508    0.354965
     0.355189    0.355875    0.356288    0.356412    0.356450    0.356507
     0.356763    0.356973    0.357174    0.357234    0.357405    0.357437
     0.357511    0.357542    0.357684    0.364921    0.381337    0.383141
     0.386648    0.388661    0.403354    0.404041    0.407491    0.408315
     0.420297    0.420875    0.423415    0.424047    0.424843    0.424844
     0.426208    0.427174    0.431935    0.432564    0.436129    0.436616
     0.446452    0.446909    0.451780    0.452852    0.459192    0.460067
     0.467036    0.467287    0.472697    0.472785    0.475441    0.475915
     0.476139    0.476965    0.478774    0.479454    0.486122    0.486753
     0.490410    0.490703    0.492618    0.493017    0.495664    0.497315

 Minimum Search - Taking Simple RFO Step
 Searching for Lamda that Minimizes Along All modes
 Value Taken    Lamda =  -0.01310264
 Step Taken.  Stepsize is  0.244546

                             Maximum     Tolerance    Cnvgd?
         Gradient           0.023336      0.000300      NO
         Displacement       0.139086      0.001200      NO
         Energy change     *********      0.000001      NO


 New Cartesian Coordinates Obtained by Inverse Iteration

 Displacement from previous Coordinates is:  2.395296
 Adding empirical dispersion correction 
 ----------------------------------------------------------------
 Doing -D3(BJ) with
 s6 =   1.00000
 s8 =   0.00000
 a1 =   0.48600
 a2 =   4.50000
 -D3 energy including 3body term =     -0.0823079114 hartrees
 ----------------------------------------------------------------
 Adding gCP correction 
 ----------------------------------------------------------------
 gCP energy =      0.1088927281 hartrees
 ----------------------------------------------------------------
             Standard Nuclear Orientation (Angstroms)
    I     Atom           X                Y                Z
 ----------------------------------------------------------------
    1      C      -0.0121412745    -0.1103328112     0.0459929761
    2      C      -0.0141796733    -0.0931695673     1.4505653049
    3      H       0.9329662785    -0.0945543382     1.9801152306
    4      C      -1.2038598451    -0.0879850987     2.1538813773
    5      C      -1.4918422897    -0.1201563793     3.5720174227
    6      C      -0.7257974318    -0.1418475562     4.7369678902
    7      H       0.3558042506    -0.1168759632     4.7105457622
    8      C      -1.3908368454    -0.2017298217     5.9638919574
    9      H      -0.8002887201    -0.2180341758     6.8703845681
   10      C      -2.7811802169    -0.2443836537     6.0640040911
   11      H      -3.2485511172    -0.2949531791     7.0395367829
   12      C      -2.8969579260    -0.1567567209     3.6912663242
   13      C      -3.5830712695    -0.2249861750     4.8984091288
   14      C      -4.9935801393    -0.2792758209     4.8118202373
   15      H      -5.5910582682    -0.3350963987     5.7132173172
   16      C      -5.6187639046    -0.2667901645     3.5691688599
   17      H      -6.6991902294    -0.3124375382     3.5237059821
   18      C      -4.9036591797    -0.2017161496     2.3692043729
   19      H      -5.4377868650    -0.2000359452     1.4274151917
   20      C      -3.5149885108    -0.1442900411     2.4281818970
   21      C      -2.4425533826    -0.0991401949     1.4500643716
   22      C      -2.4493895005    -0.0909134918     0.0717305574
   23      H      -3.3892090467    -0.0840111435    -0.4715182193
   24      C      -1.2453115079    -0.0977006792    -0.6552686331
   25      B       1.3222055674    -0.2064062133    -0.7308034108
   26      C       1.3086624553    -0.2777408378    -2.2739566940
   27      C       2.5112458653    -0.4226828864    -2.9799908367
   28      H       3.4448242556    -0.4633011379    -2.4285306401
   29      C       2.5103756164    -0.5188171213    -4.3575182965
   30      C       3.5778728943    -0.7152537714    -5.3178608095
   31      C       4.9571010750    -0.8805991720    -5.2423961355
   32      H       5.4835123965    -0.8611551637    -4.2971880586
   33      C       5.6675568364    -1.0820856059    -6.4312152617
   34      H       6.7403503337    -1.2119849631    -6.3763787630
   35      C       5.0493297993    -1.1251237919    -7.6773041510
   36      H       5.6447205320    -1.2867001830    -8.5673787740
   37      C       2.9671560629    -0.7613831004    -6.5883889004
   38      C       3.6480614068    -0.9637786491    -7.7847717649
   39      C       2.8567415408    -0.9974659308    -8.9565881144
   40      H       3.3217144651    -1.1490992774    -9.9229707511
   41      C       1.4799201929    -0.8395221818    -8.8722519300
   42      H       0.8918894590    -0.8697738396    -9.7804983695
   43      C       0.8186962208    -0.6453131464    -7.6525260771
   44      H      -0.2580099545    -0.5331125460    -7.6392802256
   45      C       1.5739528045    -0.6051718973    -6.4881405757
   46      C       1.2808132237    -0.4543169989    -5.0722682356
   47      C       0.0947898371    -0.3080570514    -4.3862376953
   48      H      -0.8466087642    -0.2598919578    -4.9250051733
   49      C       0.0825159245    -0.2259639099    -2.9831301136
   50      B      -1.2583278485    -0.1204467925    -2.2091729399
   51      C      -2.6203521269    -0.0486912496    -2.9961069187
   52      C      -3.1801853469     1.1875905089    -3.3324377132
   53      C      -4.3788876397     1.2404775373    -4.0365083618
   54      H      -4.8002009782     2.2072758037    -4.2914629689
   55      C      -5.0464157272     0.0859761392    -4.4195751346
   56      C      -4.4847951385    -1.1384847901    -4.0771182362
   57      H      -4.9930230916    -2.0537704495    -4.3644348497
   58      C      -3.2893642150    -1.2206916540    -3.3763247114
   59      C      -6.3345489703     0.1443904375    -5.1891975647
   60      H      -6.6863574553     1.1687343019    -5.3074455704
   61      H      -7.1245407531    -0.4195751241    -4.6907169877
   62      H      -6.2200926104    -0.2797940753    -6.1884609525
   63      C      -2.4841624855     2.4569107763    -2.9289875805
   64      H      -3.0118288607     3.3401599851    -3.2880848625
   65      H      -1.4668135418     2.4986086063    -3.3247244597
   66      H      -2.4060640677     2.5392825798    -1.8426030549
   67      C      -2.7121509297    -2.5645821067    -3.0277825135
   68      H      -3.3725461350    -3.3773676285    -3.3296094582
   69      H      -2.5411900417    -2.6617446149    -1.9535076256
   70      H      -1.7485346253    -2.7261822337    -3.5161362640
   71      C       2.6829925877    -0.2721173844     0.0456820858
   72      C       3.2100273839    -1.5070610153     0.4321333171
   73      C       4.4146271681    -1.5566377068     1.1258858212
   74      H       4.8145650706    -2.5214597928     1.4200898720
   75      C       5.1149479210    -0.4024103919     1.4479951018
   76      C       4.5813741567     0.8206238921     1.0552074388
   77      H       5.1147352143     1.7353342568     1.2937403109
   78      C       3.3816449103     0.8977405732     0.3616371643
   79      C       6.4085519813    -0.4646794797     2.2066299123
   80      H       6.7485040482    -1.4919005934     2.3350281300
   81      H       7.2003529290     0.0831887387     1.6937890527
   82      H       6.3075843676    -0.0269368962     3.2015301892
   83      C       2.8177706158     2.2294384748    -0.0511149382
   84      H       3.4872757501     3.0507621528     0.2026144201
   85      H       2.6377542289     2.2700651348    -1.1278294620
   86      H       1.8589134387     2.4225572264     0.4355815865
   87      C       2.4719325236    -2.7759137589     0.1008136286
   88      H       3.0098722188    -3.6584052621     0.4462149750
   89      H       2.3199283233    -2.8843056509    -0.9755347683
   90      H       1.4813698757    -2.7941621590     0.5611563141
 ----------------------------------------------------------------
 Nuclear Repulsion Energy =  6081.4109193615 hartrees
 There are      174 alpha and      174 beta electrons
 Applying Cartesian multipole field
    Component          Value
    ---------          -----
     (2,0,0)        1.00000E-12
     (0,2,0)        2.00000E-11
     (0,0,2)       -3.00000E-12
 Nucleus-field energy     =    -0.0000000252 hartrees
 Requested basis set is def2-mSVP
 There are 440 shells and 856 basis functions
 A cutoff of  1.0D-11 yielded  36404 shell pairs
 There are    144630 function pairs (    159572 Cartesian)
 Smallest overlap matrix eigenvalue = 2.01E-04
 Guess MOs from SCF MO coefficient file
 Reading MOs from coefficient file
 Reading MOs from coefficient file
 A restricted hybrid HF-DFT SCF calculation will be
 performed using Pulay DIIS extrapolation
 Exchange:     0.4200 Hartree-Fock + 0.5800 PBEh-3c
 Correlation:  1.0000 PBEh-3c
 Using SG-1 standard quadrature grid
 Dispersion:   Grimme D3
 SCF converges when DIIS error is below 1.0E-08
 Geometry optimization detected.  Setting ReadMinima to 0
 Setting SaveMinima to 0
 using 8 threads for integral computing
 -------------------------------------------------------
 OpenMP Integral computing Module                
 Release: version 1.0, May 2013, Q-Chem Inc. Pittsburgh 
 -------------------------------------------------------
 ---------------------------------------
  Cycle       Energy         DIIS Error
 ---------------------------------------
    1   -1973.6569990640      1.01E-03
    2   -1973.6983913798      1.09E-04
    3   -1973.6991339566      1.07E-04
    4   -1973.7001849153      3.17E-05
    5   -1973.7002704381      1.84E-05
    6   -1973.7003047069      5.86E-06
    7   -1973.7003080683      1.69E-06
    8   -1973.7003083401      5.46E-07
    9   -1973.7003083631      2.51E-07
   10   -1973.7003083780      7.44E-08
   11   -1973.7003083806      2.20E-08
   12   -1973.7003083545      1.04E-08
   13   -1973.7003083305      6.67E-09 Convergence criterion met
 ---------------------------------------
 SCF time:  CPU 2082.15 s  wall 527.04 s
 SCF   energy in the final basis set = -1973.70030833
 Total energy in the final basis set = -1973.70030833
 
 Direct TDDFT/TDA calculation will be performed
 Exchange:     0.4200 Hartree-Fock + 0.5800 PBEh-3c
 Correlation:  1.0000 PBEh-3c
 Using SG-1 standard quadrature grid
 Dispersion:   Grimme D3
 Triplet excitation energies requested
 CIS energy converged when residual is below 10e- 6
 ---------------------------------------------------
 Iter    Rts Conv    Rts Left    Ttl Dev     Max Dev
 ---------------------------------------------------
   1         0           4      0.000289    0.000087
   2         0           4      0.000134    0.000045
   3         0           4      0.000062    0.000022
   4         0           4      0.000022    0.000008
   5         1           3      0.000111    0.000107
   6         3           1      0.000034    0.000032
   7         3           1      0.000012    0.000011
   8         3           1      0.000007    0.000005
   9         3           1      0.000003    0.000002
  10         4           0      0.000002    0.000001    Roots Converged
 ---------------------------------------------------
 
 ---------------------------------------------------
         TDDFT/TDA Excitation Energies              
 ---------------------------------------------------

 Excited state   1: excitation energy (eV) =    2.2151
 Total energy for state  1:                 -1973.61890662 au
    Multiplicity: Triplet
    Trans. Mom.:  0.0000 X   0.0000 Y   0.0000 Z
    Strength   :     0.0000000000
    D(167) --> V(  2) amplitude = -0.2833
    D(173) --> V(  1) amplitude =  0.7925
    D(174) --> V(  1) amplitude = -0.4289

 Excited state   2: excitation energy (eV) =    2.2847
 Total energy for state  2:                 -1973.61634667 au
    Multiplicity: Triplet
    Trans. Mom.:  0.0000 X   0.0000 Y   0.0000 Z
    Strength   :     0.0000000000
    D(172) --> V(  2) amplitude =  0.4695
    D(173) --> V(  1) amplitude =  0.4065
    D(174) --> V(  1) amplitude =  0.6234

 Excited state   3: excitation energy (eV) =    2.3357
 Total energy for state  3:                 -1973.61447253 au
    Multiplicity: Triplet
    Trans. Mom.:  0.0000 X   0.0000 Y   0.0000 Z
    Strength   :     0.0000000000
    D(172) --> V(  1) amplitude =  0.6741
    D(172) --> V(  4) amplitude = -0.2340
    D(174) --> V(  2) amplitude =  0.5365

 Excited state   4: excitation energy (eV) =    2.6248
 Total energy for state  4:                 -1973.60384899 au
    Multiplicity: Triplet
    Trans. Mom.:  0.0000 X   0.0000 Y   0.0000 Z
    Strength   :     0.0000000000
    D(167) --> V(  1) amplitude = -0.7015
    D(173) --> V(  2) amplitude =  0.5835
 
 ---------------------------------------------------
 Calculating Relaxed Density
 ---------------------------------------------------
 Iter    Rts Conv    Rts Left    Ttl Dev     Max Dev
 ---------------------------------------------------
   1         0           4      0.000222    0.000063
   2         0           4      0.000104    0.000029
   3         0           4      0.000025    0.000007
   4         0           4      0.000008    0.000002
   5         4           0      0.000000    0.000000    Roots Converged
 ---------------------------------------------------
                Calling CISFollow                   
 ---------------------------------------------------
 Step:              1 State:             3
 Previous State:  3  -1973.607693841998
 Estimated State:    -1970.751988458333
 Energy threshold:28.55705 Overlap threshold:  0.500
 ---------------------------------------------------
 State |    Energy (Eh)   | Delta E (Eh) |  Overlap 
 ---------------------------------------------------
   1   |   -1973.61890662 |  -2.866918   |  0.419752
   2   |   -1973.61634667 |  -2.864358   |  0.645392
   3   |   -1973.61447253 |  -2.862484   |  0.667895
   4   |   -1973.60384899 |  -2.851861   |  0.634022
 ---------------------------------------------------
 Stored State:    3 -1973.61447253
 ---------------------------------------------------
 Dynamic thresholds being used
 to change set FOLLOW_ENERGY and FOLLOW_OVERLAP
 ---------------------------------------------------
  SETman timing summary (seconds)
  CPU time              6630.74s
  System time              0.02s
  Wall time              995.48s
 
 --------------------------------------------------------------
 
                    Orbital Energies (a.u.)
 --------------------------------------------------------------
 
 Alpha MOs
 -- Occupied --
-10.465 -10.465 -10.465 -10.465 -10.464 -10.464 -10.464 -10.463
-10.463 -10.463 -10.461 -10.461 -10.461 -10.460 -10.460 -10.460
-10.460 -10.460 -10.459 -10.459 -10.459 -10.459 -10.450 -10.450
-10.450 -10.450 -10.446 -10.445 -10.445 -10.445 -10.445 -10.445
-10.444 -10.444 -10.431 -10.431 -10.430 -10.429 -10.428 -10.428
-10.428 -10.428 -10.428 -10.427 -10.423 -10.423 -10.423 -10.423
-10.415 -10.414  -6.945  -6.942  -1.013  -1.013  -0.959  -0.956
 -0.953  -0.952  -0.931  -0.931  -0.906  -0.897  -0.869  -0.866
 -0.865  -0.865  -0.851  -0.850  -0.848  -0.848  -0.818  -0.808
 -0.806  -0.800  -0.778  -0.778  -0.756  -0.755  -0.754  -0.754
 -0.731  -0.730  -0.729  -0.717  -0.686  -0.678  -0.677  -0.663
 -0.649  -0.643  -0.637  -0.637  -0.636  -0.634  -0.595  -0.592
 -0.589  -0.587  -0.582  -0.574  -0.573  -0.549  -0.544  -0.542
 -0.538  -0.537  -0.527  -0.526  -0.517  -0.505  -0.502  -0.495
 -0.494  -0.493  -0.489  -0.484  -0.482  -0.481  -0.478  -0.478
 -0.478  -0.476  -0.473  -0.466  -0.465  -0.464  -0.462  -0.461
 -0.461  -0.459  -0.453  -0.453  -0.448  -0.448  -0.444  -0.444
 -0.443  -0.441  -0.432  -0.427  -0.425  -0.420  -0.411  -0.410
 -0.409  -0.402  -0.397  -0.393  -0.392  -0.392  -0.392  -0.387
 -0.379  -0.377  -0.377  -0.376  -0.374  -0.364  -0.349  -0.348
 -0.344  -0.333  -0.316  -0.311  -0.297  -0.296  -0.276  -0.269
 -0.269  -0.262  -0.259  -0.256  -0.252  -0.249
 -- Virtual --
 -0.092  -0.062  -0.033  -0.031  -0.001   0.009   0.019   0.027
  0.028   0.036   0.037   0.047   0.072   0.085   0.090   0.092
  0.123   0.133   0.144   0.145   0.154   0.159   0.160   0.162
  0.167   0.167   0.170   0.172   0.177   0.178   0.183   0.185
  0.186   0.189   0.191   0.194   0.196   0.197   0.197   0.198
  0.209   0.210   0.215   0.216   0.218   0.221   0.222   0.223
  0.227   0.228   0.231   0.231   0.234   0.238   0.242   0.244
  0.245   0.251   0.252   0.252   0.253   0.255   0.257   0.263
  0.264   0.268   0.269   0.269   0.274   0.280   0.280   0.280
  0.284   0.284   0.288   0.297   0.305   0.308   0.309   0.314
  0.319   0.323   0.328   0.332   0.338   0.340   0.345   0.346
  0.351   0.358   0.363   0.381   0.385   0.389   0.393   0.405
  0.406   0.407   0.408   0.414   0.421   0.425   0.430   0.431
  0.437   0.452   0.457   0.458   0.462   0.468   0.471   0.486
  0.487   0.492   0.495   0.497   0.500   0.503   0.504   0.505
  0.508   0.510   0.511   0.525   0.527   0.530   0.531   0.532
  0.537   0.538   0.538   0.542   0.544   0.545   0.556   0.557
  0.559   0.562   0.563   0.565   0.568   0.575   0.579   0.582
  0.585   0.586   0.587   0.588   0.591   0.592   0.592   0.596
  0.597   0.599   0.599   0.600   0.607   0.607   0.609   0.609
  0.611   0.614   0.617   0.620   0.620   0.622   0.623   0.625
  0.626   0.630   0.632   0.636   0.639   0.644   0.650   0.654
  0.656   0.657   0.659   0.663   0.666   0.671   0.675   0.676
  0.680   0.681   0.687   0.691   0.697   0.702   0.703   0.707
  0.710   0.711   0.712   0.720   0.721   0.722   0.728   0.729
  0.733   0.735   0.751   0.752   0.753   0.755   0.757   0.760
  0.761   0.765   0.766   0.772   0.775   0.778   0.782   0.786
  0.790   0.792   0.802   0.808   0.814   0.820   0.827   0.831
  0.831   0.836   0.838   0.844   0.849   0.859   0.864   0.873
  0.877   0.879   0.883   0.889   0.890   0.910   0.913   0.914
  0.916   0.918   0.929   0.942   0.948   0.948   0.950   0.951
  0.955   0.965   0.966   0.970   0.975   0.982   0.988   0.989
  0.990   1.001   1.002   1.007   1.010   1.011   1.015   1.015
  1.021   1.030   1.031   1.036   1.037   1.039   1.043   1.044
  1.047   1.048   1.057   1.062   1.068   1.070   1.072   1.074
  1.075   1.076   1.081   1.085   1.088   1.092   1.093   1.095
  1.099   1.102   1.107   1.111   1.114   1.121   1.122   1.125
  1.127   1.133   1.134   1.140   1.141   1.142   1.148   1.151
  1.158   1.159   1.161   1.167   1.168   1.182   1.194   1.200
  1.202   1.206   1.209   1.212   1.219   1.239   1.242   1.251
  1.254   1.256   1.258   1.263   1.277   1.281   1.282   1.288
  1.291   1.301   1.304   1.306   1.315   1.317   1.318   1.320
  1.322   1.331   1.338   1.342   1.348   1.358   1.359   1.362
  1.365   1.378   1.379   1.380   1.383   1.390   1.397   1.404
  1.408   1.412   1.418   1.419   1.435   1.442   1.443   1.443
  1.450   1.464   1.467   1.474   1.476   1.488   1.491   1.510
  1.511   1.512   1.517   1.517   1.518   1.523   1.524   1.526
  1.530   1.531   1.535   1.545   1.550   1.553   1.558   1.561
  1.564   1.565   1.567   1.568   1.570   1.576   1.579   1.583
  1.586   1.591   1.598   1.602   1.616   1.628   1.646   1.652
  1.660   1.661   1.664   1.687   1.693   1.703   1.706   1.715
  1.739   1.746   1.775   1.790   1.799   1.810   1.811   1.816
  1.817   1.820   1.820   1.822   1.834   1.846   1.851   1.853
  1.862   1.870   1.894   1.902   1.905   1.906   1.909   1.917
  1.923   1.925   1.927   1.928   1.932   1.938   1.939   1.945
  1.954   1.956   1.957   1.958   1.959   1.962   1.969   1.972
  1.975   1.978   1.990   1.991   1.991   1.993   2.000   2.021
  2.033   2.044   2.050   2.052   2.054   2.062   2.062   2.067
  2.067   2.083   2.085   2.103   2.110   2.110   2.122   2.137
  2.140   2.147   2.153   2.154   2.161   2.175   2.185   2.189
  2.193   2.196   2.201   2.211   2.216   2.219   2.223   2.226
  2.236   2.238   2.239   2.243   2.250   2.254   2.259   2.264
  2.268   2.273   2.275   2.281   2.283   2.286   2.289   2.297
  2.304   2.309   2.319   2.320   2.328   2.342   2.343   2.346
  2.353   2.353   2.355   2.356   2.358   2.363   2.366   2.373
  2.378   2.383   2.385   2.389   2.396   2.401   2.409   2.411
  2.412   2.415   2.419   2.421   2.425   2.434   2.434   2.437
  2.443   2.444   2.458   2.463   2.467   2.472   2.476   2.481
  2.483   2.489   2.496   2.497   2.505   2.524   2.525   2.546
  2.563   2.587   2.599   2.601   2.610   2.627   2.638   2.642
  2.644   2.668   2.686   2.690   2.705   2.728   2.729   2.734
  2.734   2.735   2.743   2.745   2.747   2.752   2.769   2.770
  2.777   2.783   2.784   2.785   2.786   2.786   2.804   2.809
  2.811   2.821   2.839   2.842   2.847   2.861   2.872   2.874
  2.897   2.902   2.911   2.915   2.917   2.918   2.936   2.939
  2.939   2.940   2.956   2.958   2.964   2.985   3.000   3.005
  3.009   3.040   3.055   3.067   3.080   3.084   3.124   3.221
  3.224   3.234   3.250   3.253   3.404   3.445   3.451   3.487
  3.488   3.492   3.539   3.550   3.660   3.673   9.592   9.735
 13.142  13.177  13.395  13.475  13.501  13.508  13.522  13.549
 13.714  13.722  13.730  13.783  13.784  13.802  13.812  13.846
 13.847  13.884  13.902  13.905  13.910  13.923  13.957  14.003
[...]
     90  H         1.4881117917   -2.9610446059    0.5166557157

Z-matrix Print:
$molecule
0 1
C 
C  1 1.403888
H  2 1.084188 1 119.269617
C  2 1.372115 1 120.222825 3 179.977931 0
C  4 1.451079 2 132.221252 1 179.787068 0
C  5 1.374171 4 135.406761 2 0.056198 0
H  6 1.082303 5 121.796019 4 0.096494 0
C  6 1.410945 5 118.412463 4 -179.903813 0
H  8 1.082092 6 118.473769 5 179.963230 0
C  8 1.377352 6 122.687152 5 -0.057911 0
H  10 1.082968 8 119.814816 6 -179.989077 0
C  5 1.411647 4 106.180483 2 -179.943061 0
C  12 1.391484 5 124.349330 4 179.926788 0
C  12 1.413053 5 111.839598 4 -0.081189 0
C  14 1.375879 12 118.772297 5 -179.995729 0
H  15 1.082637 14 121.772730 12 -179.993065 0
C  15 1.409598 14 118.408835 12 -0.003358 0
H  17 1.082293 15 118.571830 14 -179.979901 0
C  17 1.377687 15 122.495636 14 0.019022 0
H  19 1.083015 17 119.719040 15 179.993655 0
C  14 1.446263 12 106.298217 5 0.047455 0
C  21 1.375678 14 131.581494 12 179.910912 0
H  22 1.084888 21 120.377018 14 0.271503 0
C  22 1.401316 21 120.183177 14 -179.609659 0
B  1 1.532984 2 119.434209 3 0.092647 0
C  25 1.533140 1 118.998593 2 179.081646 0
C  26 1.404178 25 119.746525 1 -179.514337 0
H  27 1.084428 26 119.136779 25 0.446144 0
C  27 1.373084 26 120.284847 25 -179.377862 0
C  29 1.449619 27 132.448892 26 179.530442 0
C  30 1.374485 29 135.327341 27 0.077722 0
H  31 1.082311 30 121.779984 29 0.131068 0
C  31 1.410600 30 118.346379 29 -179.816460 0
H  33 1.082090 31 118.450853 30 179.965111 0
C  33 1.377645 31 122.716845 30 -0.009100 0
H  35 1.082891 33 119.794671 31 179.979149 0
C  30 1.412080 29 106.225087 27 -179.763008 0
C  37 1.390556 30 124.369922 29 179.843522 0
C  37 1.414281 30 111.775499 29 -0.044248 0
C  39 1.376504 37 118.828191 30 179.991946 0
H  40 1.082590 39 121.777059 37 179.942296 0
C  40 1.408542 39 118.294764 37 -0.094814 0
H  42 1.082246 40 118.578913 39 -179.952176 0
C  42 1.378581 40 122.536768 39 0.038045 0
H  44 1.082902 42 119.660955 40 -179.972930 0
C  39 1.443223 37 106.407528 30 0.099363 0
C  46 1.377196 39 131.558855 37 179.718152 0
H  47 1.084866 46 120.421634 39 0.249200 0
C  47 1.399427 46 120.290448 39 -179.722125 0
B  24 1.537897 22 120.161193 21 179.409566 0
C  25 1.571894 1 120.159226 2 -1.427417 0
C  51 1.397755 25 120.251623 1 -89.140656 0
C  52 1.391015 51 119.850164 25 179.793415 0
H  53 1.085186 52 119.166414 51 179.969975 0
C  53 1.387609 52 121.504944 51 -0.066127 0
C  55 1.390722 53 118.197859 52 -0.230114 0
H  56 1.085507 55 119.279925 53 -179.698215 0
C  56 1.388403 55 121.463669 53 0.247345 0
C  55 1.501239 53 121.166738 52 179.219195 0
H  59 1.089602 55 111.575818 53 8.980728 0
H  59 1.090860 55 111.571590 53 129.397474 0
H  59 1.091659 55 111.330032 53 -110.994238 0
C  58 1.503440 56 120.523559 55 -179.747681 0
H  63 1.089799 58 111.846745 56 -0.267951 0
H  63 1.092245 58 111.451145 56 -120.777530 0
H  63 1.092409 58 111.368273 56 120.180864 0
C  52 1.504204 51 119.886075 25 0.025055 0
H  67 1.089919 52 111.807792 51 -179.564219 0
H  67 1.092300 52 111.548065 51 -59.136377 0
H  67 1.092401 52 111.489626 51 60.073811 0
C  50 1.576980 24 120.354837 22 0.335009 0
C  71 1.398886 50 120.744736 24 -89.305888 0
C  72 1.391631 71 120.070624 50 178.956827 0
H  73 1.085108 72 119.150398 71 -179.892994 0
C  73 1.387301 72 121.562285 71 0.021579 0
C  75 1.390047 73 118.028369 72 -0.129064 0
H  76 1.085669 75 119.242805 73 -179.798367 0
C  76 1.388224 75 121.597358 73 0.119377 0
C  75 1.501545 73 121.454245 72 179.529243 0
H  79 1.089485 75 111.646826 73 5.223854 0
H  79 1.091157 75 111.509206 73 125.602611 0
H  79 1.091648 75 111.381216 73 -114.891571 0
C  72 1.502892 71 119.988982 50 -0.572953 0
H  83 1.089895 72 111.750970 71 -178.213333 0
H  83 1.091950 72 111.533529 71 -57.775123 0
H  83 1.092266 72 111.390547 71 61.500077 0
C  78 1.503422 76 119.995929 75 -179.561353 0
H  87 1.089984 78 111.731495 76 -1.642937 0
H  87 1.091998 78 111.503583 76 -122.071967 0
H  87 1.092171 78 111.400796 76 118.655779 0
$end

 
 --------------------------------------------------------------
 
                    Orbital Energies (a.u.)
 --------------------------------------------------------------
 
 Alpha MOs
 -- Occupied --
-10.465 -10.464 -10.464 -10.464 -10.464 -10.463 -10.462 -10.462
-10.462 -10.462 -10.462 -10.461 -10.461 -10.461 -10.460 -10.459
-10.459 -10.459 -10.459 -10.459 -10.459 -10.459 -10.450 -10.450
-10.450 -10.450 -10.446 -10.446 -10.445 -10.445 -10.445 -10.445
-10.444 -10.444 -10.433 -10.432 -10.432 -10.431 -10.428 -10.428
-10.428 -10.428 -10.428 -10.428 -10.423 -10.423 -10.423 -10.422
-10.416 -10.414  -6.941  -6.938  -1.012  -1.012  -0.957  -0.954
 -0.953  -0.951  -0.933  -0.932  -0.903  -0.894  -0.870  -0.866
 -0.865  -0.865  -0.855  -0.854  -0.847  -0.846  -0.815  -0.812
 -0.811  -0.795  -0.778  -0.778  -0.756  -0.754  -0.754  -0.754
 -0.731  -0.729  -0.728  -0.717  -0.687  -0.681  -0.676  -0.665
 -0.647  -0.640  -0.636  -0.636  -0.636  -0.634  -0.596  -0.592
 -0.588  -0.588  -0.582  -0.575  -0.573  -0.549  -0.544  -0.541
 -0.538  -0.537  -0.526  -0.526  -0.519  -0.507  -0.500  -0.498
 -0.493  -0.492  -0.491  -0.485  -0.481  -0.481  -0.479  -0.478
 -0.478  -0.477  -0.474  -0.466  -0.464  -0.463  -0.462  -0.461
 -0.461  -0.459  -0.453  -0.453  -0.448  -0.447  -0.444  -0.443
 -0.442  -0.437  -0.432  -0.426  -0.423  -0.418  -0.414  -0.410
 -0.409  -0.399  -0.398  -0.394  -0.394  -0.393  -0.389  -0.385
 -0.379  -0.377  -0.376  -0.376  -0.373  -0.363  -0.351  -0.346
 -0.345  -0.331  -0.320  -0.314  -0.295  -0.294  -0.274  -0.269
 -0.269  -0.262  -0.260  -0.259  -0.253  -0.246
 -- Virtual --
 -0.095  -0.061  -0.031  -0.029  -0.001   0.008   0.020   0.027
  0.028   0.036   0.037   0.045   0.075   0.087   0.092   0.093
  0.123   0.134   0.144   0.144   0.154   0.159   0.159   0.162
  0.167   0.168   0.169   0.172   0.176   0.177   0.183   0.185
  0.185   0.189   0.190   0.193   0.196   0.197   0.197   0.198
  0.208   0.210   0.214   0.215   0.218   0.222   0.223   0.225
  0.227   0.229   0.230   0.233   0.233   0.237   0.242   0.243
  0.244   0.250   0.252   0.253   0.255   0.255   0.259   0.262
  0.263   0.268   0.270   0.270   0.273   0.278   0.282   0.282
  0.283   0.285   0.288   0.300   0.307   0.307   0.310   0.315
  0.319   0.324   0.329   0.330   0.335   0.338   0.346   0.350
  0.355   0.360   0.368   0.381   0.384   0.390   0.394   0.406
  0.406   0.408   0.409   0.415   0.421   0.425   0.426   0.430
  0.437   0.448   0.453   0.456   0.457   0.469   0.471   0.484
  0.488   0.492   0.494   0.496   0.500   0.503   0.504   0.505
  0.508   0.509   0.510   0.524   0.527   0.529   0.530   0.532
  0.537   0.538   0.539   0.542   0.546   0.546   0.555   0.558
  0.559   0.563   0.564   0.567   0.567   0.572   0.579   0.582
  0.584   0.584   0.587   0.590   0.591   0.592   0.595   0.596
  0.597   0.598   0.598   0.600   0.607   0.608   0.609   0.611
  0.612   0.617   0.617   0.621   0.623   0.624   0.625   0.626
  0.627   0.632   0.633   0.634   0.640   0.645   0.650   0.654
  0.657   0.657   0.661   0.662   0.668   0.669   0.673   0.678
  0.679   0.679   0.686   0.692   0.698   0.701   0.702   0.707
  0.708   0.710   0.710   0.721   0.722   0.726   0.728   0.731
  0.732   0.732   0.752   0.754   0.754   0.757   0.759   0.760
  0.760   0.764   0.765   0.772   0.775   0.779   0.783   0.786
  0.787   0.789   0.802   0.807   0.815   0.816   0.822   0.831
  0.832   0.836   0.839   0.849   0.853   0.858   0.866   0.873
  0.878   0.879   0.884   0.890   0.892   0.912   0.913   0.915
  0.916   0.919   0.931   0.942   0.948   0.950   0.950   0.953
  0.957   0.965   0.967   0.969   0.976   0.983   0.987   0.987
  0.992   0.999   1.003   1.006   1.012   1.015   1.015   1.016
  1.023   1.031   1.033   1.036   1.038   1.044   1.044   1.047
  1.048   1.048   1.060   1.063   1.070   1.071   1.074   1.075
  1.076   1.077   1.080   1.085   1.089   1.093   1.095   1.095
  1.097   1.102   1.107   1.111   1.113   1.121   1.123   1.126
  1.127   1.132   1.135   1.141   1.143   1.144   1.148   1.150
  1.160   1.161   1.164   1.168   1.170   1.182   1.197   1.199
  1.208   1.208   1.209   1.211   1.225   1.239   1.243   1.251
  1.256   1.258   1.263   1.263   1.279   1.281   1.282   1.285
  1.297   1.300   1.300   1.312   1.316   1.318   1.320   1.320
  1.325   1.330   1.346   1.347   1.352   1.355   1.362   1.369
  1.371   1.374   1.376   1.377   1.382   1.391   1.395   1.398
  1.411   1.411   1.414   1.417   1.438   1.441   1.441   1.445
  1.458   1.461   1.467   1.476   1.479   1.480   1.482   1.509
  1.511   1.512   1.518   1.518   1.520   1.525   1.527   1.528
  1.531   1.532   1.540   1.544   1.550   1.552   1.561   1.562
  1.564   1.565   1.566   1.572   1.574   1.575   1.577   1.580
  1.593   1.594   1.595   1.606   1.614   1.625   1.648   1.656
  1.658   1.658   1.668   1.678   1.693   1.698   1.705   1.712
  1.746   1.757   1.782   1.794   1.795   1.809   1.812   1.813
  1.813   1.815   1.816   1.819   1.837   1.845   1.848   1.854
  1.868   1.871   1.897   1.902   1.905   1.907   1.910   1.915
  1.916   1.922   1.924   1.927   1.933   1.934   1.937   1.946
  1.953   1.955   1.957   1.958   1.960   1.963   1.966   1.975
  1.982   1.983   1.991   1.992   1.993   1.995   1.999   2.022
  2.025   2.050   2.052   2.053   2.055   2.057   2.063   2.069
  2.069   2.083   2.091   2.107   2.112   2.112   2.121   2.139
  2.143   2.148   2.149   2.151   2.153   2.169   2.178   2.194
  2.195   2.199   2.200   2.213   2.214   2.220   2.223   2.229
  2.231   2.235   2.237   2.244   2.247   2.255   2.260   2.263
  2.264   2.274   2.279   2.280   2.282   2.285   2.290   2.294
  2.303   2.310   2.323   2.324   2.325   2.342   2.350   2.350
  2.352   2.354   2.356   2.359   2.361   2.362   2.365   2.373
  2.379   2.383   2.386   2.387   2.391   2.403   2.403   2.409
  2.416   2.419   2.421   2.425   2.429   2.436   2.439   2.440
  2.445   2.447   2.457   2.463   2.467   2.473   2.476   2.482
  2.484   2.490   2.508   2.509   2.511   2.529   2.535   2.548
  2.558   2.584   2.599   2.603   2.604   2.626   2.640   2.645
  2.647   2.672   2.685   2.689   2.713   2.730   2.732   2.733
  2.734   2.735   2.742   2.745   2.748   2.755   2.767   2.769
  2.772   2.781   2.781   2.784   2.791   2.792   2.803   2.806
  2.811   2.823   2.835   2.845   2.860   2.862   2.863   2.865
  2.894   2.903   2.909   2.915   2.918   2.919   2.934   2.939
  2.941   2.946   2.956   2.959   2.966   2.991   2.993   3.007
  3.016   3.033   3.052   3.072   3.085   3.089   3.107   3.220
  3.223   3.245   3.265   3.268   3.408   3.425   3.450   3.482
  3.489   3.490   3.538   3.549   3.661   3.675   9.606   9.749
 13.143  13.178  13.394  13.474  13.504  13.507  13.523  13.552
 13.713  13.721  13.737  13.783  13.786  13.796  13.798  13.845
 13.861  13.897  13.903  13.905  13.910  13.922  13.959  14.005
 14.014  14.020  14.028  14.029  14.112  14.162  14.164  14.188
 14.192  14.194  14.209  14.237  14.259  14.267  14.311  14.315
 14.324  14.327  14.506  14.513  14.549  14.554  14.580  14.581
 14.584  14.588
 --------------------------------------------------------------
 
          Ground-State Mulliken Net Atomic Charges

     Atom                 Charge (a.u.)
  ----------------------------------------
      1 C                    -0.155236
      2 C                    -0.385783
      3 H                     0.235524
      4 C                     0.092207
      5 C                     0.205321
      6 C                    -0.376108
      7 H                     0.222190
      8 C                    -0.204491
      9 H                     0.226563
     10 C                    -0.333693
     11 H                     0.220531
     12 C                    -0.072277
     13 C                     0.250845
     14 C                    -0.332391
     15 H                     0.220327
     16 C                    -0.205315
     17 H                     0.226647
     18 C                    -0.370223
     19 H                     0.222055
     20 C                     0.197729
     21 C                     0.087115
     22 C                    -0.383959
     23 H                     0.233702
     24 C                    -0.153825
     25 B                     0.689754
     26 C                    -0.155054
     27 C                    -0.385533
     28 H                     0.237140
     29 C                     0.093195
     30 C                     0.205964
     31 C                    -0.377597
     32 H                     0.222344
     33 C                    -0.204247
     34 H                     0.226384
     35 C                    -0.333978
     36 H                     0.220379
     37 C                    -0.072406
     38 C                     0.249650
     39 C                    -0.331643
     40 H                     0.220156
     41 C                    -0.205420
     42 H                     0.226605
     43 C                    -0.371540
     44 H                     0.221907
     45 C                     0.198636
     46 C                     0.087990
     47 C                    -0.384809
     48 H                     0.234935
     49 C                    -0.153366
     50 B                     0.693325
     51 C                    -0.223158
     52 C                     0.060455
     53 C                    -0.343021
     54 H                     0.195923
     55 C                     0.130699
     56 C                    -0.337603
     57 H                     0.196204
     58 C                     0.060126
     59 C                    -0.709651
     60 H                     0.225797
     61 H                     0.230714
     62 H                     0.228745
     63 C                    -0.758052
     64 H                     0.233495
     65 H                     0.243393
     66 H                     0.243521
     67 C                    -0.757551
     68 H                     0.233360
     69 H                     0.243492
     70 H                     0.243321
     71 C                    -0.226807
     72 C                     0.063802
     73 C                    -0.345264
     74 H                     0.195791
     75 C                     0.130533
     76 C                    -0.339237
     77 H                     0.195881
     78 C                     0.064979
     79 C                    -0.709041
     80 H                     0.225636
     81 H                     0.227875
     82 H                     0.230911
     83 C                    -0.758213
     84 H                     0.233206
     85 H                     0.243773
     86 H                     0.243694
     87 C                    -0.760113
     88 H                     0.233644
     89 H                     0.244351
     90 H                     0.244161
  ----------------------------------------
  Sum of atomic charges =    -0.000000

 -----------------------------------------------------------------
                    Cartesian Multipole Moments
 -----------------------------------------------------------------
    Charge (ESU x 10^10)
                -0.0000
    Dipole Moment (Debye)
         X      -0.0540      Y      -0.0046      Z       0.0151
       Tot       0.0563
    Quadrupole Moments (Debye-Ang)
        XX    -261.2266     XY      -1.6654     YY    -303.1683
        XZ      -6.3114     YZ       1.7512     ZZ    -253.2365
    Octopole Moments (Debye-Ang^2)
       XXX     -25.7390    XXY      81.9040    XYY      -8.9172
       YYY     280.6434    XXZ     380.6975    XYZ       3.5246
       YYZ     440.5472    XZZ       8.0212    YZZ      75.5575
       ZZZ    1112.8550
    Hexadecapole Moments (Debye-Ang^3)
      XXXX  -19591.6407   XXXY     534.9258   XXYY   -4005.9309
      XYYY     662.6491   YYYY   -2216.0691   XXXZ    2483.8401
      XXYZ    -184.1742   XYYZ    1396.6337   YYYZ   -1004.3859
      XXZZ   -7777.2167   XYZZ      82.4607   YYZZ   -6304.5923
      XZZZ    1950.0991   YZZZ    -630.4992   ZZZZ  -28115.7208
 -----------------------------------------------------------------
Archival summary:
1\1\ctcp041\OPT\ProcedureUnspecified\BasisUnspecified\50238\mewes\ThuOct2522:46:532018ThuOct2522:46:532018\0\\#,OPT,ProcedureUnspecified,BasisUnspecified,\\0,1\C\C,1,1.40389\H,2,1.08419,1,119.27\C,2,1.37211,1,120.223,3,179.978,0\C,4,1.45108,2,132.221,1,179.787,0\C,5,1.37417,4,135.407,2,0.0561981,0\H,6,1.0823,5,121.796,4,0.0964941,0\C,6,1.41094,5,118.412,4,-179.904,0\H,8,1.08209,6,118.474,5,179.963,0\C,8,1.37735,6,122.687,5,-0.0579113,0\H,10,1.08297,8,119.815,6,-179.989,0\C,5,1.41165,4,106.18,2,-179.943,0\C,12,1.39148,5,124.349,4,179.927,0\C,12,1.41305,5,111.84,4,-0.081189,0\C,14,1.37588,12,118.772,5,-179.996,0\H,15,1.08264,14,121.773,12,-179.993,0\C,15,1.4096,14,118.409,12,-0.003358,0\H,17,1.08229,15,118.572,14,-179.98,0\C,17,1.37769,15,122.496,14,0.0190223,0\H,19,1.08302,17,119.719,15,179.994,0\C,14,1.44626,12,106.298,5,0.0474548,0\C,21,1.37568,14,131.581,12,179.911,0\H,22,1.08489,21,120.377,14,0.271503,0\C,22,1.40132,21,120.183,14,-179.61,0\B,1,1.53298,2,119.434,3,0.0926471,0\C,25,1.53314,1,118.999,2,179.082,0\C,26,1.40418,25,119.747,1,-179.514,0\H,27,1.08443,26,119.137,25,0.446144,0\C,27,1.37308,26,120.285,25,-179.378,0\C,29,1.44962,27,132.449,26,179.53,0\C,30,1.37449,29,135.327,27,0.0777216,0\H,31,1.08231,30,121.78,29,0.131068,0\C,31,1.4106,30,118.346,29,-179.816,0\H,33,1.08209,31,118.451,30,179.965,0\C,33,1.37764,31,122.717,30,-0.00910033,0\H,35,1.08289,33,119.795,31,179.979,0\C,30,1.41208,29,106.225,27,-179.763,0\C,37,1.39056,30,124.37,29,179.844,0\C,37,1.41428,30,111.775,29,-0.044248,0\C,39,1.3765,37,118.828,30,179.992,0\H,40,1.08259,39,121.777,37,179.942,0\C,40,1.40854,39,118.295,37,-0.0948137,0\H,42,1.08225,40,118.579,39,-179.952,0\C,42,1.37858,40,122.537,39,0.0380454,0\H,44,1.0829,42,119.661,40,-179.973,0\C,39,1.44322,37,106.408,30,0.099363,0\C,46,1.3772,39,131.559,37,179.718,0\H,47,1.08487,46,120.422,39,0.2492,0\C,47,1.39943,46,120.29,39,-179.722,0\B,24,1.5379,22,120.161,21,179.41,0\C,25,1.57189,1,120.159,2,-1.42742,0\C,51,1.39775,25,120.252,1,-89.1407,0\C,52,1.39102,51,119.85,25,179.793,0\H,53,1.08519,52,119.166,51,179.97,0\C,53,1.38761,52,121.505,51,-0.0661274,0\C,55,1.39072,53,118.198,52,-0.230114,0\H,56,1.08551,55,119.28,53,-179.698,0\C,56,1.3884,55,121.464,53,0.247345,0\C,55,1.50124,53,121.167,52,179.219,0\H,59,1.0896,55,111.576,53,8.98073,0\H,59,1.09086,55,111.572,53,129.397,0\H,59,1.09166,55,111.33,53,-110.994,0\C,58,1.50344,56,120.524,55,-179.748,0\H,63,1.0898,58,111.847,56,-0.267951,0\H,63,1.09224,58,111.451,56,-120.778,0\H,63,1.09241,58,111.368,56,120.181,0\C,52,1.5042,51,119.886,25,0.0250545,0\H,67,1.08992,52,111.808,51,-179.564,0\H,67,1.0923,52,111.548,51,-59.1364,0\H,67,1.0924,52,111.49,51,60.0738,0\C,50,1.57698,24,120.355,22,0.335009,0\C,71,1.39889,50,120.745,24,-89.3059,0\C,72,1.39163,71,120.071,50,178.957,0\H,73,1.08511,72,119.15,71,-179.893,0\C,73,1.3873,72,121.562,71,0.0215793,0\C,75,1.39005,73,118.028,72,-0.129064,0\H,76,1.08567,75,119.243,73,-179.798,0\C,76,1.38822,75,121.597,73,0.119377,0\C,75,1.50154,73,121.454,72,179.529,0\H,79,1.08949,75,111.647,73,5.22385,0\H,79,1.09116,75,111.509,73,125.603,0\H,79,1.09165,75,111.381,73,-114.892,0\C,72,1.50289,71,119.989,50,-0.572953,0\H,83,1.08989,72,111.751,71,-178.213,0\H,83,1.09195,72,111.534,71,-57.7751,0\H,83,1.09227,72,111.391,71,61.5001,0\C,78,1.50342,76,119.996,75,-179.561,0\H,87,1.08998,78,111.731,76,-1.64294,0\H,87,1.092,78,111.504,76,-122.072,0\H,87,1.09217,78,111.401,76,118.656,0\\\@

 Total job time:  54607.66s(wall), 323444.51s(cpu) 
 Thu Oct 25 22:46:53 2018

        *************************************************************
        *                                                           *
        *  Thank you very much for using Q-Chem.  Have a nice day.  *
        *                                                           *
        *************************************************************


0 sent ACK to 0 
now end server 0 ... 
