mFile = /cm/shared/apps/q-chem/intel/QCHEM_5.1.0_Trunk/bin/mpi/machines
Process 0 of 1 is on ctcp016 - thread support 0
initial socket setup ...start
initial socket setup ...done 
now start server 0 ... 
Q-Chem Developer Version!
                  Welcome to Q-Chem
     A Quantum Leap Into The Future Of Chemistry


 Q-Chem 5.1, Q-Chem, Inc., Pleasanton, CA (2018)

 Yihan Shao,  Zhengting Gan,  E. Epifanovsky,  A. T. B. Gilbert,  M. Wormit,  
 J. Kussmann,  A. W. Lange,  A. Behn,  Jia Deng,  Xintian Feng,  D. Ghosh,  
 M. Goldey,  P. R. Horn,  L. D. Jacobson,  I. Kaliman,  T. Kus,  A. Landau,  
 Jie Liu,  E. I. Proynov,  R. M. Richard,  R. P. Steele,  E. J. Sundstrom,  
 H. L. Woodcock III,  P. M. Zimmerman,  D. Zuev,  B. Albrecht,  E. Alguire,  
 S. A. Baeppler,  D. Barton,  Z. Benda,  Y. A. Bernard,  E. J. Berquist,  
 K. B. Bravaya,  H. Burton,  D. Casanova,  Chun-Min Chang,  Yunqing Chen,  
 A. Chien,  K. D. Closser,  M. P. Coons,  S. Coriani,  S. Dasgupta,  
 A. L. Dempwolff,  M. Diedenhofen,  Hainam Do,  R. G. Edgar,  Po-Tung Fang,  
 S. Faraji,  S. Fatehi,  Qingguo Feng,  K. D. Fenk,  J. Fosso-Tande,  
 Qinghui Ge,  A. Ghysels,  G. Gidofalvi,  J. Gomes,  J. Gonthier,  A. Gunina,  
 D. Hait,  M. W. D. Hanson-Heine,  P. H. P. Harbach,  A. W. Hauser,  
 J. E. Herr,  E. G. Hohenstein,  Z. C. Holden,  Kerwin Hui,  B. C. Huynh,  
 T.-C. Jagau,  Hyunjun Ji,  B. Kaduk,  K. Khistyaev,  Jaehoon Kim,  
 P. Klunzinger,  K. Koh,  D. Kosenkov,  L. Koulias,  T. Kowalczyk,  
 C. M. Krauter,  A. Kunitsa,  Ka Un Lao,  A. Laurent,  K. V. Lawler,  
 Joonho Lee,  D. Lefrancois,  S. Lehtola,  D. S. Levine,  Yi-Pei Li,  
 You-Sheng Lin,  Fenglai Liu,  E. Livshits,  A. Luenser,  P. Manohar,  
 E. Mansoor,  S. F. Manzer,  Shan-Ping Mao,  Yuezhi Mao,  N. Mardirossian,  
 A. V. Marenich,  T. Markovich,  L. A. Martinez-Martinez,  S. A. Maurer,  
 N. J. Mayhall,  S. C. McKenzie,  J.-M. Mewes,  A. F. Morrison,  
 J. W. Mullinax,  K. Nanda,  T. S. Nguyen-Beck,  R. Olivares-Amaya,  
 J. A. Parkhill,  T. M. Perrine,  F. Plasser,  P. Pokhilko,  S. Prager,  
 A. Prociuk,  E. Ramos,  D. R. Rehn,  F. Rob,  M. Schneider,  N. Sergueev,  
 S. M. Sharada,  S. Sharma,  D. W. Small,  T. Stauch,  T. Stein,  
 Yu-Chuan Su,  A. J. W. Thom,  A. Tkatchenko,  T. Tsuchimochi,  N. M. Tubman,  
 L. Vogt,  M. L. Vidal,  O. Vydrov,  M. A. Watson,  J. Wenzel,  
 M. de Wergifosse,  T. A. Wesolowski,  A. White,  J. Witte,  A. Yamada,  
 Jun Yang,  K. Yao,  S. Yeganeh,  S. R. Yost,  Zhi-Qiang You,  A. Zech,  
 Igor Ying Zhang,  Xing Zhang,  Yan Zhao,  Ying Zhu,  B. R. Brooks,  
 G. K. L. Chan,  C. J. Cramer,  M. S. Gordon,  W. J. Hehre,  A. Klamt,  
 M. W. Schmidt,  C. D. Sherrill,  D. G. Truhlar,  A. Aspuru-Guzik,  R. Baer,  
 A. T. Bell,  N. A. Besley,  Jeng-Da Chai,  A. E. DePrince, III,  
 R. A. DiStasio Jr.,  A. Dreuw,  B. D. Dunietz,  T. R. Furlani,  
 Chao-Ping Hsu,  Yousung Jung,  Jing Kong,  D. S. Lambrecht,  WanZhen Liang,  
 C. Ochsenfeld,  V. A. Rassolov,  L. V. Slipchenko,  J. E. Subotnik,  
 T. Van Voorhis,  J. M. Herbert,  A. I. Krylov,  P. M. W. Gill,  M. Head-Gordon

 Contributors to earlier versions of Q-Chem not listed above: 
 R. D. Adamson,  B. Austin,  J. Baker,  G. J. O. Beran,  K. Brandhorst,  
 S. T. Brown,  E. F. C. Byrd,  A. K. Chakraborty,  C.-L. Cheng,  
 Siu Hung Chien,  D. M. Chipman,  D. L. Crittenden,  H. Dachsel,  
 R. J. Doerksen,  A. D. Dutoi,  L. Fusti-Molnar,  W. A. Goddard III,  
 A. Golubeva-Zadorozhnaya,  S. R. Gwaltney,  G. Hawkins,  A. Heyden,  
 S. Hirata,  G. Kedziora,  F. J. Keil,  C. Kelley,  Jihan Kim,  R. A. King,  
 R. Z. Khaliullin,  P. P. Korambath,  W. Kurlancheek,  A. M. Lee,  M. S. Lee,  
 S. V. Levchenko,  Ching Yeh Lin,  D. Liotard,  R. C. Lochan,  I. Lotan,  
 P. E. Maslen,  N. Nair,  D. P. O'Neill,  D. Neuhauser,  E. Neuscamman,  
 C. M. Oana,  R. Olson,  B. Peters,  R. Peverati,  P. A. Pieniazek,  
 Y. M. Rhee,  J. Ritchie,  M. A. Rohrdanz,  E. Rosta,  N. J. Russ,  
 H. F. Schaefer III,  N. E. Schultz,  N. Shenvi,  A. C. Simmonett,  A. Sodt,  
 D. Stuck,  K. S. Thanthiriwatte,  V. Vanovschi,  Tao Wang,  A. Warshel,  
 C. F. Williams,  Q. Wu,  X. Xu,  W. Zhang

 Please cite Q-Chem as follows:
 Y. Shao et al., Mol. Phys. 113, 184-215 (2015)
 DOI: 10.1080/00268976.2014.952696

 Q-Chem 5.1.1 for Intel X86 EM64T Linux

 Parts of Q-Chem use Armadillo 8.300.2 (Tropical Shenanigans).
 http://arma.sourceforge.net/

 Q-Chem begins on Thu Nov  8 09:41:08 2018  

Host: ctcp016
0

     Scratch files written to /scratch/mewes1/140011/qchem192324//
 Parallel job on  1  processors
The previous job contains 0 fragments, simply inherited here
Symmetry turned off for PCM/SM12/SMD calculation
Input Ideriv = 2
Curr. Ideriv = -1
Max.  Ideriv = 2
Input Ideriv = 2
Curr. Ideriv = 2
Max.  Ideriv = 2

Checking the input file for inconsistencies... 	...done.

--------------------------------------------------------------
User input:
--------------------------------------------------------------
$rem
threads 4
jobtype	opt
method PBEh-3c
basis def2-mSVP
mem_static	1024
mem_total	4000
sym_ignore	true
scf_convergence	9
solvent_method	pcm
$end

$molecule
read gsopt.mol
$end

$solvent
dielectric	2.03 
$end

$pcm
theory iefpcm
$end
--------------------------------------------------------------
 Adding empirical dispersion correction 
 ----------------------------------------------------------------
 Doing -D3(BJ) with
 s6 =   1.00000
 s8 =   0.00000
 a1 =   0.48600
 a2 =   4.50000
 -D3 energy including 3body term =     -0.1341451627 hartrees
 ----------------------------------------------------------------
 Adding gCP correction 
 ----------------------------------------------------------------
 gCP energy =      0.1913108881 hartrees
 ----------------------------------------------------------------
             Standard Nuclear Orientation (Angstroms)
    I     Atom           X                Y                Z
 ----------------------------------------------------------------
    1      C       0.0000000000     0.0000000000     0.0000000000
    2      C       0.0000000000     0.0000000000     1.3949920000
    3      H       0.9420073259     0.0000000000     1.9321543489
    4      C      -1.1956782512    -0.0066795618     2.0829691793
    5      C      -2.4249550962    -0.0197691090     1.3880874605
    6      C      -2.4332641544    -0.0293183766     0.0044353601
    7      H      -3.3716297224    -0.0491323021    -0.5381391868
    8      C      -1.2264953248    -0.0205346402    -0.7052743258
    9      C      -1.4699970837    -0.0117238864     3.5173478739
   10      C      -0.7020871081    -0.0083669042     4.6524312521
   11      H       0.3802941274     0.0035058635     4.6116844494
   12      C      -2.8698282993    -0.0283117354     3.6446868066
   13      C      -3.5362162204    -0.0435209730     4.8652208571
   14      C      -3.5009236551    -0.0338480075     2.3855613685
   15      C      -4.8697305533    -0.0561267629     2.3513339918
   16      H      -5.4187619356    -0.0642657177     1.4181508893
   17      C      -1.3530274471    -0.0215685055     5.9080479042
   18      H      -0.7481382592    -0.0184758029     6.8055738855
   19      C      -2.7230212959    -0.0386417698     6.0246974272
   20      H      -3.1796323265    -0.0494226743     7.0068742024
   21      C      -4.9491849397    -0.0650944353     4.7990457466
   22      H      -5.5353658708    -0.0781726661     5.7097515026
   23      C      -5.5789964997    -0.0712488143     3.5769468171
   24      H      -6.6604229688    -0.0894468762     3.5453844340
   25      B       1.3514618285     0.0203776882    -0.7626050956
   26      C       1.3440044568     0.1027797666    -2.3147784568
   27      C       2.5538615712     0.1878199202    -3.0035678023
   28      H       3.4858425665     0.2119929916    -2.4494255639
   29      C       2.5598499126     0.2366956741    -4.3825789380
   30      C       1.3520603025     0.1787397584    -5.1118804625
   31      C       0.1480000739     0.0770492081    -4.4360112693
   32      H      -0.7856259213     0.0145555950    -4.9844247387
   33      C       0.1259332974     0.0526853890    -3.0356540243
   34      C       3.6698979897     0.3332820715    -5.3228138631
   35      C       5.0317579897     0.4177468540    -5.2037120023
   36      H       5.5232107982     0.4232974683    -4.2383848255
   37      C       3.0951865130     0.3317765834    -6.6055383377
   38      C       3.8302703578     0.4124006836    -7.7819148700
   39      C       1.6909831958     0.2390154927    -6.5382005929
   40      C       0.9891165534     0.2276436898    -7.7133875783
   41      H      -0.0911864902     0.1594010365    -7.7344378800
   42      C       5.8053914622     0.4997780627    -6.3843214126
   43      H       6.8819480356     0.5662213190    -6.2954023282
   44      C       5.2365795154     0.4983775447    -7.6364712012
   45      H       5.8685286583     0.5633951257    -8.5136365003
   46      C       3.0786871706     0.3985637851    -8.9804850539
   47      H       3.5812829521     0.4585689852    -9.9378927732
   48      C       1.7074567094     0.3089230061    -8.9308080370
   49      H       1.1498100537     0.3001870716    -9.8580148721
   50      B      -1.2262116125    -0.0566847344    -2.2653850849
   51      C      -2.5907833297    -0.2327109579    -3.0269466970
   52      C      -3.2487879491     0.8533501212    -3.6184501819
   53      C      -4.4748156511     0.6738516364    -4.2466944254
   54      H      -4.9641524050     1.5232268162    -4.7096686449
   55      C      -5.0866761927    -0.5740636164    -4.2800497715
   56      C      -4.4354331518    -1.6534604373    -3.6918204196
   57      H      -4.8977919632    -2.6335427269    -3.7088442359
   58      C      -3.1983559505    -1.4961790888    -3.0835209041
   59      N      -6.3387788949    -0.7431925149    -4.8980340907
   60      C      -7.3467196806     0.2214353629    -4.7346511110
   61      C      -8.1631807883     0.5777889209    -5.8071001076
   62      H      -8.0132465809     0.1114667248    -6.7723521748
   63      C      -9.1607760576     1.5236589476    -5.6403031384
   64      H      -9.7859690589     1.7881904873    -6.4831696774
   65      C      -9.3489608488     2.1434017993    -4.4136313419
   66      H     -10.1230552503     2.8885623966    -4.2892985969
   67      C      -8.5319045148     1.7958200578    -3.3478208919
   68      H      -8.6707764016     2.2652826948    -2.3824451499
   69      C      -7.5455236343     0.8362502577    -3.4990936570
   70      H      -6.9216257034     0.5621321887    -2.6580476109
   71      C      -6.5980749472    -1.9086726781    -5.6394194294
   72      C      -7.8039508489    -2.5907360063    -5.4913052299
   73      H      -8.5483229741    -2.2179570050    -4.7995549881
   74      C      -8.0489016890    -3.7412889774    -6.2225663376
   75      H      -8.9899785213    -4.2602468172    -6.0947401482
   76      C      -7.0933756709    -4.2401464687    -7.0953539280
   77      H      -7.2842790412    -5.1443924290    -7.6574275611
   78      C      -5.8890057350    -3.5662493395    -7.2383121126
   79      H      -5.1355796355    -3.9402781415    -7.9194479865
   80      C      -5.6437881525    -2.4044822618    -6.5267801973
   81      H      -4.7052894000    -1.8794021626    -6.6513190423
   82      C      -2.5016530168    -2.7144603850    -2.5329568311
   83      H      -3.2445316896    -3.4547448118    -2.2260051020
   84      H      -1.9438364030    -2.4608633443    -1.6275546258
   85      C      -2.6748445100     2.2454056937    -3.5390370700
   86      H      -2.9665627371     2.8125493952    -4.4265362892
   87      H      -1.5822787498     2.2102746103    -3.5542297727
   88      C      -3.1379379930     2.9929452036    -2.2902463531
   89      H      -2.8224258925     2.4816200722    -1.3804575070
   90      H      -2.7236453320     4.0012752397    -2.2624575610
   91      H      -4.2251036517     3.0765035067    -2.2638702626
   92      C      -1.5519978797    -3.3463533550    -3.5492099246
   93      H      -0.7693654163    -2.6495743195    -3.8500559988
   94      H      -2.0875783905    -3.6524999099    -4.4482866187
   95      H      -1.0654041487    -4.2285129046    -3.1312987600
   96      C       2.7100119945    -0.0752640666     0.0248544652
   97      C       3.4605870279     1.0649266195     0.3400796112
   98      C       4.6581976410     0.9487734909     1.0331244509
   99      H       5.2188299710     1.8424794936     1.2841608639
  100      C       5.1508370278    -0.2957205138     1.4071067837
  101      C       4.4093239165    -1.4291964474     1.0931491367
  102      H       4.7842064613    -2.4083188877     1.3698446003
  103      C       3.1995856828    -1.3272809842     0.4217900951
  104      N       6.3757617254    -0.4077202102     2.0899262881
  105      C       7.4658204034     0.4049427681     1.7381780303
  106      C       7.7633190077     0.6621992986     0.4004517366
  107      H       7.1482544380     0.2291006316    -0.3774136213
  108      C       8.8392157256     1.4674909583     0.0657101240
  109      H       9.0546614366     1.6576666728    -0.9778174602
  110      C       9.6489627622     2.0122000170     1.0515209409
  111      H      10.4931624756     2.6341353652     0.7858625900
  112      C       9.3616626108     1.7488070849     2.3827864699
  113      H       9.9792434557     2.1715031741     3.1647785902
  114      C       8.2758850578     0.9620428359     2.7276759520
  115      H       8.0542575203     0.7749288956     3.7704704677
  116      C       6.5215179376    -1.3518098624     3.1200184704
  117      C       5.5164337126    -1.5249558046     4.0700590494
  118      H       4.6190132855    -0.9227598930     4.0142703619
  119      C       5.6627427846    -2.4630432957     5.0781559318
  120      H       4.8720921382    -2.5869040610     5.8068093647
  121      C       6.8172722730    -3.2266452673     5.1702915261
  122      H       6.9314055876    -3.9529751764     5.9637235929
  123      C       7.8236534151    -3.0473094699     4.2327909619
  124      H       8.7279146139    -3.6395890249     4.2877238122
  125      C       7.6768045441    -2.1269343820     3.2086342085
  126      H       8.4620194028    -2.0053857018     2.4736090638
  127      C       2.4791594447    -2.5980900941     0.0526199056
  128      H       2.5576799480    -3.3154778700     0.8737041582
  129      H       1.4094662535    -2.4082560848    -0.0726716873
  130      C       2.9585147189     2.4479377251     0.0138981608
  131      H       3.7948298737     3.0741805776    -0.3082957053
  132      H       2.2680158675     2.4167941866    -0.8336952229
  133      C       3.0382953074    -3.2244722770    -1.2228860839
  134      H       2.9539482841    -2.5406181519    -2.0676561799
  135      H       2.5019282350    -4.1385984936    -1.4794559051
  136      H       4.0930314486    -3.4766828873    -1.1063217834
  137      C       2.2679307767     3.1058052041     1.2065255076
  138      H       1.4044598470     2.5250984968     1.5313304371
  139      H       1.9186925447     4.1074134538     0.9540923697
  140      H       2.9480362613     3.1921864850     2.0546645942
 ----------------------------------------------------------------
 Nuclear Repulsion Energy = 12111.0392736939 hartrees
 There are      270 alpha and      270 beta electrons
 Requested basis set is def2-mSVP
 There are 680 shells and 1320 basis functions

 Total QAlloc Memory Limit   4000 MB
 Mega-Array Size      1001 MB
 MEM_STATIC part      1024 MB
 Discretize the solute cavity surface with Lebedev spheres
	Using 302 Lebedev grid points for each H atom
	Using 302 Lebedev grid points for other atoms
	Atomic van der Waals radii will be scaled by 1.20
 Remove points where switching function is < 1.0e-08
 Keep 14635 surface tesserae and discard 27645 interior tesserae
 Molecular Surface Area = 1080.358 Angst**2
 A cutoff of  1.0D-12 yielded  67676 shell pairs
 There are    263236 function pairs (    289477 Cartesian)
 
 -------------------------------------------------------
 OpenMP Integral Computing Module                       
 Release: version 1.0, May 2013, Q-Chem Inc. Pittsburgh 
 -------------------------------------------------------
 Integral Job Info:
 Integral job number is                      11
 Integral operator is                         1
 short-range coefficients                     0
 long-range coefficients              100000000
 Omega coefficients                           0
 if combine SR and LR in K                    0
 Integral screening is                        0
 Integral computing path is                   2
 max size of driver memory is            800000
 size of driver memory is                593474
 size of scratch memory is              1809772
 max col of scratch BK array               1296
 max len of scratch array in speh3          155
 max len of scratch index in speh4           18
 max int batch size is                      520
 min int batch size is                       52
 fixed nKL is                                52
 max L of basis functions is                  2
 order of int derivative is                   0
 number of shells is                        680
 number of basis is                        1400
 number of cartesian basis is              1400
 number of contracted shell pairs         67676
 number of primitive shell pairs         140077
 maxK2 (contraction) of shell pair           25
 max number of K2 of shell pair               1
 max number of CS2 of shell pair          16548
 max number of PS2 of shell pair          24665
 mem total for path MDJ                 1178444
 -------------------------------------------------------
 Smallest overlap matrix eigenvalue = 1.94E-04

 Scale SEOQF with 1.000000e-02/1.000000e-01/1.000000e-02

 Standard Electronic Orientation quadrupole field applied
 Nucleus-field energy     =     0.0000000534 hartrees
 Guess from superposition of atomic densities
 Warning:  Energy on first SCF cycle will be non-variational
 SAD guess density has 540.000001 electrons

 -----------------------------------------------------------------------
  General SCF calculation program by
  Eric Jon Sundstrom, Paul Horn, Yuezhi Mao, Dmitri Zuev, Alec White,
  David Stuck, Shaama M.S., Shane Yost, Joonho Lee, David Small,
  Daniel Levine, Susi Lehtola, Hugh Burton, Evgeny Epifanovsky
 -----------------------------------------------------------------------
 Exchange:     0.4200 Hartree-Fock + 0.5800 PBEh-3c
 Correlation:  1.0000 PBEh-3c
 Using SG-1 standard quadrature grid
 Dispersion:   Grimme D3
 using 4 threads for integral computing
 -------------------------------------------------------
 OpenMP Integral computing Module                
 Release: version 2.0, May 2017, Q-Chem Inc. Pleasanton 
 -------------------------------------------------------
 -------------------------------------------------------
 OpenMP BLAS3 based DFT computing Module                
 Release: version 1.0, May 2013, Q-Chem Inc. Pittsburgh 
 -------------------------------------------------------
 A restricted SCF calculation will be
 performed using DIIS
 SCF converges when DIIS error is below 1.0e-09
 ---------------------------------------
  Cycle       Energy         DIIS error
 ---------------------------------------
 Using non-symmetric K matrix
    1   -3111.2565825740      2.35e-02  
    2   -3084.1462928046      1.60e-03  
    3   -3084.3404483840      1.42e-03  
    4   -3084.7385756527      4.91e-04  
    5   -3084.7911397848      1.60e-04  
    6   -3084.7969063449      4.70e-05  
    7   -3084.7973693650      1.42e-05  
    8   -3084.7974139610      4.60e-06  
    9   -3084.7974190168      1.29e-06  
   10   -3084.7974194519      4.21e-07  
   11   -3084.7974195107      1.54e-07  
   12   -3084.7974195184      6.08e-08  
   13   -3084.7974195197      1.94e-08  
   14   -3084.7974195197      7.72e-09  
   15   -3084.7974195198      4.08e-09  
   16   -3084.7974195198      1.25e-09  
   17   -3084.7974195198      4.90e-10  Convergence criterion met
 ---------------------------------------
 SCF time:   CPU 26506.74s  wall 6861.00s 

************** Final PCM Free Energy Summary **************
 G_electrostatic  =      -0.01473937 hartree =      -9.24909425 kcal/mol
 G_cavitation     =       0.00000000 hartree =       0.00000000 kcal/mol
 G_dispersion     =       0.00000000 hartree =       0.00000000 kcal/mol
 G_repulsion      =       0.00000000 hartree =       0.00000000 kcal/mol
 --------------------------------------------------
 Non-electrostatic Free Energy =       0.00000000 hartree =       0.00000000 kcal/mol
 Total                         =      -0.01473937 hartree =      -9.24909425 kcal/mol
 --------------------------------------------------
 SCF Energy (H0 + V/2)                       =   -3084.79741952 
 Solute Internal Energy (H0)                 =   -3084.78268015 
 Total Free Energy (H0 + V/2 + non-elec)     =   -3084.79741952 hartree
                                             = -1935739.59686507 kcal/mol
***********************************************************

 SCF   energy in the final basis set =    -3084.7974195198
 Total energy in the final basis set =    -3084.7974195198
 
 --------------------------------------------------------------
 
                    Orbital Energies (a.u.)
 --------------------------------------------------------------
 
 Alpha MOs
 -- Occupied --
-14.669 -14.669 -10.490 -10.490 -10.490 -10.489 -10.484 -10.484
-10.464 -10.464 -10.464 -10.463 -10.463 -10.463 -10.463 -10.463
-10.461 -10.461 -10.461 -10.461 -10.461 -10.460 -10.460 -10.460
-10.459 -10.459 -10.458 -10.458 -10.458 -10.458 -10.454 -10.453
-10.452 -10.451 -10.450 -10.450 -10.449 -10.449 -10.448 -10.448
-10.447 -10.447 -10.447 -10.447 -10.447 -10.447 -10.446 -10.446
-10.444 -10.444 -10.444 -10.444 -10.444 -10.444 -10.444 -10.444
-10.442 -10.442 -10.442 -10.442 -10.435 -10.434 -10.434 -10.434
-10.434 -10.433 -10.433 -10.433 -10.433 -10.432 -10.432 -10.432
-10.421 -10.420 -10.419 -10.419 -10.418 -10.418  -6.950  -6.948
 -1.079  -1.079  -1.016  -1.015  -0.964  -0.961  -0.960  -0.960
 -0.959  -0.959  -0.940  -0.940  -0.933  -0.932  -0.908  -0.900
 -0.888  -0.887  -0.868  -0.866  -0.854  -0.854  -0.851  -0.851
 -0.846  -0.846  -0.840  -0.840  -0.837  -0.837  -0.824  -0.822
 -0.819  -0.813  -0.812  -0.804  -0.799  -0.798  -0.791  -0.790
 -0.734  -0.730  -0.726  -0.720  -0.717  -0.716  -0.710  -0.710
 -0.698  -0.698  -0.698  -0.697  -0.688  -0.681  -0.681  -0.680
 -0.679  -0.673  -0.667  -0.665  -0.649  -0.647  -0.638  -0.636
 -0.630  -0.630  -0.605  -0.605  -0.594  -0.594  -0.591  -0.588
 -0.586  -0.585  -0.583  -0.574  -0.573  -0.562  -0.561  -0.554
 -0.553  -0.543  -0.543  -0.542  -0.541  -0.537  -0.527  -0.524
 -0.523  -0.523  -0.516  -0.511  -0.510  -0.507  -0.502  -0.501
 -0.501  -0.499  -0.497  -0.496  -0.496  -0.496  -0.494  -0.489
 -0.488  -0.487  -0.485  -0.484  -0.484  -0.483  -0.483  -0.482
 -0.481  -0.481  -0.477  -0.477  -0.475  -0.467  -0.466  -0.465
 -0.462  -0.455  -0.453  -0.451  -0.442  -0.439  -0.435  -0.435
 -0.434  -0.433  -0.431  -0.428  -0.427  -0.426  -0.425  -0.425
 -0.423  -0.421  -0.420  -0.417  -0.412  -0.412  -0.406  -0.405
 -0.404  -0.402  -0.398  -0.397  -0.397  -0.397  -0.396  -0.395
 -0.394  -0.393  -0.392  -0.391  -0.390  -0.388  -0.387  -0.384
 -0.378  -0.370  -0.367  -0.364  -0.356  -0.355  -0.352  -0.350
 -0.342  -0.340  -0.318  -0.312  -0.304  -0.304  -0.299  -0.299
 -0.296  -0.295  -0.295  -0.294  -0.286  -0.284  -0.280  -0.274
 -0.273  -0.261  -0.257  -0.255  -0.220  -0.220
 -- Virtual --
 -0.091  -0.058  -0.036  -0.029  -0.004   0.004   0.005   0.006
  0.007   0.007   0.009   0.010   0.017   0.028   0.028   0.031
  0.033   0.046   0.057   0.058   0.070   0.083   0.087   0.092
  0.119   0.124   0.142   0.143   0.146   0.148   0.149   0.151
  0.155   0.159   0.162   0.163   0.164   0.167   0.168   0.170
  0.171   0.174   0.180   0.184   0.184   0.186   0.187   0.193
  0.194   0.197   0.197   0.199   0.202   0.203   0.204   0.205
  0.205   0.206   0.207   0.208   0.208   0.212   0.213   0.214
  0.214   0.215   0.216   0.217   0.218   0.220   0.221   0.221
  0.221   0.225   0.225   0.229   0.231   0.233   0.235   0.237
  0.238   0.238   0.239   0.239   0.240   0.241   0.241   0.242
  0.246   0.247   0.251   0.252   0.253   0.254   0.254   0.254
  0.255   0.256   0.263   0.268   0.269   0.270   0.272   0.276
  0.279   0.281   0.284   0.284   0.288   0.290   0.292   0.296
  0.297   0.298   0.300   0.301   0.303   0.307   0.311   0.311
  0.314   0.315   0.316   0.319   0.321   0.322   0.325   0.326
  0.329   0.330   0.333   0.335   0.336   0.336   0.338   0.347
  0.349   0.350   0.355   0.360   0.362   0.365   0.368   0.373
  0.375   0.382   0.387   0.390   0.395   0.399   0.401   0.403
  0.408   0.415   0.417   0.420   0.427   0.429   0.434   0.440
  0.445   0.446   0.449   0.452   0.455   0.458   0.460   0.461
  0.466   0.467   0.468   0.472   0.477   0.484   0.485   0.492
  0.495   0.497   0.499   0.502   0.503   0.510   0.513   0.516
  0.519   0.520   0.522   0.524   0.525   0.528   0.529   0.529
  0.533   0.534   0.536   0.538   0.538   0.540   0.541   0.542
  0.543   0.547   0.549   0.549   0.553   0.554   0.559   0.559
  0.560   0.562   0.563   0.565   0.566   0.567   0.570   0.571
  0.574   0.576   0.578   0.579   0.581   0.583   0.585   0.588
  0.589   0.591   0.592   0.593   0.594   0.595   0.596   0.597
  0.598   0.599   0.600   0.602   0.603   0.605   0.605   0.607
  0.608   0.613   0.614   0.615   0.619   0.619   0.619   0.620
  0.620   0.621   0.622   0.623   0.626   0.626   0.627   0.628
  0.629   0.630   0.631   0.631   0.633   0.633   0.638   0.643
  0.645   0.648   0.649   0.651   0.652   0.653   0.654   0.654
  0.655   0.656   0.656   0.657   0.658   0.660   0.662   0.665
  0.668   0.670   0.673   0.673   0.675   0.677   0.680   0.684
  0.686   0.688   0.691   0.692   0.693   0.695   0.696   0.698
  0.699   0.702   0.705   0.706   0.708   0.711   0.713   0.714
  0.715   0.719   0.720   0.723   0.724   0.730   0.734   0.737
  0.740   0.740   0.744   0.748   0.752   0.757   0.757   0.761
  0.763   0.764   0.769   0.771   0.775   0.777   0.779   0.783
  0.785   0.791   0.795   0.797   0.802   0.803   0.804   0.806
  0.808   0.809   0.813   0.815   0.822   0.824   0.830   0.833
  0.837   0.838   0.841   0.845   0.849   0.856   0.860   0.862
  0.865   0.868   0.872   0.881   0.888   0.894   0.897   0.903
  0.905   0.910   0.914   0.915   0.919   0.919   0.922   0.929
  0.931   0.936   0.938   0.942   0.948   0.950   0.950   0.952
  0.953   0.953   0.955   0.955   0.957   0.959   0.961   0.962
  0.962   0.963   0.965   0.968   0.970   0.971   0.973   0.975
  0.981   0.986   0.989   0.989   0.990   0.990   0.991   0.993
  0.995   0.995   1.002   1.005   1.008   1.010   1.011   1.012
  1.012   1.015   1.020   1.022   1.024   1.025   1.029   1.032
  1.033   1.038   1.040   1.042   1.044   1.046   1.047   1.048
  1.049   1.052   1.053   1.055   1.056   1.057   1.059   1.063
  1.067   1.068   1.069   1.073   1.074   1.076   1.078   1.080
  1.081   1.085   1.086   1.088   1.089   1.090   1.092   1.094
  1.100   1.103   1.105   1.107   1.108   1.115   1.115   1.124
  1.126   1.130   1.131   1.133   1.138   1.144   1.147   1.152
  1.153   1.153   1.155   1.157   1.160   1.162   1.166   1.167
  1.170   1.173   1.175   1.183   1.184   1.189   1.192   1.193
  1.198   1.199   1.202   1.203   1.207   1.210   1.216   1.220
  1.221   1.223   1.228   1.232   1.239   1.245   1.253   1.258
  1.261   1.263   1.264   1.265   1.266   1.272   1.274   1.275
  1.280   1.286   1.286   1.290   1.292   1.295   1.300   1.300
  1.302   1.307   1.311   1.313   1.316   1.318   1.320   1.321
  1.324   1.326   1.329   1.332   1.337   1.342   1.344   1.348
  1.349   1.352   1.359   1.362   1.366   1.370   1.371   1.374
  1.376   1.377   1.380   1.384   1.392   1.395   1.403   1.409
  1.410   1.413   1.414   1.415   1.422   1.429   1.442   1.442
  1.443   1.445   1.452   1.454   1.458   1.469   1.471   1.472
  1.480   1.481   1.482   1.493   1.498   1.507   1.509   1.510
  1.511   1.512   1.512   1.513   1.519   1.519   1.519   1.527
  1.530   1.532   1.533   1.533   1.539   1.543   1.546   1.548
  1.549   1.550   1.551   1.552   1.557   1.559   1.559   1.561
  1.565   1.567   1.570   1.571   1.572   1.572   1.575   1.580
  1.583   1.586   1.588   1.595   1.599   1.600   1.603   1.605
  1.606   1.616   1.619   1.626   1.629   1.638   1.641   1.649
  1.656   1.659   1.671   1.678   1.690   1.697   1.716   1.719
  1.739   1.742   1.745   1.746   1.747   1.754   1.759   1.762
  1.772   1.775   1.777   1.785   1.786   1.789   1.792   1.799
  1.806   1.809   1.810   1.811   1.811   1.813   1.818   1.818
  1.819   1.822   1.830   1.830   1.838   1.848   1.854   1.856
  1.861   1.866   1.867   1.872   1.876   1.883   1.894   1.895
  1.895   1.897   1.901   1.907   1.908   1.919   1.919   1.925
  1.929   1.932   1.934   1.940   1.941   1.943   1.944   1.945
  1.947   1.970   1.978   1.981   1.982   1.983   1.986   1.989
  1.991   1.993   1.998   2.003   2.008   2.019   2.020   2.021
  2.024   2.024   2.031   2.034   2.035   2.036   2.036   2.047
  2.061   2.064   2.066   2.067   2.072   2.074   2.074   2.075
  2.077   2.078   2.080   2.085   2.089   2.098   2.103   2.105
  2.113   2.114   2.120   2.131   2.131   2.139   2.142   2.146
  2.147   2.150   2.154   2.155   2.158   2.160   2.162   2.166
  2.170   2.179   2.180   2.189   2.193   2.193   2.199   2.201
  2.203   2.205   2.206   2.207   2.207   2.211   2.212   2.216
  2.220   2.224   2.224   2.232   2.233   2.234   2.236   2.250
  2.251   2.255   2.257   2.257   2.261   2.263   2.265   2.267
  2.268   2.277   2.281   2.282   2.287   2.291   2.291   2.293
  2.304   2.314   2.315   2.317   2.320   2.320   2.323   2.323
  2.335   2.336   2.338   2.342   2.345   2.346   2.347   2.351
  2.352   2.357   2.359   2.362   2.365   2.366   2.369   2.372
  2.373   2.374   2.383   2.386   2.389   2.390   2.390   2.392
  2.392   2.395   2.402   2.405   2.410   2.412   2.413   2.417
  2.417   2.421   2.423   2.433   2.436   2.438   2.444   2.450
  2.456   2.461   2.471   2.474   2.477   2.479   2.481   2.489
  2.491   2.494   2.496   2.500   2.503   2.506   2.510   2.511
  2.522   2.526   2.530   2.550   2.561   2.570   2.573   2.591
  2.610   2.614   2.616   2.627   2.633   2.638   2.642   2.644
  2.646   2.648   2.650   2.658   2.660   2.668   2.677   2.681
  2.685   2.688   2.689   2.690   2.693   2.696   2.713   2.714
  2.724   2.727   2.730   2.733   2.737   2.738   2.738   2.739
  2.739   2.753   2.757   2.758   2.759   2.761   2.765   2.767
  2.780   2.784   2.787   2.788   2.789   2.790   2.791   2.793
  2.794   2.794   2.806   2.809   2.811   2.813   2.814   2.814
  2.817   2.824   2.825   2.826   2.829   2.829   2.842   2.849
  2.852   2.857   2.858   2.862   2.872   2.881   2.889   2.902
  2.904   2.907   2.910   2.915   2.925   2.926   2.929   2.930
  2.942   2.945   2.960   2.980   2.992   3.006   3.007   3.010
  3.012   3.019   3.031   3.037   3.037   3.045   3.082   3.084
  3.085   3.105   3.113   3.148   3.153   3.238   3.256   3.259
  3.316   3.318   3.342   3.344   3.406   3.445   3.450   3.484
  3.486   3.493   3.496   3.498   3.513   3.514   3.550   3.558
  3.670   3.684   9.581   9.734  13.143  13.178  13.246  13.247
 13.280  13.280  13.436  13.496  13.512  13.516  13.528  13.550
 13.672  13.673  13.673  13.680  13.686  13.690  13.711  13.711
 13.715  13.716  13.729  13.762  13.770  13.795  13.804  13.808
 13.862  13.874  13.894  13.911  13.921  13.989  14.000  14.023
 14.036  14.039  14.044  14.046  14.050  14.055  14.153  14.154
 14.155  14.156  14.159  14.164  14.165  14.181  14.184  14.184
 14.185  14.202  14.227  14.240  14.246  14.278  14.289  14.294
 14.311  14.316  14.348  14.348  14.515  14.519  14.571  14.580
 14.584  14.585  14.586  14.587  14.587  14.588  14.604  14.612
 19.689  19.689
 --------------------------------------------------------------
 
          Ground-State Mulliken Net Atomic Charges

     Atom                 Charge (a.u.)
  ----------------------------------------
      1 C                    -0.153583
      2 C                    -0.388522
      3 H                     0.239349
      4 C                     0.081785
      5 C                     0.105752
      6 C                    -0.394864
      7 H                     0.240987
      8 C                    -0.152908
      9 C                     0.190103
     10 C                    -0.384875
     11 H                     0.231679
     12 C                    -0.066068
     13 C                     0.241350
     14 C                     0.191200
     15 C                    -0.392511
     16 H                     0.232245
     17 C                    -0.217410
     18 H                     0.239762
     19 C                    -0.339623
     20 H                     0.234707
     21 C                    -0.343790
     22 H                     0.235035
     23 C                    -0.215024
     24 H                     0.239547
     25 B                     0.660569
     26 C                    -0.153683
     27 C                    -0.386790
     28 H                     0.238199
     29 C                     0.080265
     30 C                     0.107735
     31 C                    -0.399459
     32 H                     0.238777
     33 C                    -0.151623
     34 C                     0.189887
     35 C                    -0.382830
     36 H                     0.231295
     37 C                    -0.065285
     38 C                     0.242627
     39 C                     0.190304
     40 C                    -0.392606
     41 H                     0.233261
     42 C                    -0.217844
     43 H                     0.239569
     44 C                    -0.339945
     45 H                     0.234744
     46 C                    -0.344415
     47 H                     0.235119
     48 C                    -0.215094
     49 H                     0.239807
     50 B                     0.660048
     51 C                    -0.221839
     52 C                     0.076035
     53 C                    -0.361096
     54 H                     0.240987
     55 C                     0.310188
     56 C                    -0.369021
     57 H                     0.241776
     58 C                     0.069685
     59 N                    -0.674269
     60 C                     0.294816
     61 C                    -0.287030
     62 H                     0.252531
     63 C                    -0.226466
     64 H                     0.232866
     65 C                    -0.250344
     66 H                     0.229951
     67 C                    -0.226141
     68 H                     0.231814
     69 C                    -0.285491
     70 H                     0.249406
     71 C                     0.286479
     72 C                    -0.284084
     73 H                     0.252085
     74 C                    -0.227405
     75 H                     0.233093
     76 C                    -0.248968
     77 H                     0.230482
     78 C                    -0.226833
     79 H                     0.232785
     80 C                    -0.280949
     81 H                     0.250771
     82 C                    -0.553724
     83 H                     0.237090
     84 H                     0.257142
     85 C                    -0.550128
     86 H                     0.235437
     87 H                     0.252507
     88 C                    -0.651611
     89 H                     0.239781
     90 H                     0.223936
     91 H                     0.219339
     92 C                    -0.650619
     93 H                     0.241357
     94 H                     0.220319
     95 H                     0.221892
     96 C                    -0.233149
     97 C                     0.076513
     98 C                    -0.360937
     99 H                     0.240486
    100 C                     0.315246
    101 C                    -0.364282
    102 H                     0.241052
    103 C                     0.070067
    104 N                    -0.674926
    105 C                     0.292128
    106 C                    -0.283268
    107 H                     0.248562
    108 C                    -0.225917
    109 H                     0.230699
    110 C                    -0.250261
    111 H                     0.230169
    112 C                    -0.225747
    113 H                     0.233058
    114 C                    -0.286778
    115 H                     0.253020
    116 C                     0.287170
    117 C                    -0.280200
    118 H                     0.248762
    119 C                    -0.226670
    120 H                     0.231671
    121 C                    -0.249235
    122 H                     0.230417
    123 C                    -0.226482
    124 H                     0.233208
    125 C                    -0.284671
    126 H                     0.252774
    127 C                    -0.557280
    128 H                     0.238813
    129 H                     0.257637
    130 C                    -0.550775
    131 H                     0.236695
    132 H                     0.253040
    133 C                    -0.647950
    134 H                     0.239799
    135 H                     0.222180
    136 H                     0.218880
    137 C                    -0.647308
    138 H                     0.235570
    139 H                     0.223990
    140 H                     0.218745
  ----------------------------------------
  Sum of atomic charges =    -0.000000

 -----------------------------------------------------------------
                    Cartesian Multipole Moments
 -----------------------------------------------------------------
    Charge (ESU x 10^10)
                -0.0000
    Dipole Moment (Debye)
         X       0.1569      Y      -0.0097      Z       0.0565
       Tot       0.1670
    Quadrupole Moments (Debye-Ang)
        XX    -413.9934     XY       2.6493     YY    -459.4639
        XZ     -13.3862     YZ      -2.0553     ZZ    -401.1897
    Octopole Moments (Debye-Ang^2)
       XXX     -63.3302    XXY     181.5723    XYY     -51.0265
       YYY     298.9435    XXZ     585.4589    XYZ     -60.1603
       YYZ     648.4850    XZZ      28.1298    YZZ      57.5154
       ZZZ    1756.8544
    Hexadecapole Moments (Debye-Ang^3)
      XXXX  -66586.6706   XXXY    -684.6833   XXYY  -12536.1243
      XYYY    -862.1473   YYYY   -7987.8041   XXXZ   -9351.7748
      XXYZ    -417.3649   XYYZ   -2197.0319   YYYZ    -349.9286
      XXZZ  -18576.1286   XYZZ    -124.3601   YYZZ   -9835.6922
      XZZZ  -10126.4703   YZZZ    -606.0695   ZZZZ  -45032.6956
 -----------------------------------------------------------------
 Calculating analytic gradient of the SCF energy
 -1.332772649732543E-003 -1.332731660812422E-003
 -1.332751374152712E-003 -1.332753044288510E-003
 -1.332762163932310E-003 -1.332742131492491E-003
 -1.332754978124903E-003 -1.332749321815402E-003
 -1.332748918244596E-003 -1.332755513837589E-003
 -1.332732219148966E-003 -1.332772088159364E-003
 -1.332776291701490E-003 -1.332728011723022E-003
 -1.332752638477601E-003 -1.332751739963487E-003
 -1.332754313988872E-003 -1.332750000679181E-003
 -1.332782022949824E-003 -1.332722288683174E-003
 -1.332751397499717E-003 -1.332753029547976E-003
 -1.332738027520023E-003 -1.332766270002294E-003
 -1.332748203816422E-003 -1.332756092439294E-003
 -1.332751878446796E-003 -1.332752546422418E-003
 -1.332716939622117E-003 -1.332787376083386E-003
 -1.332766310943240E-003 -1.332738009602059E-003
 -1.332752938176345E-003 -1.332751493924774E-003
 -1.332741641406935E-003 -1.332762647033005E-003
 -1.332738201128160E-003 -1.332766116994840E-003
 -1.332753657628277E-003 -1.332750721728971E-003
 -1.332730702990044E-003 -1.332773602400207E-003
 -1.332733357034595E-003 -1.332770952251736E-003
 -1.332752833675003E-003 -1.332751582118063E-003
 -1.332736770372884E-003 -1.332767524413000E-003
 -1.332767606297590E-003 -1.332736678750208E-003
 -1.332750276416439E-003 -1.332754147657999E-003
 -1.332740708867322E-003 -1.332763604876227E-003
 -1.332789096515757E-003 -1.332715222020722E-003
 -1.332751464022842E-003 -1.332752959093949E-003
 -1.332731760410857E-003 -1.332772529213228E-003
 -1.332764935513647E-003 -1.332739374629322E-003
 -1.332757649935922E-003 -1.332746701005482E-003
 -1.332744829227621E-003 -1.332759465594528E-003
 -1.332763734735718E-003 -1.332740586671549E-003
 -1.332751235926674E-003 -1.332753193603479E-003
 -1.332731179497779E-003 -1.332773136038695E-003
 -1.332736447700421E-003 -1.332767839578286E-003
 -1.332751738483448E-003 -1.332752659839216E-003
 -1.332782059694451E-003 -1.332722252581378E-003
 -1.332753464439670E-003 -1.332750829014767E-003
 -1.332751735002192E-003 -1.332752689205249E-003
 -1.332731946857169E-003 -1.332772357923303E-003
 -1.332750356004962E-003 -1.332753945485373E-003
 -1.332750335148859E-003 -1.332754090528234E-003
 -1.332710974599989E-003 -1.332793338815966E-003
 -1.332752010746508E-003 -1.332752286671101E-003
 -1.332750817899908E-003 -1.332753535281102E-003
 -1.332737687953803E-003 -1.332766625683509E-003
 -1.332749772306843E-003 -1.332754491653541E-003
 -1.332752098397458E-003 -1.332752303649958E-003
 -1.332778747959853E-003 -1.332725573635662E-003
 -1.332760844583293E-003 -1.332743424307876E-003
 -1.332754150155579E-003 -1.332750181545716E-003
 -1.332742149512307E-003 -1.332762150436121E-003
 -1.332759439359061E-003 -1.332744878930322E-003
 -1.332751933949710E-003 -1.332752475233171E-003
 -1.332726496817823E-003 -1.332777774208684E-003
 -1.332742077580157E-003 -1.332762252886520E-003
 -1.332751686816452E-003 -1.332752674962000E-003
 -1.332769939556176E-003 -1.332734327724007E-003
 -1.332769049859178E-003 -1.332735234298224E-003
 -1.332752626487550E-003 -1.332751783591047E-003
 -1.332731961584435E-003 -1.332772338843112E-003
 -1.332742781860669E-003 -1.332761527285204E-003
 -1.332751898208624E-003 -1.332752463560944E-003
 -1.332770717332583E-003 -1.332733569126013E-003
 -1.332730597480699E-003 -1.332773684136354E-003
 -1.332751005486169E-003 -1.332753397453874E-003
 -1.332767893431470E-003 -1.332736414615311E-003
 -1.332756102361063E-003 -1.332748179542882E-003
 -1.332751134708808E-003 -1.332753197464842E-003
 -1.332739302276048E-003 -1.332764987494394E-003
 -1.332745762517413E-003 -1.332758548019462E-003
 -1.332753160918079E-003 -1.332751222030311E-003
 -1.332745267835854E-003 -1.332759039856039E-003
 -1.332769213033486E-003 -1.332735093087629E-003
 -1.332757002055525E-003 -1.332747414885870E-003
 -1.332768682642954E-003 -1.332735614399680E-003
 -1.332739827569954E-003 -1.332764492020922E-003
 -1.332751644319004E-003 -1.332752788510854E-003
 -1.332763933965287E-003 -1.332740353699636E-003
 -1.332763659843457E-003 -1.332740656723077E-003
 -1.332748189046408E-003 -1.332756189995657E-003
 -1.332772777650679E-003 -1.332731526956399E-003
 -1.332753153983403E-003 -1.332751139932512E-003
 -1.332751490128110E-003 -1.332752935063637E-003
 -1.332787686240250E-003 -1.332716626856727E-003
 -1.332724331109771E-003 -1.332779985621053E-003
 -1.332748789949669E-003 -1.332755633708480E-003
 -1.332767500449105E-003 -1.332736799348920E-003
 -1.332747613568081E-003 -1.332756688549137E-003
 -1.332747710565497E-003 -1.332756718804099E-003
 -1.332775177615676E-003 -1.332729124589993E-003
 -1.332727805682908E-003 -1.332776501727051E-003
 -1.332744289623321E-003 -1.332760085758999E-003
 -1.332749828322627E-003 -1.332754486774567E-003
 -1.332733405893949E-003 -1.332770902998847E-003
 -1.332753044409242E-003 -1.332751368092634E-003
 -1.332741519234453E-003 -1.332762775296103E-003
 -1.332751559891534E-003 -1.332752736102689E-003
 -1.332751479335999E-003 -1.332752944351752E-003
 -1.332770438551238E-003 -1.332733865616438E-003
 -1.332751318781098E-003 -1.332752980479234E-003
 -1.332748747908831E-003 -1.332755676417073E-003
 -1.332795308214356E-003 -1.332709003425333E-003
 -1.332750288376952E-003 -1.332754002072659E-003
 -1.332749692800845E-003 -1.332754661096919E-003
 -1.332765915107700E-003 -1.332738400306451E-003
 -1.332738802938959E-003 -1.332765508053382E-003
 -1.332748492734754E-003 -1.332755934475078E-003
 -1.332773007478337E-003 -1.332731313854560E-003
 -1.332773491931414E-003 -1.332730795229889E-003
 -1.332751342143593E-003 -1.332753054228077E-003
 -1.332723693118696E-003 -1.332780618677179E-003
 -1.332737156510943E-003 -1.332767126221892E-003
 -1.332748829584026E-003 -1.332755588258608E-003
 -1.332759506657539E-003 -1.332744808327956E-003
 -1.332717264991814E-003 -1.332787051969648E-003
 -1.332746667034633E-003 -1.332757753283266E-003
 -1.332773982199851E-003 -1.332730306776081E-003
 -1.332739858156981E-003 -1.332764446464274E-003
 -1.332753577063397E-003 -1.332750770609584E-003
 -1.332755366842682E-003 -1.332748929243695E-003
 -1.332775031091848E-003 -1.332729255093433E-003
 -1.332751494026196E-003 -1.332752911867599E-003
 -1.332737760923623E-003 -1.332766540508263E-003
 -1.332747770173133E-003 -1.332756512952460E-003
 -1.332748752313388E-003 -1.332755581332107E-003
 -1.332763742925916E-003 -1.332740544270968E-003
 -1.332730875861091E-003 -1.332773405348514E-003
 -1.332748203262732E-003 -1.332756205713742E-003
 -1.332769195727822E-003 -1.332735116708284E-003
 -1.332763275662621E-003 -1.332741025437900E-003
 -1.332751671100128E-003 -1.332752690754387E-003
 -1.332734981910810E-003 -1.332769313913569E-003
 -1.332738599715841E-003 -1.332765700175553E-003
 -1.332748293040579E-003 -1.332756111007737E-003
 -1.332775902527632E-003 -1.332728374539670E-003
 -1.332764650871194E-003 -1.332739671147551E-003
 -1.332751838702614E-003 -1.332752521959216E-003
 -1.332735657912932E-003 -1.332768614371332E-003
 -1.332761878453002E-003 -1.332742389775067E-003
 -1.332751467989639E-003 -1.332752929342066E-003
 -1.332723934043534E-003 -1.332780394232833E-003
 -1.332742545702208E-003 -1.332761725785665E-003
 -1.332750311313663E-003 -1.332754019130913E-003
 -1.332762928949315E-003 -1.332741385692700E-003
 -1.332761070650003E-003 -1.332743241925216E-003
 -1.332752800243710E-003 -1.332751581279548E-003
 -1.332760621703984E-003 -1.332743690752848E-003
 -1.332733854290240E-003 -1.332770467228972E-003
 -1.332740506017099E-003 -1.332763795626813E-003
 -1.332742085602589E-003 -1.332762229403094E-003
 -1.332788698138925E-003 -1.332715605661429E-003
 -1.332780481048811E-003 -1.332723818413963E-003
 -1.332761934555197E-003 -1.332742395482826E-003
 -1.332742624500377E-003 -1.332761698776963E-003
 -1.332743301763556E-003 -1.332760969489625E-003
 -1.332728092419595E-003 -1.332776249754513E-003
 -1.332772901808448E-003 -1.332731421105114E-003
 -1.332759618411576E-003 -1.332744652649176E-003
 -1.332743940746076E-003 -1.332760380661437E-003
 -1.332797780968357E-003 -1.332706530151416E-003
 -1.332763246313733E-003 -1.332741050406218E-003
 -1.332771603208952E-003 -1.332732732848848E-003
 -1.332727961101726E-003 -1.332776381790897E-003
 -1.332746262206066E-003 -1.332758012165203E-003
 -1.332760780511851E-003 -1.332743543671740E-003
 -1.332760632057927E-003 -1.332743692735262E-003
 -1.332751255273427E-003 -1.332753029610751E-003
 -1.332779519435827E-003 -1.332724781257224E-003
 -1.332793833830487E-003 -1.332710488968707E-003
 -1.332737498149071E-003 -1.332766795134436E-003
 -1.332780761965587E-003 -1.332723556700491E-003
 -1.332738083867802E-003 -1.332766270049970E-003
 -1.332750841003452E-003 -1.332753433367733E-003
 -1.332744271254128E-003 -1.332760102135649E-003
 -1.332762488505063E-003 -1.332741865169187E-003
 -1.332744151491352E-003 -1.332760161525885E-003
 -1.332783010701444E-003 -1.332721308956297E-003
 -1.332750000817579E-003 -1.332754333686807E-003
 -1.332754715955348E-003 -1.332749584440657E-003
 -1.332708069543815E-003 -1.332796252928127E-003
 -1.332769207960329E-003 -1.332735074294818E-003
 -1.332755769150918E-003 -1.332748527366348E-003
 -1.332745156540424E-003 -1.332759146121909E-003
 -1.332761674240859E-003 -1.332742682998558E-003
 -1.332762316054467E-003 -1.332742002225279E-003
 -1.332771010853418E-003 -1.332733269198029E-003
 -1.332761773186641E-003 -1.332742566787703E-003
 -1.332750230981926E-003 -1.332754089700930E-003
 -1.332736840201914E-003 -1.332767431373510E-003
 -1.332760631958438E-003 -1.332743720126858E-003
 -1.332742046709831E-003 -1.332762263082462E-003
 -1.332723198755616E-003 -1.332781122103239E-003
 -1.332758049519469E-003 -1.332746300380262E-003
 -1.332758878056187E-003 -1.332745429538135E-003
 -1.332757489476559E-003 -1.332746831048312E-003
 -1.332760031061297E-003 -1.332744310852987E-003
 -1.332759405598227E-003 -1.332744916164104E-003
 -1.332789169361583E-003 -1.332715121140827E-003
 -1.332764894291215E-003 -1.332739389877743E-003
 -1.332742941428792E-003 -1.332761362380047E-003
 -1.332748023269208E-003 -1.332756273537459E-003
 -1.332759644922560E-003 -1.332744709018397E-003
 -1.332730744676440E-003 -1.332773567110833E-003
 -1.332758058825189E-003 -1.332746244229256E-003
 -1.332753442589282E-003 -1.332750897267174E-003
 -1.332730313766912E-003 -1.332774015803212E-003
 -1.332779548155358E-003 -1.332724719998520E-003
 -1.332773472210417E-003 -1.332730854205477E-003
 -1.332762268484289E-003 -1.332742034240320E-003
 -1.332738167739946E-003 -1.332766178129449E-003
 -1.332722745223152E-003 -1.332781587099099E-003
 -1.332748896418367E-003 -1.332755381501046E-003
 -1.332783169784885E-003 -1.332721158753742E-003
 -1.332758449960491E-003 -1.332745848570664E-003
 -1.332750339750276E-003 -1.332753950200876E-003
 -1.332768676035830E-003 -1.332735610116545E-003
 -1.332772332209171E-003 -1.332731980136061E-003
 -1.332742661247225E-003 -1.332761643463019E-003
 -1.332748166724235E-003 -1.332756168337428E-003
 -1.332750195325584E-003 -1.332754109369810E-003
 -1.332755957113689E-003 -1.332748350782622E-003
 -1.332771023998082E-003 -1.332733292160900E-003
 -1.332738468621394E-003 -1.332765866542760E-003
 -1.332763809417555E-003 -1.332740479308177E-003
 -1.332778073957801E-003 -1.332726264755984E-003
 -1.332761168115245E-003 -1.332743166264454E-003
 -1.332746961636329E-003 -1.332757341544990E-003
 -1.332756430521747E-003 -1.332747908329209E-003
 -1.332782051482514E-003 -1.332722249788101E-003
 -1.332747560810970E-003 -1.332756745469431E-003
 -1.332735616753798E-003 -1.332768716500023E-003
 -1.332754278188406E-003 -1.332750011301540E-003
 -1.332765777567612E-003 -1.332738520645478E-003
 -1.332765896056693E-003 -1.332738399785513E-003
 -1.332757156262533E-003 -1.332747190246556E-003
 -1.332775719752712E-003 -1.332728574572051E-003
 -1.332751029013942E-003 -1.332753288128118E-003
 -1.332764656079027E-003 -1.332739666160562E-003
 -1.332775630950791E-003 -1.332728679431074E-003
 -1.332730895305869E-003 -1.332773398524945E-003
 -1.332755221475377E-003 -1.332749109453115E-003
 -1.332758300011373E-003 -1.332745993024608E-003
 -1.332745245569350E-003 -1.332759034355477E-003
 -1.332761585546358E-003 -1.332742744719006E-003
 -1.332760529401904E-003 -1.332743751783866E-003
 -1.332764385869414E-003 -1.332739906917443E-003
 -1.332755939833492E-003 -1.332748392124568E-003
 -1.332756274207489E-003 -1.332748043393447E-003
 -1.332770752033578E-003 -1.332733551891728E-003
 -1.332744547727768E-003 -1.332759758972058E-003
 -1.332740716363794E-003 -1.332763593352756E-003
 -1.332765817722965E-003 -1.332738484277155E-003
 -1.332760495578838E-003 -1.332743818257855E-003
 -1.332745232524396E-003 -1.332759063038103E-003
 -1.332750614618628E-003 -1.332753690519291E-003
 -1.332768057262898E-003 -1.332736267635344E-003
 -1.332753264980425E-003 -1.332751053850920E-003
 -1.332750213095666E-003 -1.332754104777345E-003
 -1.332780091587544E-003 -1.332724185311127E-003
 -1.332752629901674E-003 -1.332751677747447E-003
 -1.332753495529332E-003 -1.332750826407825E-003
 -1.332749595183781E-003 -1.332754718289103E-003
 -1.332739665158951E-003 -1.332764632600864E-003
 -1.332765136924388E-003 -1.332739158948800E-003
 -1.332762157507988E-003 -1.332742130383746E-003
 -1.332720164853366E-003 -1.332784144293873E-003
 -1.332753913213744E-003 -1.332750385591605E-003
 -1.332749806725789E-003 -1.332754498773452E-003
 -1.332736143561999E-003 -1.332768165653107E-003
 -1.332766852841450E-003 -1.332737464773839E-003
 -1.332772631077459E-003 -1.332731701202654E-003
 -1.332758950577727E-003 -1.332745347206206E-003
 -1.332772394190226E-003 -1.332731872975296E-003
 -1.332756766350128E-003 -1.332747555108688E-003
 -1.332768385931525E-003 -1.332735898447746E-003
 -1.332743117546132E-003 -1.332761166420167E-003
 -1.332764445254709E-003 -1.332739871312062E-003
 -1.332770408668244E-003 -1.332733901765141E-003
 -1.332745107563606E-003 -1.332759195954956E-003
 -1.332749168872823E-003 -1.332755139892105E-003
 -1.332782293384853E-003 -1.332721997714809E-003
 -1.332758544908703E-003 -1.332745744630118E-003
 -1.332769511224125E-003 -1.332734807615234E-003
 -1.332742053149263E-003 -1.332762249553198E-003
 -1.332761675456965E-003 -1.332742635570400E-003
 -1.332717025381220E-003 -1.332787288440912E-003
 -1.332779221423235E-003 -1.332725076025054E-003
 -1.332734876126657E-003 -1.332769439675532E-003
 -1.332765124712869E-003 -1.332739203924926E-003
 -1.332744935137684E-003 -1.332759336115761E-003
 -1.332768814335994E-003 -1.332735517340982E-003
 -1.332734470590902E-003 -1.332769858737097E-003
 -1.332761536169525E-003 -1.332742736307471E-003
 -1.332751716815536E-003 -1.332752603519180E-003
 -1.332708444705296E-003 -1.332795863663192E-003
 -1.332761062795768E-003 -1.332743244123786E-003
 -1.332727391910967E-003 -1.332776928964883E-003
 -1.332771452697501E-003 -1.332732885160033E-003
 -1.332745728457110E-003 -1.332758543990506E-003
 -1.332754339821423E-003 -1.332749986630732E-003
 -1.332739218012251E-003 -1.332765101356130E-003
 -1.332748496852304E-003 -1.332755786593053E-003
 -1.332734053307341E-003 -1.332770259388283E-003
 -1.332710621129363E-003 -1.332793693581759E-003
 -1.332735038649273E-003 -1.332769254665626E-003
 -1.332725016237090E-003 -1.332779307161557E-003
 -1.332763086107385E-003 -1.332741260888656E-003
 -1.332750420644524E-003 -1.332753870924209E-003
 -1.332759403611025E-003 -1.332744953800166E-003
 -1.332742102490125E-003 -1.332762247053320E-003
 -1.332738415122902E-003 -1.332765902034100E-003
 -1.332726839059955E-003 -1.332777477506131E-003
 -1.332738339449303E-003 -1.332766011383932E-003
 -1.332730691217745E-003 -1.332773626401704E-003
 -1.332749411210597E-003 -1.332754884314011E-003
 -1.332751004144673E-003 -1.332753336613157E-003
 -1.332719909842963E-003 -1.332784403444518E-003
 -1.332735233752981E-003 -1.332769046107053E-003
 -1.332746733954696E-003 -1.332757609146590E-003
 -1.332751335512449E-003 -1.332752991730628E-003
 -1.332718646438354E-003 -1.332785644551945E-003
 -1.332740251046139E-003 -1.332764033045809E-003
 -1.332744263968224E-003 -1.332760049289257E-003
 -1.332759106899274E-003 -1.332745191244260E-003
 -1.332741620670139E-003 -1.332762729927492E-003
 -1.332751197205194E-003 -1.332753122759719E-003
 -1.332781474899087E-003 -1.332722838917929E-003
 -1.332747488411872E-003 -1.332756861730231E-003
 -1.332757959453179E-003 -1.332746357128252E-003
 -1.332745680489310E-003 -1.332758631122017E-003
 -1.332744798928226E-003 -1.332759555766349E-003
 -1.332758320699296E-003 -1.332745995735809E-003
 -1.332732702891381E-003 -1.332771574999898E-003
 -1.332741401429283E-003 -1.332762936429712E-003
 -1.332755000772502E-003 -1.332749308581622E-003
 -1.332767430568329E-003 -1.332736847869195E-003
 -1.332751274224552E-003 -1.332753054740156E-003
 -1.332764636967750E-003 -1.332739671320559E-003
 -1.332794314581844E-003 -1.332710001671076E-003
 -1.332735154197205E-003 -1.332769125005944E-003
 -1.332758614589191E-003 -1.332745684406680E-003
 -1.332758272859143E-003 -1.332746023302714E-003
 -1.332729763932971E-003 -1.332774567889126E-003
 -1.332768534320846E-003 -1.332735770330276E-003
 -1.332758879336116E-003 -1.332745463157166E-003
 -1.332743773078264E-003 -1.332760570638879E-003
 -1.332774744829619E-003 -1.332729556350103E-003
 -1.332744858297004E-003 -1.332759455615654E-003
 -1.332744847233347E-003 -1.332759477053279E-003
 -1.332783688745484E-003 -1.332720607847468E-003
 -1.332762898031983E-003 -1.332741409134525E-003
 -1.332721136886550E-003 -1.332783168723292E-003
 -1.332756298211696E-003 -1.332748011955954E-003
 -1.332764564227967E-003 -1.332739774352661E-003
 -1.332752552205400E-003 -1.332751740165203E-003
 -1.332760608063949E-003 -1.332743698827478E-003
 -1.332737875038859E-003 -1.332766417377748E-003
 -1.332770103688406E-003 -1.332734243393612E-003
 -1.332752474306704E-003 -1.332751831687331E-003
 -1.332726232681078E-003 -1.332778094812980E-003
 -1.332743004179523E-003 -1.332761327237753E-003
 -1.332747445465502E-003 -1.332756869360460E-003
 -1.332750086373300E-003 -1.332754246664453E-003
 -1.332730733437258E-003 -1.332773573999562E-003
 -1.332747993806049E-003 -1.332756309003659E-003
 -1.332756222587906E-003 -1.332748114180374E-003
 -1.332757252606372E-003 -1.332747046198220E-003
 -1.332749951598319E-003 -1.332754345312473E-003
 -1.332733693261584E-003 -1.332770634698580E-003
 -1.332783449108057E-003 -1.332720890969727E-003
 -1.332736826488249E-003 -1.332767467602000E-003
 -1.332726198451317E-003 -1.332778116171245E-003
 -1.332746787449364E-003 -1.332757514274315E-003
 -1.332747311781676E-003 -1.332756982909119E-003
 -1.332734315503117E-003 -1.332769960648109E-003
 -1.332759858832273E-003 -1.332744434537379E-003
 -1.332758104657973E-003 -1.332746193950329E-003
 -1.332745008730397E-003 -1.332759305016143E-003
 -1.332733727307367E-003 -1.332770576955352E-003
 -1.332758602118135E-003 -1.332745682187701E-003
 -1.332748815768566E-003 -1.332755503768779E-003
 -1.332729667317535E-003 -1.332774638810170E-003
 -1.332756810959648E-003 -1.332747506472386E-003
 -1.332759452015322E-003 -1.332744871191942E-003
 -1.332748949087012E-003 -1.332755369037915E-003
 -1.332738600728538E-003 -1.332765709403238E-003
 -1.332763393744064E-003 -1.332740899043014E-003
 -1.332747117538014E-003 -1.332757202138452E-003
 -1.332747321717815E-003 -1.332756972089647E-003
 -1.332738091532878E-003 -1.332766210199799E-003
 -1.332743551974122E-003 -1.332760778494524E-003
 -1.332752274411672E-003 -1.332752044440412E-003
 -1.332729460024383E-003 -1.332774845252733E-003
 -1.332725951911078E-003 -1.332778319817292E-003
 -1.332765155111648E-003 -1.332739141187493E-003
 -1.332744731193748E-003 -1.332759613653985E-003
 -1.332754211976036E-003 -1.332750085450613E-003
 -1.332767199651459E-003 -1.332737084619757E-003
 -1.332745926207306E-003 -1.332758382774486E-003
 -1.332744613387102E-003 -1.332759684325221E-003
 -1.332780553759123E-003 -1.332723741363227E-003
 -1.332756556845614E-003 -1.332747751336064E-003
 -1.332757567007693E-003 -1.332746736880353E-003
 -1.332771636067986E-003 -1.332732674259559E-003
 -1.332743516944889E-003 -1.332760807518408E-003
 -1.332734659074713E-003 -1.332769666146699E-003
 -1.332747941938168E-003 -1.332756364239023E-003
 -1.332731180030226E-003 -1.332773104089335E-003
 -1.332747259704665E-003 -1.332757063553733E-003
 -1.332740316189591E-003 -1.332763977968945E-003
 -1.332757892438543E-003 -1.332746395994263E-003
 -1.332746891114053E-003 -1.332757409828023E-003
 -1.332723057818462E-003 -1.332781253837281E-003
 -1.332740636555896E-003 -1.332763655250528E-003
 -1.332751188870738E-003 -1.332753129550029E-003
 -1.332731709293487E-003 -1.332772605408035E-003
 -1.332763902719935E-003 -1.332740399862967E-003
 Gradient of SCF Energy
            1           2           3           4           5           6
    1  -0.0011465  -0.0015760   0.0000647  -0.0026158  -0.0000071   0.0005512
    2   0.0000799   0.0000232  -0.0000463   0.0001375   0.0000027   0.0000947
    3  -0.0002457  -0.0006566  -0.0000011  -0.0041180  -0.0036616   0.0004845
            7           8           9          10          11          12
    1   0.0003263  -0.0003776  -0.0007397  -0.0024791   0.0017818  -0.0027016
    2  -0.0000365  -0.0000814  -0.0000743  -0.0000527  -0.0000183   0.0000623
    3   0.0002381   0.0005962  -0.0000613   0.0001763   0.0004928  -0.0029119
           13          14          15          16          17          18
    1   0.0000796  -0.0015044   0.0028723  -0.0005834  -0.0006123   0.0011894
    2  -0.0000292  -0.0000353   0.0000390   0.0000031  -0.0000535  -0.0000066
    3   0.0007511   0.0008024   0.0028081  -0.0008288  -0.0012474   0.0017781
           19          20          21          22          23          24
    1   0.0021293  -0.0004195   0.0020584  -0.0007722   0.0032485  -0.0015154
    2   0.0000777  -0.0000316   0.0000243  -0.0000264  -0.0000078  -0.0000381
    3  -0.0018820   0.0019923  -0.0018162   0.0017628   0.0010936   0.0002075
           25          26          27          28          29          30
    1   0.0001998   0.0001263  -0.0009893   0.0000583  -0.0029714  -0.0021973
    2   0.0001490   0.0000363   0.0000244   0.0000446  -0.0001001  -0.0000192
    3   0.0004069  -0.0015277  -0.0009241   0.0003002  -0.0029732  -0.0003729
           31          32          33          34          35          36
    1   0.0009783   0.0002458   0.0004118  -0.0008031  -0.0014749   0.0012557
    2  -0.0000349   0.0000644   0.0000442   0.0000233  -0.0001311   0.0000301
    3   0.0002926   0.0003237   0.0000007  -0.0007231  -0.0016137   0.0015859
           37          38          39          40          41          42
    1  -0.0024051   0.0005214  -0.0000992   0.0035194  -0.0011495  -0.0018173
    2  -0.0000695   0.0001021   0.0000460   0.0001606  -0.0000866  -0.0001314
    3  -0.0033486   0.0001517  -0.0019756   0.0015675   0.0001255   0.0005315
           43          44          45          46          47          48
    1   0.0020739  -0.0008131   0.0014542  -0.0006724   0.0010245   0.0022202
    2   0.0001221  -0.0001657   0.0001379  -0.0001402   0.0000975   0.0000958
    3   0.0003524   0.0034419  -0.0011519   0.0033815  -0.0013959   0.0030314
           49          50          51          52          53          54
    1  -0.0006836   0.0014616  -0.0013520  -0.0013643   0.0001954   0.0002491
    2   0.0000182  -0.0003125  -0.0002619  -0.0018407  -0.0013853  -0.0000793
    3  -0.0013144   0.0007032  -0.0003768  -0.0002917   0.0000590   0.0000916
           55          56          57          58          59          60
    1  -0.0002178   0.0000969   0.0003666  -0.0014271   0.0002089  -0.0016793
    2  -0.0003303   0.0005169   0.0004305   0.0008489   0.0000765   0.0005928
    3   0.0000012   0.0004432   0.0002758  -0.0006124  -0.0000508  -0.0002243
           61          62          63          64          65          66
    1  -0.0003962  -0.0000091   0.0013411  -0.0004367   0.0017772  -0.0005332
    2   0.0009796   0.0000915  -0.0004039   0.0002405  -0.0016142   0.0005423
    3   0.0006674  -0.0000165   0.0018430  -0.0005338  -0.0002596   0.0001581
           67          68          69          70          71          72
    1   0.0003943  -0.0000781  -0.0010001   0.0001513  -0.0007093   0.0010456
    2  -0.0008951   0.0004337   0.0003992   0.0000043  -0.0008513  -0.0007934
    3  -0.0022791   0.0008623  -0.0009904   0.0003272  -0.0002266  -0.0006671
           73          74          75          76          77          78
    1   0.0002270   0.0021324  -0.0006077   0.0004048  -0.0000758  -0.0016327
    2   0.0001028   0.0010981  -0.0003960   0.0018300  -0.0006232   0.0008501
    3   0.0000351  -0.0003076   0.0001384   0.0011763  -0.0004277   0.0016792
           79          80          81          82          83          84
    1   0.0007044  -0.0013018   0.0002881   0.0004356   0.0000898  -0.0000025
    2  -0.0003322  -0.0005350   0.0000706   0.0008790  -0.0002584  -0.0001268
    3  -0.0004956  -0.0002011  -0.0001471   0.0004212   0.0001588  -0.0000821
           85          86          87          88          89          90
    1   0.0007697   0.0001035   0.0000217   0.0004315  -0.0000482   0.0000799
    2  -0.0001627   0.0002860  -0.0000838  -0.0004019   0.0005696   0.0001647
    3   0.0006480  -0.0002476   0.0000831   0.0008663  -0.0003063  -0.0000252
           91          92          93          94          95          96
    1   0.0002693   0.0009652  -0.0003495   0.0003450   0.0001312  -0.0002422
    2   0.0001618   0.0006914  -0.0004403   0.0000168  -0.0001157  -0.0003860
    3   0.0000718  -0.0005112   0.0005586   0.0003459   0.0001383   0.0005235
           97          98          99         100         101         102
    1   0.0007773  -0.0011261  -0.0000320  -0.0016881  -0.0008769   0.0001214
    2  -0.0016860  -0.0010398  -0.0000215  -0.0002347   0.0006387   0.0001647
    3   0.0003625   0.0002978  -0.0000118  -0.0008567  -0.0004901  -0.0000763
          103         104         105         106         107         108
    1   0.0006556   0.0003752  -0.0003208   0.0014151   0.0002687  -0.0001587
    2   0.0003761   0.0000829  -0.0001139   0.0005525   0.0001888  -0.0001903
    3   0.0008199   0.0002953  -0.0003851   0.0008231  -0.0000785   0.0024556
          109         110         111         112         113         114
    1   0.0003254  -0.0015630   0.0007305  -0.0012344   0.0005873   0.0004440
    2   0.0002561  -0.0012799   0.0005193  -0.0009839   0.0004102   0.0004922
    3  -0.0009160   0.0006376  -0.0001556  -0.0016873   0.0006400  -0.0013377
          115         116         117         118         119         120
    1   0.0002785  -0.0001277   0.0012836   0.0001259   0.0020080  -0.0005841
    2   0.0001533  -0.0001654  -0.0006498   0.0000753   0.0001225  -0.0001429
    3   0.0001326  -0.0001698   0.0005951   0.0002901  -0.0016130   0.0007288
          121         122         123         124         125         126
    1  -0.0000046   0.0001438  -0.0018627   0.0007844  -0.0009201   0.0002122
    2   0.0014996  -0.0005748   0.0014695  -0.0004622  -0.0001940  -0.0000924
    3  -0.0017175   0.0006537  -0.0000901   0.0001438   0.0010140   0.0001818
          127         128         129         130         131         132
    1   0.0000548   0.0001714   0.0005443  -0.0000894   0.0005216   0.0005514
    2   0.0009699  -0.0001620  -0.0001367  -0.0005436   0.0004331   0.0002989
    3   0.0001958   0.0003518   0.0004043   0.0005285  -0.0000552   0.0002230
          133         134         135         136         137         138
    1   0.0003827   0.0003961   0.0001100  -0.0000024  -0.0000109   0.0007107
    2   0.0007148  -0.0005740  -0.0001705  -0.0000365  -0.0004841   0.0004730
    3  -0.0003926   0.0007421   0.0000221  -0.0000410   0.0003919   0.0002392
          139         140
    1   0.0000478   0.0000866
    2   0.0002258   0.0002497
    3  -0.0000187   0.0000010
 Max gradient component =       4.118E-03
 RMS gradient           =       9.847E-04
 Computing fast IEFPCM-SWIG gradient.
 Updating gradient with PCM contributions...
 -- total gradient after adding PCM contribution --
---------------------------------------------------
  Atom         X              Y              Z     
---------------------------------------------------
   1      -0.000741       0.000028      -0.000619
   2      -0.000988       0.000044      -0.000070
   3       0.000291      -0.000089      -0.000268
   4      -0.002525       0.000145      -0.003008
   5      -0.001053      -0.000007      -0.003134
   6      -0.000153       0.000061       0.000256
   7       0.000405      -0.000075      -0.000128
   8      -0.000361      -0.000106       0.000116
   9      -0.000467      -0.000055      -0.000837
  10      -0.000199      -0.000038       0.000728
  11       0.000226      -0.000026       0.000315
  12      -0.002835       0.000059      -0.002740
  13       0.000194      -0.000025       0.000578
  14      -0.000962      -0.000021       0.000154
  15       0.001176       0.000021       0.001166
  16       0.000386       0.000005       0.000391
  17       0.000575      -0.000045       0.000535
  18       0.000158      -0.000008       0.000239
  19       0.001172       0.000047       0.000355
  20       0.000301      -0.000013       0.000247
  21       0.000696      -0.000008       0.000164
  22       0.000314      -0.000001       0.000212
  23       0.001156      -0.000036       0.001062
  24       0.000303      -0.000011       0.000253
  25       0.000525       0.000131       0.000625
  26       0.000084       0.000006      -0.000986
  27      -0.000192       0.000092      -0.000715
  28      -0.000095       0.000008       0.000614
  29      -0.001997      -0.000044      -0.003435
  30      -0.002271      -0.000015      -0.001494
  31       0.000408       0.000015      -0.000303
  32       0.000046       0.000025       0.000630
  33      -0.000013      -0.000002       0.000184
  34      -0.001310      -0.000021      -0.000150
  35       0.000127      -0.000071       0.000161
  36       0.000324       0.000004       0.000269
  37      -0.002328      -0.000055      -0.003530
  38       0.000429       0.000085       0.000311
  39      -0.000409       0.000013      -0.001234
  40       0.001232       0.000034       0.000943
  41       0.000443       0.000017       0.000372
  42       0.000340      -0.000005       0.000675
  43       0.000200       0.000003       0.000199
  44       0.000670      -0.000020       0.001533
  45       0.000267       0.000018       0.000355
  46       0.000377      -0.000007       0.001205
  47       0.000204      -0.000002       0.000340
  48       0.001147       0.000070       0.001211
  49       0.000269       0.000036       0.000282
  50       0.001149      -0.000327       0.000563
  51      -0.000943      -0.000146      -0.000246
  52      -0.000753      -0.000940      -0.000123
  53      -0.000104      -0.000683       0.000126
  54      -0.000031      -0.000117       0.000024
  55      -0.000786      -0.000414      -0.000298
  56       0.000043      -0.000185       0.000195
  57       0.000128       0.000338       0.000093
  58      -0.000661       0.000113       0.000017
  59       0.000172       0.000048      -0.000064
  60      -0.001270       0.000237      -0.000262
  61      -0.000521       0.000377      -0.000186
  62       0.000157      -0.000099       0.000187
  63       0.000287       0.000071       0.000420
  64       0.000112      -0.000002       0.000158
  65       0.000506      -0.000339      -0.000008
  66       0.000122      -0.000088       0.000043
  67       0.000134      -0.000131      -0.000555
  68       0.000065      -0.000012      -0.000045
  69      -0.000275       0.000429      -0.000151
  70       0.000266      -0.000097      -0.000064
  71      -0.000607      -0.000381       0.000078
  72       0.000176      -0.000381      -0.000294
  73       0.000443       0.000356      -0.000015
  74       0.000551       0.000200      -0.000081
  75       0.000206       0.000079       0.000052
  76       0.000113       0.000302       0.000210
  77       0.000084       0.000163       0.000067
  78      -0.000321       0.000244       0.000493
  79       0.000013       0.000033       0.000145
  80      -0.000242      -0.000281      -0.000213
  81       0.000060       0.000160       0.000166
  82       0.000186       0.000268      -0.000107
  83       0.000257       0.000039       0.000138
  84       0.000155       0.000145       0.000249
  85       0.000192       0.000346       0.000504
  86       0.000244      -0.000007       0.000010
  87       0.000357      -0.000261       0.000103
  88       0.000433      -0.000005       0.000079
  89       0.000143       0.000234       0.000197
  90       0.000006      -0.000034       0.000059
  91       0.000197       0.000072       0.000125
  92       0.000342       0.000200       0.000091
  93       0.000140       0.000069       0.000367
  94       0.000285       0.000085       0.000182
  95       0.000131       0.000032       0.000030
  96      -0.000582      -0.000226       0.000295
  97       0.000224      -0.000890       0.000135
  98      -0.000767      -0.000338      -0.000011
  99       0.000233      -0.000110       0.000037
 100      -0.001106      -0.000282      -0.000528
 101      -0.000968      -0.000019      -0.000040
 102       0.000325       0.000120       0.000145
 103      -0.000090      -0.000371       0.000362
 104       0.000416       0.000069       0.000327
 105      -0.000772      -0.000400      -0.000279
 106       0.000755       0.000426      -0.000080
 107       0.000154       0.000203       0.000369
 108       0.000206       0.000110       0.000561
 109       0.000096       0.000052       0.000169
 110      -0.000117      -0.000229       0.000136
 111      -0.000036      -0.000042       0.000098
 112      -0.000197      -0.000242      -0.000358
 113       0.000017       0.000023      -0.000029
 114       0.000503       0.000130      -0.000368
 115       0.000111      -0.000068      -0.000056
 116      -0.000225       0.000188      -0.000581
 117       0.000213      -0.000296       0.000524
 118       0.000426       0.000019      -0.000036
 119       0.000618      -0.000054      -0.000318
 120       0.000191      -0.000013      -0.000003
 121       0.000193       0.000264      -0.000366
 122       0.000049       0.000073      -0.000064
 123      -0.000356       0.000447      -0.000018
 124      -0.000011       0.000077       0.000062
 125      -0.000037       0.000067       0.000568
 126       0.000001       0.000167       0.000169
 127       0.000596       0.000389       0.000164
 128       0.000119       0.000136       0.000221
 129       0.000236       0.000098       0.000402
 130       0.000303      -0.000001       0.000830
 131       0.000255       0.000101      -0.000014
 132       0.000407       0.000113       0.000024
 133       0.000184       0.000208       0.000449
 134       0.000323      -0.000090       0.000239
 135       0.000199      -0.000011      -0.000033
 136       0.000124       0.000059      -0.000098
 137       0.000512      -0.000025       0.000066
 138       0.000327       0.000187       0.000321
 139       0.000055      -0.000027       0.000094
 140       0.000009       0.000139       0.000022
---------------------------------------------------
 Number of fixed atoms: 0
 Gradient time:  CPU 2486.82 s  wall 988.80 s
 Geometry Optimization Parameters
   NAtoms,    NIC,     NZ,  NCons,   NDum,   NFix, NCnnct, MaxDiis
      140    1102     140       0       0       0       0       0


** GEOMETRY OPTIMIZATION IN DELOCALIZED INTERNAL COORDINATES **
   Searching for a Minimum

   Optimization Cycle:   1

                       Coordinates (Angstroms)
     ATOM                X               Y               Z
      1  C         0.0000000000    0.0000000000    0.0000000000
      2  C         0.0000000000    0.0000000000    1.3949920000
      3  H         0.9420073259    0.0000000000    1.9321543489
      4  C        -1.1956782512   -0.0066795618    2.0829691793
      5  C        -2.4249550962   -0.0197691090    1.3880874605
      6  C        -2.4332641544   -0.0293183766    0.0044353601
      7  H        -3.3716297224   -0.0491323021   -0.5381391868
      8  C        -1.2264953248   -0.0205346402   -0.7052743258
      9  C        -1.4699970837   -0.0117238864    3.5173478739
     10  C        -0.7020871081   -0.0083669042    4.6524312521
     11  H         0.3802941274    0.0035058635    4.6116844494
     12  C        -2.8698282993   -0.0283117354    3.6446868066
     13  C        -3.5362162204   -0.0435209730    4.8652208571
     14  C        -3.5009236551   -0.0338480075    2.3855613685
     15  C        -4.8697305533   -0.0561267629    2.3513339918
     16  H        -5.4187619356   -0.0642657177    1.4181508893
     17  C        -1.3530274471   -0.0215685055    5.9080479042
     18  H        -0.7481382592   -0.0184758029    6.8055738855
     19  C        -2.7230212959   -0.0386417698    6.0246974272
     20  H        -3.1796323265   -0.0494226743    7.0068742024
     21  C        -4.9491849397   -0.0650944353    4.7990457466
     22  H        -5.5353658708   -0.0781726661    5.7097515026
     23  C        -5.5789964997   -0.0712488143    3.5769468171
     24  H        -6.6604229688   -0.0894468762    3.5453844340
     25  B         1.3514618285    0.0203776882   -0.7626050956
     26  C         1.3440044568    0.1027797666   -2.3147784568
     27  C         2.5538615712    0.1878199202   -3.0035678023
     28  H         3.4858425665    0.2119929916   -2.4494255639
     29  C         2.5598499126    0.2366956741   -4.3825789380
     30  C         1.3520603025    0.1787397584   -5.1118804625
     31  C         0.1480000739    0.0770492081   -4.4360112693
     32  H        -0.7856259213    0.0145555950   -4.9844247387
     33  C         0.1259332974    0.0526853890   -3.0356540243
     34  C         3.6698979897    0.3332820715   -5.3228138631
     35  C         5.0317579897    0.4177468540   -5.2037120023
     36  H         5.5232107982    0.4232974683   -4.2383848255
     37  C         3.0951865130    0.3317765834   -6.6055383377
     38  C         3.8302703578    0.4124006836   -7.7819148700
     39  C         1.6909831958    0.2390154927   -6.5382005929
     40  C         0.9891165534    0.2276436898   -7.7133875783
     41  H        -0.0911864902    0.1594010365   -7.7344378800
     42  C         5.8053914622    0.4997780627   -6.3843214126
     43  H         6.8819480356    0.5662213190   -6.2954023282
     44  C         5.2365795154    0.4983775447   -7.6364712012
     45  H         5.8685286583    0.5633951257   -8.5136365003
     46  C         3.0786871706    0.3985637851   -8.9804850539
     47  H         3.5812829521    0.4585689852   -9.9378927732
     48  C         1.7074567094    0.3089230061   -8.9308080370
     49  H         1.1498100537    0.3001870716   -9.8580148721
     50  B        -1.2262116125   -0.0566847344   -2.2653850849
     51  C        -2.5907833297   -0.2327109579   -3.0269466970
     52  C        -3.2487879491    0.8533501212   -3.6184501819
     53  C        -4.4748156511    0.6738516364   -4.2466944254
     54  H        -4.9641524050    1.5232268162   -4.7096686449
     55  C        -5.0866761927   -0.5740636164   -4.2800497715
     56  C        -4.4354331518   -1.6534604373   -3.6918204196
     57  H        -4.8977919632   -2.6335427269   -3.7088442359
     58  C        -3.1983559505   -1.4961790888   -3.0835209041
     59  N        -6.3387788949   -0.7431925149   -4.8980340907
     60  C        -7.3467196806    0.2214353629   -4.7346511110
     61  C        -8.1631807883    0.5777889209   -5.8071001076
     62  H        -8.0132465809    0.1114667248   -6.7723521748
     63  C        -9.1607760576    1.5236589476   -5.6403031384
     64  H        -9.7859690589    1.7881904873   -6.4831696774
     65  C        -9.3489608488    2.1434017993   -4.4136313419
     66  H       -10.1230552503    2.8885623966   -4.2892985969
     67  C        -8.5319045148    1.7958200578   -3.3478208919
     68  H        -8.6707764016    2.2652826948   -2.3824451499
     69  C        -7.5455236343    0.8362502577   -3.4990936570
     70  H        -6.9216257034    0.5621321887   -2.6580476109
     71  C        -6.5980749472   -1.9086726781   -5.6394194294
     72  C        -7.8039508489   -2.5907360063   -5.4913052299
     73  H        -8.5483229741   -2.2179570050   -4.7995549881
     74  C        -8.0489016890   -3.7412889774   -6.2225663376
     75  H        -8.9899785213   -4.2602468172   -6.0947401482
     76  C        -7.0933756709   -4.2401464687   -7.0953539280
     77  H        -7.2842790412   -5.1443924290   -7.6574275611
     78  C        -5.8890057350   -3.5662493395   -7.2383121126
     79  H        -5.1355796355   -3.9402781415   -7.9194479865
     80  C        -5.6437881525   -2.4044822618   -6.5267801973
     81  H        -4.7052894000   -1.8794021626   -6.6513190423
     82  C        -2.5016530168   -2.7144603850   -2.5329568311
[...]
    109  H         9.1910799505    1.4391705867   -0.8825299509
    110  C         9.7775408194    1.7606104558    1.1570038944
    111  H        10.6488746140    2.3493961176    0.9030386514
    112  C         9.4665442090    1.5025060083    2.4851538092
    113  H        10.0927157167    1.8965448199    3.2752399523
    114  C         8.3446855304    0.7597662298    2.8159585250
    115  H         8.0996642169    0.5791626911    3.8549109993
    116  C         6.4376463103   -1.4804586969    3.1486926735
    117  C         5.3893937646   -1.6017807290    4.0610638945
    118  H         4.5422415086   -0.9305025441    3.9976565353
    119  C         5.4230739793   -2.5831498615    5.0375848979
    120  H         4.5989474162   -2.6669646434    5.7345505538
    121  C         6.5065243866   -3.4456693634    5.1335236308
    122  H         6.5320830897   -4.2087717378    5.9000044093
    123  C         7.5551362854   -3.3195736102    4.2330076589
    124  H         8.4020776485   -3.9913092388    4.2893166361
    125  C         7.5209741494   -2.3526182830    3.2407865576
    126  H         8.3334226327   -2.2779211316    2.5289716312
    127  C         2.4618801896   -2.4986064587   -0.0591674549
    128  H         2.5317857091   -3.2657486702    0.7162107029
    129  H         1.3968685154   -2.2631152799   -0.1453305172
    130  C         3.0888659277    2.5123549774    0.0379301228
    131  H         3.9431704594    3.1470276863   -0.2101331640
    132  H         2.4595577679    2.4985330341   -0.8572056177
    133  C         2.9502483102   -3.0730787705   -1.3878083416
    134  H         2.8584840065   -2.3418635982   -2.1915664965
    135  H         2.3666244641   -3.9501699999   -1.6700867855
    136  H         3.9971522733   -3.3722842999   -1.3265929651
    137  C         2.3000301912    3.1398250649    1.1852230700
    138  H         1.4088012108    2.5542996247    1.4124519749
    139  H         1.9758976487    4.1494833590    0.9308376064
    140  H         2.9023361312    3.1978976370    2.0924683130
   Point Group: c1    Number of degrees of freedom:   414


   Energy is  -3084.796210638

 Hessian Updated using BFGS Update

397 Hessian modes will be used to form the next step
  Hessian Eigenvalues:
     0.005493    0.005556    0.005576    0.005599    0.007061    0.008164
     0.008241    0.008282    0.009100    0.010399    0.010912    0.011327
     0.013556    0.014457    0.014838    0.014920    0.014947    0.014996
     0.015002    0.015104    0.015431    0.015870    0.016869    0.016977
     0.017011    0.017469    0.017840    0.017866    0.018069    0.018212
     0.018275    0.018391    0.018630    0.019001    0.019235    0.019657
     0.020409    0.020465    0.020654    0.020661    0.020698    0.020719
     0.020766    0.020804    0.020872    0.020917    0.021100    0.021128
     0.021442    0.021475    0.021602    0.021648    0.021781    0.021814
     0.022117    0.022300    0.022305    0.022525    0.022540    0.022603
     0.022739    0.022761    0.023081    0.023181    0.023194    0.023214
     0.023242    0.023278    0.023312    0.023354    0.023357    0.023412
     0.023455    0.023518    0.023582    0.023656    0.023673    0.023701
     0.023733    0.023747    0.023761    0.023766    0.023790    0.023802
     0.023818    0.023823    0.023840    0.023845    0.023850    0.023864
     0.023877    0.023881    0.023911    0.023988    0.024096    0.024097
     0.024102    0.024105    0.024106    0.024110    0.024113    0.024117
     0.024118    0.024131    0.024197    0.024199    0.024201    0.024202
     0.024267    0.024267    0.024271    0.024276    0.024296    0.024306
     0.024310    0.024311    0.024391    0.024430    0.024854    0.024895
     0.041348    0.042315    0.042500    0.042582    0.048915    0.055550
     0.055609    0.055639    0.055771    0.056020    0.056107    0.056231
     0.056281    0.056336    0.056355    0.056407    0.056915    0.093873
     0.093895    0.094027    0.094440    0.128530    0.128567    0.128699
     0.130144    0.157245    0.159976    0.159978    0.159979    0.159979
     0.159982    0.159982    0.159984    0.159987    0.159993    0.159995
     0.159996    0.159998    0.159998    0.159999    0.159999    0.159999
     0.160000    0.160000    0.160000    0.160000    0.160000    0.160000
     0.160000    0.160000    0.160000    0.160000    0.160000    0.160000
     0.160000    0.160000    0.160000    0.160000    0.160231    0.160650
     0.199863    0.218948    0.219012    0.219577    0.219987    0.219988
     0.219989    0.219990    0.219998    0.220002    0.220015    0.220339
     0.220617    0.220928    0.222148    0.222156    0.224916    0.231533
     0.231888    0.233816    0.234417    0.234599    0.234732    0.234768
     0.234770    0.234796    0.234869    0.234910    0.235604    0.237451
     0.237487    0.239949    0.241449    0.249024    0.249198    0.249403
     0.249516    0.249584    0.249714    0.249721    0.249740    0.249746
     0.249789    0.249815    0.249832    0.249861    0.249885    0.249897
     0.249915    0.249938    0.249953    0.249961    0.249979    0.249983
     0.249987    0.249990    0.249993    0.249994    0.249999    0.250000
     0.250000    0.255630    0.258126    0.261052    0.265856    0.268436
     0.271619    0.273424    0.274212    0.296363    0.296744    0.296929
     0.296966    0.315812    0.315984    0.316503    0.316938    0.337336
     0.338191    0.339959    0.341776    0.343889    0.343990    0.344284
     0.344397    0.344505    0.344802    0.344964    0.345369    0.347298
     0.347318    0.347334    0.347468    0.347573    0.347576    0.347695
     0.347698    0.347845    0.347970    0.348040    0.348866    0.354492
     0.354518    0.354618    0.354687    0.354760    0.355012    0.355065
     0.355397    0.356060    0.356087    0.356127    0.356191    0.356279
     0.356375    0.356662    0.356751    0.356834    0.356993    0.357028
     0.357036    0.357055    0.357059    0.357071    0.357086    0.357091
     0.357108    0.357112    0.357140    0.357162    0.357224    0.357231
     0.357240    0.357328    0.357425    0.357495    0.357533    0.357874
     0.357910    0.357923    0.357970    0.368389    0.369819    0.378893
     0.392359    0.400651    0.404482    0.409228    0.409734    0.415352
     0.415871    0.418533    0.422997    0.423555    0.425430    0.426851
     0.427137    0.427397    0.428473    0.428694    0.428971    0.429148
     0.430820    0.431235    0.431310    0.431956    0.432005    0.432809
     0.434609    0.435522    0.436823    0.445553    0.445936    0.447378
     0.448308    0.448773    0.449267    0.453404    0.454626    0.456042
     0.457010    0.458599    0.459617    0.464781    0.465379    0.468697
     0.469266    0.469593    0.469795    0.472533    0.472739    0.472848
     0.473001    0.473137    0.473889    0.475951    0.476305    0.476924
     0.476949    0.479046    0.479117    0.479158    0.479178    0.482398
     0.482460    0.482673    0.482730    0.483973    0.484580    0.484831
     0.485114    0.487026    0.488106    0.500546    0.501551    0.502422
     0.503626

 Minimum Search - Taking Simple RFO Step
 Searching for Lamda that Minimizes Along All modes
 Value Taken    Lamda =  -0.00161019
 Step Taken.  Stepsize is  0.202848

                             Maximum     Tolerance    Cnvgd?
         Gradient           0.006031      0.000300      NO
         Displacement       0.108569      0.001200      NO
         Energy change      0.001096      0.000001      NO


 New Cartesian Coordinates Obtained by Inverse Iteration

 Displacement from previous Coordinates is:  3.519787
 Adding empirical dispersion correction 
 ----------------------------------------------------------------
 Doing -D3(BJ) with
 s6 =   1.00000
 s8 =   0.00000
 a1 =   0.48600
 a2 =   4.50000
 -D3 energy including 3body term =     -0.1342799377 hartrees
 ----------------------------------------------------------------
 Adding gCP correction 
 ----------------------------------------------------------------
 gCP energy =      0.1910843828 hartrees
 ----------------------------------------------------------------
             Standard Nuclear Orientation (Angstroms)
    I     Atom           X                Y                Z
 ----------------------------------------------------------------
    1      C       0.0640821526     0.1713787000     0.0790620955
    2      C       0.0676947073     0.1711389529     1.4803007558
    3      H       1.0117826697     0.1776622866     2.0135302714
    4      C      -1.1283114853     0.1607311251     2.1787329878
    5      C      -2.3477630466     0.1308245898     1.4662865269
    6      C      -2.3635585322     0.1099896101     0.0857222031
    7      H      -3.3070710226     0.0711368483    -0.4479618244
    8      C      -1.1637565426     0.1362531716    -0.6255381376
    9      C      -1.4514159614     0.1711653319     3.6108882778
   10      C      -0.7362251001     0.1999613709     4.7786790850
   11      H       0.3462441785     0.2224428142     4.7865523063
   12      C      -2.8578495451     0.1455230638     3.6964552342
   13      C      -3.5830026418     0.1454611617     4.8819100188
   14      C      -3.4485749794     0.1188566032     2.4207994295
   15      C      -4.8144302004     0.0882931024     2.3169866847
   16      H      -5.3160129660     0.0651070695     1.3569477068
   17      C      -1.4444618988     0.2021766430     6.0055766713
   18      H      -0.8769718555     0.2262340722     6.9266078065
   19      C      -2.8182059682     0.1756473317     6.0722794144
   20      H      -3.3119136073     0.1784237690     7.0362673534
   21      C      -4.9939932788     0.1148521444     4.7539587867
   22      H      -5.6176426804     0.1130286026     5.6395011915
   23      C      -5.5774504164     0.0867421700     3.5079927845
   24      H      -6.6568250087     0.0625667299     3.4318089874
   25      B       1.4028514952     0.1837788541    -0.7164941484
   26      C       1.3855206499     0.2883275482    -2.2682437765
   27      C       2.5866068384     0.3777935355    -2.9833177473
   28      H       3.5296653665     0.4016100178    -2.4487241328
   29      C       2.5688824850     0.4266537984    -4.3658514449
   30      C       1.3340405417     0.3590540421    -5.0493993013
   31      C       0.1454555803     0.2519244892    -4.3568974191
   32      H      -0.7932930180     0.1810923763    -4.8956147481
   33      C       0.1532932696     0.2307171609    -2.9615342627
   34      C       3.6316260183     0.5258049700    -5.3756370527
   35      C       4.9984450901     0.6237053228    -5.3606434502
   36      H       5.5608077074     0.6416440079    -4.4356056086
   37      C       2.9841459952     0.5134989937    -6.6269685818
   38      C       3.6301652827     0.5927025090    -7.8566593086
   39      C       1.5891344350     0.4126194120    -6.4849671312
   40      C       0.8053946352     0.3883254876    -7.6096280155
   41      H      -0.2739718732     0.3127036514    -7.5552832832
   42      C       5.6871171012     0.7054642838    -6.5959378225
   43      H       6.7663576366     0.7828409705    -6.5791629462
   44      C       5.0406757007     0.6919187884    -7.8099237861
   45      H       5.6120981253     0.7581312693    -8.7278017423
   46      C       2.8025378378     0.5664816435    -9.0061851888
   47      H       3.2453184225     0.6247386954    -9.9930621249
   48      C       1.4369246880     0.4668293814    -8.8732265029
   49      H       0.8201541008     0.4480383194    -9.7624775287
   50      B      -1.1853735508     0.0933886624    -2.1824147500
   51      C      -2.5387485556    -0.1448690745    -2.9494048641
   52      C      -3.2552302001     0.9030852360    -3.5449860378
   53      C      -4.4492704440     0.6508976181    -4.2102305326
   54      H      -4.9830061116     1.4721896593    -4.6754352355
   55      C      -4.9770384803    -0.6335328989    -4.2699476834
   56      C      -4.2714036384    -1.6735614619    -3.6770336370
   57      H      -4.6677888784    -2.6821711948    -3.7172823891
   58      C      -3.0591777598    -1.4445155506    -3.0418264875
   59      N      -6.2041704018    -0.8791194402    -4.9114711625
   60      C      -7.2772305330     0.0112298140    -4.7461684237
   61      C      -8.1072527548     0.3187939796    -5.8236369529
   62      H      -7.9112026581    -0.1184035148    -6.7943657088
   63      C      -9.1837922342     1.1739669428    -5.6561165652
   64      H      -9.8198924951     1.3971464638    -6.5031089262
   65      C      -9.4388417779     1.7544734941    -4.4216151789
   66      H     -10.2763606668     2.4274845130    -4.2951818870
   67      C      -8.6047851797     1.4618607038    -3.3517063169
   68      H      -8.7942199864     1.9019709189    -2.3810538446
   69      C      -7.5379456351     0.5910495076    -3.5050391602
   70      H      -6.9047211758     0.3557855531    -2.6592137392
   71      C      -6.3902600961    -2.0613547544    -5.6500919832
   72      C      -7.5631486054    -2.8032468719    -5.5121357545
   73      H      -8.3339419017    -2.4705657831    -4.8287371716
   74      C      -7.7475034361    -3.9635411716    -6.2463104642
   75      H      -8.6649451864    -4.5257891041    -6.1278846286
   76      C      -6.7615046012    -4.4157268001    -7.1115304638
   77      H      -6.9047144359    -5.3270191787    -7.6768802758
   78      C      -5.5881924990    -3.6857414270    -7.2411055091
   79      H      -4.8119571873    -4.0230228316    -7.9159565580
   80      C      -5.4040504237    -2.5133690947    -6.5260410084
   81      H      -4.4899501110    -1.9455197642    -6.6430867292
   82      C      -2.2977167713    -2.6354213720    -2.5196221542
   83      H      -3.0004576886    -3.3810245732    -2.1387109346
   84      H      -1.6710463945    -2.3540792755    -1.6693471892
   85      C      -2.7956087550     2.3336607596    -3.4373317852
   86      H      -3.0498730013     2.8677751844    -4.3564797810
   87      H      -1.7074457241     2.3870652582    -3.3514396167
   88      C      -3.4388559784     3.0484167150    -2.2507482124
   89      H      -3.1807998566     2.5631036373    -1.3091891667
   90      H      -3.1092353619     4.0861422463    -2.1912546411
   91      H      -4.5262223170     3.0459249871    -2.3389083866
   92      C      -1.4333879522    -3.2742431404    -3.6048954016
   93      H      -0.7048038440    -2.5665452962    -4.0011132019
   94      H      -2.0477658309    -3.6197539627    -4.4376381709
   95      H      -0.8864941797    -4.1328357120    -3.2135149105
   96      C       2.7657027852     0.0199425291     0.0377403003
   97      C       3.5833866141     1.1157778372     0.3392361239
   98      C       4.7706815451     0.9273518879     1.0367093095
   99      H       5.3884447835     1.7830624253     1.2860548525
  100      C       5.1779565497    -0.3481367654     1.4140733545
  101      C       4.3801216318    -1.4384461706     1.0825430550
  102      H       4.6985507056    -2.4382358844     1.3552377430
  103      C       3.1770682654    -1.2644925726     0.4156729213
  104      N       6.3799626640    -0.5469242542     2.1170057590
  105      C       7.5408065297     0.1455851681     1.7427484425
  106      C       7.8373145158     0.3494779902     0.3952562932
  107      H       7.1717951446    -0.0386578724    -0.3653057515
  108      C       8.9754932060     1.0484197605     0.0297857247
  109      H       9.1895989467     1.2017037921    -1.0202628182
  110      C       9.8464076812     1.5341660858     0.9955022474
  111      H      10.7380640985     2.0742498364     0.7063512541
  112      C       9.5609930298     1.3162889249     2.3360633230
  113      H      10.2286159085     1.6923503181     3.1005403687
  114      C       8.4135147634     0.6367311799     2.7120107509
  115      H       8.1900763725     0.4849966699     3.7604270438
  116      C       6.4259710273    -1.4886806626     3.1580301589
  117      C       5.4026175891    -1.5479988435     4.1042222167
  118      H       4.5748252245    -0.8528999976     4.0444580955
  119      C       5.4360225883    -2.4997608688     5.1094278384
  120      H       4.6310707119    -2.5367944680     5.8322801440
  121      C       6.4953805556    -3.3922651872     5.2014375343
  122      H       6.5206769390    -4.1321003638     5.9903764319
  123      C       7.5210120644    -3.3250175154     4.2695210804
  124      H       8.3497628737    -4.0192214534     4.3239644798
  125      C       7.4863475086    -2.3880849992     3.2491524127
  126      H       8.2811948154    -2.3581649876     2.5144440136
  127      C       2.3646538807    -2.4800763161     0.0405504950
  128      H       2.4338243161    -3.2273360602     0.8351996406
  129      H       1.3037148266    -2.2217244628    -0.0281000493
  130      C       3.1600881948     2.5140330287    -0.0334430025
  131      H       4.0403986150     3.1053508352    -0.2974958645
  132      H       2.5369127608     2.4935954991    -0.9326311075
  133      C       2.8126705560    -3.1049830743    -1.2795488441
  134      H       2.7189365159    -2.3981364435    -2.1040488023
  135      H       2.2044981869    -3.9775322697    -1.5213022261
  136      H       3.8539965045    -3.4252353578    -1.2311240869
  137      C       2.3956385412     3.2161253848     1.0871282653
  138      H       1.4763386575     2.6830784480     1.3294358334
  139      H       2.1210812280     4.2305286307     0.7960334737
  140      H       2.9954845471     3.2776676011     1.9957728286
 ----------------------------------------------------------------
 Nuclear Repulsion Energy = 12122.1644738838 hartrees
 There are      270 alpha and      270 beta electrons
 Discretize the solute cavity surface with Lebedev spheres
	Using 302 Lebedev grid points for each H atom
	Using 302 Lebedev grid points for other atoms
	Atomic van der Waals radii will be scaled by 1.20
 Remove points where switching function is < 1.0e-08
 Keep 14680 surface tesserae and discard 27600 interior tesserae
 Molecular Surface Area = 1080.798 Angst**2
 Applying Cartesian multipole field
    Component          Value
    ---------          -----
     (2,0,0)        1.00000E-12
     (0,2,0)        2.00000E-11
     (0,0,2)       -3.00000E-12
 Nucleus-field energy     =     0.0000000538 hartrees
 Requested basis set is def2-mSVP
 There are 680 shells and 1320 basis functions
 A cutoff of  1.0D-12 yielded  67714 shell pairs
 There are    263384 function pairs (    289624 Cartesian)
 Smallest overlap matrix eigenvalue = 1.94E-04
 Guess MOs from SCF MO coefficient file

 -----------------------------------------------------------------------
  General SCF calculation program by
  Eric Jon Sundstrom, Paul Horn, Yuezhi Mao, Dmitri Zuev, Alec White,
  David Stuck, Shaama M.S., Shane Yost, Joonho Lee, David Small,
  Daniel Levine, Susi Lehtola, Hugh Burton, Evgeny Epifanovsky
 -----------------------------------------------------------------------
 Exchange:     0.4200 Hartree-Fock + 0.5800 PBEh-3c
 Correlation:  1.0000 PBEh-3c
 Using SG-1 standard quadrature grid
 Dispersion:   Grimme D3
 using 4 threads for integral computing
 -------------------------------------------------------
 OpenMP Integral computing Module                
 Release: version 2.0, May 2017, Q-Chem Inc. Pleasanton 
 -------------------------------------------------------
 -------------------------------------------------------
 OpenMP BLAS3 based DFT computing Module                
 Release: version 1.0, May 2013, Q-Chem Inc. Pittsburgh 
 -------------------------------------------------------
 A restricted SCF calculation will be
 performed using DIIS
 SCF converges when DIIS error is below 1.0e-09
 ---------------------------------------
  Cycle       Energy         DIIS error
 ---------------------------------------
 Using non-symmetric K matrix
