mFile = /cm/shared/apps/q-chem/intel/QCHEM_5.1.0_Trunk/bin/mpi/machines
Process 0 of 1 is on ctcp003 - thread support 0
initial socket setup ...start
initial socket setup ...done 
now start server 0 ... 
Q-Chem Developer Version!
                  Welcome to Q-Chem
     A Quantum Leap Into The Future Of Chemistry


 Q-Chem 5.1, Q-Chem, Inc., Pleasanton, CA (2018)

 Yihan Shao,  Zhengting Gan,  E. Epifanovsky,  A. T. B. Gilbert,  M. Wormit,  
 J. Kussmann,  A. W. Lange,  A. Behn,  Jia Deng,  Xintian Feng,  D. Ghosh,  
 M. Goldey,  P. R. Horn,  L. D. Jacobson,  I. Kaliman,  T. Kus,  A. Landau,  
 Jie Liu,  E. I. Proynov,  R. M. Richard,  R. P. Steele,  E. J. Sundstrom,  
 H. L. Woodcock III,  P. M. Zimmerman,  D. Zuev,  B. Albrecht,  E. Alguire,  
 S. A. Baeppler,  D. Barton,  Z. Benda,  Y. A. Bernard,  E. J. Berquist,  
 K. B. Bravaya,  H. Burton,  D. Casanova,  Chun-Min Chang,  Yunqing Chen,  
 A. Chien,  K. D. Closser,  M. P. Coons,  S. Coriani,  S. Dasgupta,  
 A. L. Dempwolff,  M. Diedenhofen,  Hainam Do,  R. G. Edgar,  Po-Tung Fang,  
 S. Faraji,  S. Fatehi,  Qingguo Feng,  K. D. Fenk,  J. Fosso-Tande,  
 Qinghui Ge,  A. Ghysels,  G. Gidofalvi,  J. Gomes,  J. Gonthier,  A. Gunina,  
 D. Hait,  M. W. D. Hanson-Heine,  P. H. P. Harbach,  A. W. Hauser,  
 J. E. Herr,  E. G. Hohenstein,  Z. C. Holden,  Kerwin Hui,  B. C. Huynh,  
 T.-C. Jagau,  Hyunjun Ji,  B. Kaduk,  K. Khistyaev,  Jaehoon Kim,  
 P. Klunzinger,  K. Koh,  D. Kosenkov,  L. Koulias,  T. Kowalczyk,  
 C. M. Krauter,  A. Kunitsa,  Ka Un Lao,  A. Laurent,  K. V. Lawler,  
 Joonho Lee,  D. Lefrancois,  S. Lehtola,  D. S. Levine,  Yi-Pei Li,  
 You-Sheng Lin,  Fenglai Liu,  E. Livshits,  A. Luenser,  P. Manohar,  
 E. Mansoor,  S. F. Manzer,  Shan-Ping Mao,  Yuezhi Mao,  N. Mardirossian,  
 A. V. Marenich,  T. Markovich,  L. A. Martinez-Martinez,  S. A. Maurer,  
 N. J. Mayhall,  S. C. McKenzie,  J.-M. Mewes,  A. F. Morrison,  
 J. W. Mullinax,  K. Nanda,  T. S. Nguyen-Beck,  R. Olivares-Amaya,  
 J. A. Parkhill,  T. M. Perrine,  F. Plasser,  P. Pokhilko,  S. Prager,  
 A. Prociuk,  E. Ramos,  D. R. Rehn,  F. Rob,  M. Schneider,  N. Sergueev,  
 S. M. Sharada,  S. Sharma,  D. W. Small,  T. Stauch,  T. Stein,  
 Yu-Chuan Su,  A. J. W. Thom,  A. Tkatchenko,  T. Tsuchimochi,  N. M. Tubman,  
 L. Vogt,  M. L. Vidal,  O. Vydrov,  M. A. Watson,  J. Wenzel,  
 M. de Wergifosse,  T. A. Wesolowski,  A. White,  J. Witte,  A. Yamada,  
 Jun Yang,  K. Yao,  S. Yeganeh,  S. R. Yost,  Zhi-Qiang You,  A. Zech,  
 Igor Ying Zhang,  Xing Zhang,  Yan Zhao,  Ying Zhu,  B. R. Brooks,  
 G. K. L. Chan,  C. J. Cramer,  M. S. Gordon,  W. J. Hehre,  A. Klamt,  
 M. W. Schmidt,  C. D. Sherrill,  D. G. Truhlar,  A. Aspuru-Guzik,  R. Baer,  
 A. T. Bell,  N. A. Besley,  Jeng-Da Chai,  A. E. DePrince, III,  
 R. A. DiStasio Jr.,  A. Dreuw,  B. D. Dunietz,  T. R. Furlani,  
 Chao-Ping Hsu,  Yousung Jung,  Jing Kong,  D. S. Lambrecht,  WanZhen Liang,  
 C. Ochsenfeld,  V. A. Rassolov,  L. V. Slipchenko,  J. E. Subotnik,  
 T. Van Voorhis,  J. M. Herbert,  A. I. Krylov,  P. M. W. Gill,  M. Head-Gordon

 Contributors to earlier versions of Q-Chem not listed above: 
 R. D. Adamson,  B. Austin,  J. Baker,  G. J. O. Beran,  K. Brandhorst,  
 S. T. Brown,  E. F. C. Byrd,  A. K. Chakraborty,  C.-L. Cheng,  
 Siu Hung Chien,  D. M. Chipman,  D. L. Crittenden,  H. Dachsel,  
 R. J. Doerksen,  A. D. Dutoi,  L. Fusti-Molnar,  W. A. Goddard III,  
 A. Golubeva-Zadorozhnaya,  S. R. Gwaltney,  G. Hawkins,  A. Heyden,  
 S. Hirata,  G. Kedziora,  F. J. Keil,  C. Kelley,  Jihan Kim,  R. A. King,  
 R. Z. Khaliullin,  P. P. Korambath,  W. Kurlancheek,  A. M. Lee,  M. S. Lee,  
 S. V. Levchenko,  Ching Yeh Lin,  D. Liotard,  R. C. Lochan,  I. Lotan,  
 P. E. Maslen,  N. Nair,  D. P. O'Neill,  D. Neuhauser,  E. Neuscamman,  
 C. M. Oana,  R. Olson,  B. Peters,  R. Peverati,  P. A. Pieniazek,  
 Y. M. Rhee,  J. Ritchie,  M. A. Rohrdanz,  E. Rosta,  N. J. Russ,  
 H. F. Schaefer III,  N. E. Schultz,  N. Shenvi,  A. C. Simmonett,  A. Sodt,  
 D. Stuck,  K. S. Thanthiriwatte,  V. Vanovschi,  Tao Wang,  A. Warshel,  
 C. F. Williams,  Q. Wu,  X. Xu,  W. Zhang

 Please cite Q-Chem as follows:
 Y. Shao et al., Mol. Phys. 113, 184-215 (2015)
 DOI: 10.1080/00268976.2014.952696

 Q-Chem 5.1.1 for Intel X86 EM64T Linux

 Parts of Q-Chem use Armadillo 8.300.2 (Tropical Shenanigans).
 http://arma.sourceforge.net/

 Q-Chem begins on Thu Nov  8 09:41:09 2018  

Host: ctcp003
0

     Scratch files written to /scratch/mewes1/140015/qchem122254//
 Parallel job on  1  processors
The previous job contains 0 fragments, simply inherited here
Symmetry turned off for PCM/SM12/SMD calculation
Input Ideriv = 2
Curr. Ideriv = -1
Max.  Ideriv = 2
Input Ideriv = 2
Curr. Ideriv = 2
Max.  Ideriv = 2

Checking the input file for inconsistencies... 	...done.

--------------------------------------------------------------
User input:
--------------------------------------------------------------
$rem
threads 4
jobtype	opt
method PBEh-3c
basis def2-mSVP
mem_static	1024
mem_total	4000
sym_ignore	true
scf_convergence	9
solvent_method	pcm
$end

$molecule
read gsopt.mol
$end

$solvent
dielectric	1.0001 
$end

$pcm
theory iefpcm
$end
--------------------------------------------------------------
 Adding empirical dispersion correction 
 ----------------------------------------------------------------
 Doing -D3(BJ) with
 s6 =   1.00000
 s8 =   0.00000
 a1 =   0.48600
 a2 =   4.50000
 -D3 energy including 3body term =     -0.1341451627 hartrees
 ----------------------------------------------------------------
 Adding gCP correction 
 ----------------------------------------------------------------
 gCP energy =      0.1913108881 hartrees
 ----------------------------------------------------------------
             Standard Nuclear Orientation (Angstroms)
    I     Atom           X                Y                Z
 ----------------------------------------------------------------
    1      C       0.0000000000     0.0000000000     0.0000000000
    2      C       0.0000000000     0.0000000000     1.3949920000
    3      H       0.9420073259     0.0000000000     1.9321543489
    4      C      -1.1956782512    -0.0066795618     2.0829691793
    5      C      -2.4249550962    -0.0197691090     1.3880874605
    6      C      -2.4332641544    -0.0293183766     0.0044353601
    7      H      -3.3716297224    -0.0491323021    -0.5381391868
    8      C      -1.2264953248    -0.0205346402    -0.7052743258
    9      C      -1.4699970837    -0.0117238864     3.5173478739
   10      C      -0.7020871081    -0.0083669042     4.6524312521
   11      H       0.3802941274     0.0035058635     4.6116844494
   12      C      -2.8698282993    -0.0283117354     3.6446868066
   13      C      -3.5362162204    -0.0435209730     4.8652208571
   14      C      -3.5009236551    -0.0338480075     2.3855613685
   15      C      -4.8697305533    -0.0561267629     2.3513339918
   16      H      -5.4187619356    -0.0642657177     1.4181508893
   17      C      -1.3530274471    -0.0215685055     5.9080479042
   18      H      -0.7481382592    -0.0184758029     6.8055738855
   19      C      -2.7230212959    -0.0386417698     6.0246974272
   20      H      -3.1796323265    -0.0494226743     7.0068742024
   21      C      -4.9491849397    -0.0650944353     4.7990457466
   22      H      -5.5353658708    -0.0781726661     5.7097515026
   23      C      -5.5789964997    -0.0712488143     3.5769468171
   24      H      -6.6604229688    -0.0894468762     3.5453844340
   25      B       1.3514618285     0.0203776882    -0.7626050956
   26      C       1.3440044568     0.1027797666    -2.3147784568
   27      C       2.5538615712     0.1878199202    -3.0035678023
   28      H       3.4858425665     0.2119929916    -2.4494255639
   29      C       2.5598499126     0.2366956741    -4.3825789380
   30      C       1.3520603025     0.1787397584    -5.1118804625
   31      C       0.1480000739     0.0770492081    -4.4360112693
   32      H      -0.7856259213     0.0145555950    -4.9844247387
   33      C       0.1259332974     0.0526853890    -3.0356540243
   34      C       3.6698979897     0.3332820715    -5.3228138631
   35      C       5.0317579897     0.4177468540    -5.2037120023
   36      H       5.5232107982     0.4232974683    -4.2383848255
   37      C       3.0951865130     0.3317765834    -6.6055383377
   38      C       3.8302703578     0.4124006836    -7.7819148700
   39      C       1.6909831958     0.2390154927    -6.5382005929
   40      C       0.9891165534     0.2276436898    -7.7133875783
   41      H      -0.0911864902     0.1594010365    -7.7344378800
   42      C       5.8053914622     0.4997780627    -6.3843214126
   43      H       6.8819480356     0.5662213190    -6.2954023282
   44      C       5.2365795154     0.4983775447    -7.6364712012
   45      H       5.8685286583     0.5633951257    -8.5136365003
   46      C       3.0786871706     0.3985637851    -8.9804850539
   47      H       3.5812829521     0.4585689852    -9.9378927732
   48      C       1.7074567094     0.3089230061    -8.9308080370
   49      H       1.1498100537     0.3001870716    -9.8580148721
   50      B      -1.2262116125    -0.0566847344    -2.2653850849
   51      C      -2.5907833297    -0.2327109579    -3.0269466970
   52      C      -3.2487879491     0.8533501212    -3.6184501819
   53      C      -4.4748156511     0.6738516364    -4.2466944254
   54      H      -4.9641524050     1.5232268162    -4.7096686449
   55      C      -5.0866761927    -0.5740636164    -4.2800497715
   56      C      -4.4354331518    -1.6534604373    -3.6918204196
   57      H      -4.8977919632    -2.6335427269    -3.7088442359
   58      C      -3.1983559505    -1.4961790888    -3.0835209041
   59      N      -6.3387788949    -0.7431925149    -4.8980340907
   60      C      -7.3467196806     0.2214353629    -4.7346511110
   61      C      -8.1631807883     0.5777889209    -5.8071001076
   62      H      -8.0132465809     0.1114667248    -6.7723521748
   63      C      -9.1607760576     1.5236589476    -5.6403031384
   64      H      -9.7859690589     1.7881904873    -6.4831696774
   65      C      -9.3489608488     2.1434017993    -4.4136313419
   66      H     -10.1230552503     2.8885623966    -4.2892985969
   67      C      -8.5319045148     1.7958200578    -3.3478208919
   68      H      -8.6707764016     2.2652826948    -2.3824451499
   69      C      -7.5455236343     0.8362502577    -3.4990936570
   70      H      -6.9216257034     0.5621321887    -2.6580476109
   71      C      -6.5980749472    -1.9086726781    -5.6394194294
   72      C      -7.8039508489    -2.5907360063    -5.4913052299
   73      H      -8.5483229741    -2.2179570050    -4.7995549881
   74      C      -8.0489016890    -3.7412889774    -6.2225663376
   75      H      -8.9899785213    -4.2602468172    -6.0947401482
   76      C      -7.0933756709    -4.2401464687    -7.0953539280
   77      H      -7.2842790412    -5.1443924290    -7.6574275611
   78      C      -5.8890057350    -3.5662493395    -7.2383121126
   79      H      -5.1355796355    -3.9402781415    -7.9194479865
   80      C      -5.6437881525    -2.4044822618    -6.5267801973
   81      H      -4.7052894000    -1.8794021626    -6.6513190423
   82      C      -2.5016530168    -2.7144603850    -2.5329568311
   83      H      -3.2445316896    -3.4547448118    -2.2260051020
   84      H      -1.9438364030    -2.4608633443    -1.6275546258
   85      C      -2.6748445100     2.2454056937    -3.5390370700
   86      H      -2.9665627371     2.8125493952    -4.4265362892
   87      H      -1.5822787498     2.2102746103    -3.5542297727
   88      C      -3.1379379930     2.9929452036    -2.2902463531
   89      H      -2.8224258925     2.4816200722    -1.3804575070
   90      H      -2.7236453320     4.0012752397    -2.2624575610
   91      H      -4.2251036517     3.0765035067    -2.2638702626
   92      C      -1.5519978797    -3.3463533550    -3.5492099246
   93      H      -0.7693654163    -2.6495743195    -3.8500559988
   94      H      -2.0875783905    -3.6524999099    -4.4482866187
   95      H      -1.0654041487    -4.2285129046    -3.1312987600
   96      C       2.7100119945    -0.0752640666     0.0248544652
   97      C       3.4605870279     1.0649266195     0.3400796112
   98      C       4.6581976410     0.9487734909     1.0331244509
   99      H       5.2188299710     1.8424794936     1.2841608639
  100      C       5.1508370278    -0.2957205138     1.4071067837
  101      C       4.4093239165    -1.4291964474     1.0931491367
  102      H       4.7842064613    -2.4083188877     1.3698446003
  103      C       3.1995856828    -1.3272809842     0.4217900951
  104      N       6.3757617254    -0.4077202102     2.0899262881
  105      C       7.4658204034     0.4049427681     1.7381780303
  106      C       7.7633190077     0.6621992986     0.4004517366
  107      H       7.1482544380     0.2291006316    -0.3774136213
  108      C       8.8392157256     1.4674909583     0.0657101240
  109      H       9.0546614366     1.6576666728    -0.9778174602
  110      C       9.6489627622     2.0122000170     1.0515209409
  111      H      10.4931624756     2.6341353652     0.7858625900
  112      C       9.3616626108     1.7488070849     2.3827864699
  113      H       9.9792434557     2.1715031741     3.1647785902
  114      C       8.2758850578     0.9620428359     2.7276759520
  115      H       8.0542575203     0.7749288956     3.7704704677
  116      C       6.5215179376    -1.3518098624     3.1200184704
  117      C       5.5164337126    -1.5249558046     4.0700590494
  118      H       4.6190132855    -0.9227598930     4.0142703619
  119      C       5.6627427846    -2.4630432957     5.0781559318
  120      H       4.8720921382    -2.5869040610     5.8068093647
  121      C       6.8172722730    -3.2266452673     5.1702915261
  122      H       6.9314055876    -3.9529751764     5.9637235929
  123      C       7.8236534151    -3.0473094699     4.2327909619
  124      H       8.7279146139    -3.6395890249     4.2877238122
  125      C       7.6768045441    -2.1269343820     3.2086342085
  126      H       8.4620194028    -2.0053857018     2.4736090638
  127      C       2.4791594447    -2.5980900941     0.0526199056
  128      H       2.5576799480    -3.3154778700     0.8737041582
  129      H       1.4094662535    -2.4082560848    -0.0726716873
  130      C       2.9585147189     2.4479377251     0.0138981608
  131      H       3.7948298737     3.0741805776    -0.3082957053
  132      H       2.2680158675     2.4167941866    -0.8336952229
  133      C       3.0382953074    -3.2244722770    -1.2228860839
  134      H       2.9539482841    -2.5406181519    -2.0676561799
  135      H       2.5019282350    -4.1385984936    -1.4794559051
  136      H       4.0930314486    -3.4766828873    -1.1063217834
  137      C       2.2679307767     3.1058052041     1.2065255076
  138      H       1.4044598470     2.5250984968     1.5313304371
  139      H       1.9186925447     4.1074134538     0.9540923697
  140      H       2.9480362613     3.1921864850     2.0546645942
 ----------------------------------------------------------------
 Nuclear Repulsion Energy = 12111.0392736939 hartrees
 There are      270 alpha and      270 beta electrons
 Requested basis set is def2-mSVP
 There are 680 shells and 1320 basis functions

 Total QAlloc Memory Limit   4000 MB
 Mega-Array Size      1001 MB
 MEM_STATIC part      1024 MB
 Discretize the solute cavity surface with Lebedev spheres
	Using 302 Lebedev grid points for each H atom
	Using 302 Lebedev grid points for other atoms
	Atomic van der Waals radii will be scaled by 1.20
 Remove points where switching function is < 1.0e-08
 Keep 14635 surface tesserae and discard 27645 interior tesserae
 Molecular Surface Area = 1080.358 Angst**2
 A cutoff of  1.0D-12 yielded  67676 shell pairs
 There are    263236 function pairs (    289477 Cartesian)
 
 -------------------------------------------------------
 OpenMP Integral Computing Module                       
 Release: version 1.0, May 2013, Q-Chem Inc. Pittsburgh 
 -------------------------------------------------------
 Integral Job Info:
 Integral job number is                      11
 Integral operator is                         1
 short-range coefficients                     0
 long-range coefficients              100000000
 Omega coefficients                           0
 if combine SR and LR in K                    0
 Integral screening is                        0
 Integral computing path is                   2
 max size of driver memory is            800000
 size of driver memory is                593474
 size of scratch memory is              1809772
 max col of scratch BK array               1296
 max len of scratch array in speh3          155
 max len of scratch index in speh4           18
 max int batch size is                      520
 min int batch size is                       52
 fixed nKL is                                52
 max L of basis functions is                  2
 order of int derivative is                   0
 number of shells is                        680
 number of basis is                        1400
 number of cartesian basis is              1400
 number of contracted shell pairs         67676
 number of primitive shell pairs         140077
 maxK2 (contraction) of shell pair           25
 max number of K2 of shell pair               1
 max number of CS2 of shell pair          16548
 max number of PS2 of shell pair          24665
 mem total for path MDJ                 1178444
 -------------------------------------------------------
 Smallest overlap matrix eigenvalue = 1.94E-04

 Scale SEOQF with 1.000000e-02/1.000000e-01/1.000000e-02

 Standard Electronic Orientation quadrupole field applied
 Nucleus-field energy     =     0.0000000534 hartrees
 Guess from superposition of atomic densities
 Warning:  Energy on first SCF cycle will be non-variational
 SAD guess density has 540.000001 electrons

 -----------------------------------------------------------------------
  General SCF calculation program by
  Eric Jon Sundstrom, Paul Horn, Yuezhi Mao, Dmitri Zuev, Alec White,
  David Stuck, Shaama M.S., Shane Yost, Joonho Lee, David Small,
  Daniel Levine, Susi Lehtola, Hugh Burton, Evgeny Epifanovsky
 -----------------------------------------------------------------------
 Exchange:     0.4200 Hartree-Fock + 0.5800 PBEh-3c
 Correlation:  1.0000 PBEh-3c
 Using SG-1 standard quadrature grid
 Dispersion:   Grimme D3
 using 4 threads for integral computing
 -------------------------------------------------------
 OpenMP Integral computing Module                
 Release: version 2.0, May 2017, Q-Chem Inc. Pleasanton 
 -------------------------------------------------------
 -------------------------------------------------------
 OpenMP BLAS3 based DFT computing Module                
 Release: version 1.0, May 2013, Q-Chem Inc. Pittsburgh 
 -------------------------------------------------------
 A restricted SCF calculation will be
 performed using DIIS
 SCF converges when DIIS error is below 1.0e-09
 ---------------------------------------
  Cycle       Energy         DIIS error
 ---------------------------------------
 Using non-symmetric K matrix
    1   -3111.2565825740      2.35e-02  
    2   -3084.1137777693      1.63e-03  
    3   -3084.2701820884      1.50e-03  
    4   -3084.7062925967      5.60e-04  
    5   -3084.7758291523      1.74e-04  
    6   -3084.7825471538      5.84e-05  
    7   -3084.7832528944      1.67e-05  
    8   -3084.7833128390      6.07e-06  
    9   -3084.7833216525      1.45e-06  
   10   -3084.7833222050      5.51e-07  
   11   -3084.7833222928      2.06e-07  
   12   -3084.7833223056      7.97e-08  
   13   -3084.7833223077      2.43e-08  
   14   -3084.7833223079      1.09e-08  
   15   -3084.7833223079      5.40e-09  
   16   -3084.7833223079      1.72e-09  
   17   -3084.7833223079      7.34e-10  Convergence criterion met
 ---------------------------------------
 SCF time:   CPU 31530.90s  wall 8279.00s 

************** Final PCM Free Energy Summary **************
 G_electrostatic  =      -0.00000212 hartree =      -0.00132755 kcal/mol
 G_cavitation     =       0.00000000 hartree =       0.00000000 kcal/mol
 G_dispersion     =       0.00000000 hartree =       0.00000000 kcal/mol
 G_repulsion      =       0.00000000 hartree =       0.00000000 kcal/mol
 --------------------------------------------------
 Non-electrostatic Free Energy =       0.00000000 hartree =       0.00000000 kcal/mol
 Total                         =      -0.00000212 hartree =      -0.00132755 kcal/mol
 --------------------------------------------------
 SCF Energy (H0 + V/2)                       =   -3084.78332231 
 Solute Internal Energy (H0)                 =   -3084.78332019 
 Total Free Energy (H0 + V/2 + non-elec)     =   -3084.78332231 hartree
                                             = -1935730.75073104 kcal/mol
***********************************************************

 SCF   energy in the final basis set =    -3084.7833223079
 Total energy in the final basis set =    -3084.7833223079
 
 --------------------------------------------------------------
 
                    Orbital Energies (a.u.)
 --------------------------------------------------------------
 
 Alpha MOs
 -- Occupied --
-14.668 -14.668 -10.489 -10.489 -10.489 -10.488 -10.483 -10.483
-10.465 -10.464 -10.464 -10.464 -10.464 -10.464 -10.463 -10.463
-10.462 -10.462 -10.462 -10.462 -10.462 -10.461 -10.460 -10.460
-10.460 -10.459 -10.459 -10.459 -10.459 -10.459 -10.454 -10.453
-10.451 -10.451 -10.448 -10.448 -10.448 -10.448 -10.448 -10.447
-10.447 -10.447 -10.447 -10.447 -10.447 -10.447 -10.446 -10.446
-10.444 -10.444 -10.443 -10.443 -10.443 -10.443 -10.443 -10.443
-10.442 -10.442 -10.442 -10.441 -10.434 -10.434 -10.433 -10.433
-10.433 -10.433 -10.433 -10.432 -10.432 -10.432 -10.432 -10.431
-10.420 -10.419 -10.419 -10.419 -10.418 -10.418  -6.949  -6.947
 -1.078  -1.078  -1.016  -1.015  -0.963  -0.960  -0.959  -0.959
 -0.959  -0.958  -0.939  -0.939  -0.933  -0.933  -0.908  -0.900
 -0.888  -0.887  -0.867  -0.865  -0.854  -0.853  -0.850  -0.850
 -0.847  -0.846  -0.839  -0.839  -0.837  -0.836  -0.824  -0.821
 -0.819  -0.813  -0.812  -0.804  -0.798  -0.798  -0.790  -0.789
 -0.734  -0.730  -0.727  -0.720  -0.716  -0.715  -0.710  -0.709
 -0.698  -0.698  -0.697  -0.697  -0.689  -0.681  -0.681  -0.680
 -0.679  -0.673  -0.667  -0.665  -0.649  -0.647  -0.638  -0.636
 -0.630  -0.629  -0.604  -0.604  -0.595  -0.594  -0.592  -0.589
 -0.586  -0.584  -0.584  -0.575  -0.574  -0.562  -0.561  -0.554
 -0.553  -0.543  -0.543  -0.541  -0.541  -0.537  -0.528  -0.524
 -0.523  -0.522  -0.516  -0.511  -0.510  -0.507  -0.502  -0.502
 -0.501  -0.499  -0.497  -0.496  -0.496  -0.496  -0.494  -0.490
 -0.488  -0.487  -0.484  -0.483  -0.483  -0.483  -0.483  -0.482
 -0.481  -0.481  -0.478  -0.477  -0.475  -0.468  -0.466  -0.465
 -0.462  -0.455  -0.454  -0.450  -0.442  -0.441  -0.435  -0.434
 -0.434  -0.432  -0.430  -0.427  -0.426  -0.426  -0.425  -0.424
 -0.422  -0.422  -0.420  -0.416  -0.412  -0.411  -0.406  -0.405
 -0.404  -0.402  -0.399  -0.397  -0.397  -0.397  -0.396  -0.395
 -0.394  -0.394  -0.392  -0.391  -0.390  -0.388  -0.387  -0.384
 -0.378  -0.370  -0.367  -0.364  -0.355  -0.354  -0.350  -0.349
 -0.341  -0.339  -0.317  -0.312  -0.303  -0.302  -0.298  -0.297
 -0.295  -0.294  -0.294  -0.293  -0.285  -0.283  -0.279  -0.272
 -0.272  -0.261  -0.256  -0.255  -0.219  -0.218
 -- Virtual --
 -0.090  -0.058  -0.036  -0.029  -0.004   0.005   0.006   0.006
  0.008   0.009   0.011   0.012   0.017   0.029   0.030   0.032
  0.034   0.047   0.058   0.059   0.070   0.083   0.088   0.092
  0.119   0.124   0.139   0.141   0.142   0.145   0.147   0.148
  0.154   0.156   0.158   0.161   0.164   0.166   0.168   0.169
  0.171   0.174   0.180   0.182   0.184   0.185   0.186   0.192
  0.193   0.194   0.195   0.196   0.201   0.201   0.202   0.202
  0.203   0.203   0.206   0.207   0.208   0.211   0.212   0.212
  0.213   0.214   0.216   0.216   0.217   0.218   0.219   0.221
  0.222   0.223   0.224   0.228   0.230   0.232   0.234   0.236
  0.236   0.237   0.238   0.238   0.239   0.239   0.240   0.241
  0.245   0.247   0.249   0.250   0.252   0.253   0.253   0.254
  0.254   0.256   0.263   0.267   0.269   0.269   0.272   0.276
  0.277   0.281   0.281   0.283   0.285   0.290   0.291   0.295
  0.297   0.297   0.300   0.301   0.301   0.307   0.308   0.309
  0.313   0.315   0.316   0.319   0.321   0.322   0.323   0.326
  0.328   0.329   0.332   0.333   0.335   0.336   0.338   0.347
  0.348   0.350   0.355   0.360   0.362   0.364   0.368   0.373
  0.375   0.382   0.388   0.390   0.396   0.399   0.401   0.403
  0.408   0.415   0.417   0.420   0.427   0.429   0.435   0.440
  0.446   0.446   0.450   0.452   0.455   0.458   0.460   0.461
  0.466   0.467   0.469   0.473   0.478   0.484   0.485   0.492
  0.495   0.498   0.500   0.502   0.504   0.511   0.514   0.517
  0.521   0.521   0.523   0.526   0.526   0.528   0.529   0.530
  0.534   0.535   0.537   0.538   0.540   0.540   0.542   0.543
  0.544   0.548   0.549   0.550   0.553   0.554   0.559   0.559
  0.560   0.562   0.563   0.565   0.566   0.568   0.571   0.572
  0.575   0.576   0.578   0.580   0.582   0.584   0.586   0.589
  0.590   0.591   0.592   0.593   0.594   0.596   0.597   0.599
  0.599   0.600   0.600   0.603   0.604   0.606   0.607   0.608
  0.609   0.614   0.615   0.616   0.619   0.620   0.620   0.621
  0.621   0.621   0.623   0.624   0.627   0.627   0.627   0.629
  0.630   0.630   0.631   0.631   0.634   0.634   0.639   0.644
  0.646   0.649   0.649   0.652   0.653   0.653   0.654   0.655
  0.656   0.656   0.656   0.658   0.659   0.660   0.663   0.666
  0.668   0.670   0.673   0.673   0.676   0.678   0.681   0.685
  0.687   0.689   0.692   0.693   0.694   0.696   0.697   0.699
  0.700   0.703   0.705   0.706   0.709   0.711   0.713   0.714
  0.715   0.720   0.720   0.723   0.724   0.730   0.735   0.737
  0.740   0.741   0.744   0.748   0.752   0.756   0.757   0.760
  0.763   0.764   0.770   0.772   0.776   0.777   0.780   0.783
  0.786   0.792   0.796   0.798   0.803   0.803   0.805   0.806
  0.808   0.810   0.813   0.816   0.823   0.825   0.831   0.834
  0.838   0.839   0.842   0.846   0.850   0.856   0.861   0.862
  0.865   0.868   0.872   0.881   0.888   0.894   0.897   0.902
  0.904   0.910   0.914   0.914   0.917   0.919   0.921   0.928
  0.931   0.937   0.938   0.942   0.947   0.949   0.949   0.951
  0.952   0.953   0.954   0.955   0.956   0.958   0.959   0.961
  0.962   0.963   0.965   0.967   0.969   0.970   0.972   0.973
  0.982   0.984   0.986   0.986   0.989   0.990   0.991   0.992
  0.994   0.995   1.001   1.004   1.007   1.009   1.010   1.011
  1.011   1.014   1.020   1.021   1.024   1.024   1.028   1.031
  1.033   1.037   1.039   1.042   1.044   1.046   1.047   1.048
  1.050   1.051   1.053   1.056   1.056   1.057   1.059   1.063
  1.067   1.068   1.069   1.073   1.073   1.076   1.078   1.079
  1.080   1.084   1.086   1.087   1.089   1.089   1.092   1.095
  1.100   1.103   1.106   1.107   1.109   1.115   1.116   1.124
  1.125   1.129   1.131   1.133   1.138   1.144   1.147   1.151
  1.152   1.153   1.155   1.157   1.161   1.162   1.166   1.167
  1.170   1.172   1.175   1.183   1.184   1.190   1.193   1.193
  1.198   1.199   1.202   1.204   1.208   1.211   1.217   1.220
  1.221   1.224   1.229   1.233   1.240   1.245   1.254   1.259
  1.262   1.263   1.265   1.265   1.267   1.272   1.274   1.276
  1.281   1.286   1.287   1.291   1.293   1.296   1.299   1.300
  1.302   1.308   1.311   1.314   1.317   1.319   1.321   1.321
  1.325   1.327   1.330   1.333   1.338   1.343   1.345   1.349
  1.350   1.353   1.360   1.363   1.366   1.370   1.371   1.375
  1.377   1.378   1.380   1.385   1.392   1.396   1.404   1.409
  1.411   1.413   1.415   1.416   1.423   1.429   1.441   1.442
  1.443   1.445   1.453   1.456   1.459   1.470   1.471   1.473
  1.481   1.482   1.483   1.493   1.498   1.508   1.510   1.511
  1.511   1.511   1.512   1.514   1.518   1.518   1.519   1.527
  1.531   1.531   1.532   1.533   1.540   1.543   1.546   1.549
  1.550   1.551   1.552   1.552   1.557   1.560   1.560   1.561
  1.565   1.568   1.571   1.572   1.573   1.573   1.576   1.581
  1.584   1.587   1.589   1.596   1.600   1.601   1.604   1.606
  1.607   1.617   1.619   1.627   1.630   1.639   1.642   1.650
  1.657   1.660   1.673   1.679   1.691   1.698   1.716   1.720
  1.740   1.743   1.746   1.747   1.749   1.755   1.759   1.763
  1.773   1.775   1.778   1.786   1.787   1.790   1.792   1.799
  1.807   1.810   1.810   1.811   1.811   1.812   1.818   1.819
  1.819   1.822   1.831   1.831   1.839   1.848   1.855   1.857
  1.862   1.867   1.868   1.873   1.877   1.884   1.894   1.895
  1.896   1.898   1.901   1.907   1.909   1.919   1.919   1.925
  1.930   1.933   1.934   1.940   1.941   1.944   1.945   1.946
  1.948   1.970   1.978   1.980   1.982   1.983   1.986   1.989
  1.992   1.993   1.998   2.003   2.009   2.019   2.020   2.021
  2.024   2.025   2.031   2.034   2.035   2.036   2.037   2.047
  2.062   2.065   2.066   2.067   2.072   2.073   2.074   2.075
  2.077   2.079   2.081   2.085   2.089   2.098   2.103   2.105
  2.112   2.113   2.121   2.131   2.132   2.139   2.142   2.147
  2.147   2.150   2.155   2.156   2.158   2.161   2.162   2.166
  2.170   2.180   2.181   2.189   2.194   2.194   2.199   2.202
  2.204   2.205   2.206   2.207   2.208   2.212   2.213   2.217
  2.221   2.225   2.225   2.232   2.232   2.235   2.237   2.250
  2.252   2.256   2.257   2.258   2.262   2.263   2.265   2.267
  2.268   2.278   2.281   2.283   2.288   2.292   2.292   2.294
  2.305   2.315   2.316   2.318   2.320   2.321   2.322   2.323
  2.335   2.337   2.338   2.343   2.346   2.346   2.347   2.351
  2.352   2.357   2.359   2.362   2.366   2.367   2.370   2.373
  2.374   2.375   2.384   2.386   2.389   2.390   2.391   2.392
  2.393   2.396   2.402   2.405   2.411   2.412   2.413   2.417
  2.418   2.422   2.424   2.433   2.435   2.438   2.444   2.450
  2.457   2.462   2.472   2.475   2.477   2.479   2.482   2.489
  2.491   2.494   2.496   2.500   2.503   2.507   2.511   2.511
  2.522   2.526   2.530   2.551   2.561   2.570   2.573   2.591
  2.611   2.615   2.616   2.628   2.634   2.639   2.642   2.643
  2.645   2.647   2.650   2.659   2.661   2.668   2.678   2.681
  2.685   2.688   2.689   2.691   2.694   2.697   2.713   2.715
  2.725   2.727   2.729   2.734   2.737   2.739   2.739   2.740
  2.740   2.753   2.758   2.759   2.760   2.762   2.766   2.767
  2.780   2.785   2.787   2.788   2.789   2.790   2.792   2.793
  2.793   2.794   2.806   2.809   2.811   2.814   2.814   2.815
  2.817   2.824   2.825   2.827   2.829   2.830   2.842   2.850
  2.852   2.858   2.858   2.862   2.872   2.882   2.889   2.902
  2.904   2.908   2.911   2.916   2.925   2.927   2.930   2.931
  2.942   2.945   2.960   2.980   2.993   3.007   3.008   3.010
  3.012   3.020   3.032   3.037   3.038   3.046   3.082   3.085
  3.085   3.106   3.113   3.148   3.154   3.239   3.256   3.259
  3.317   3.319   3.343   3.345   3.407   3.446   3.451   3.484
  3.486   3.493   3.495   3.498   3.513   3.515   3.551   3.559
  3.670   3.684   9.582   9.735  13.143  13.177  13.247  13.248
 13.280  13.281  13.437  13.496  13.512  13.516  13.527  13.550
 13.672  13.673  13.674  13.680  13.686  13.691  13.712  13.712
 13.715  13.716  13.729  13.762  13.770  13.795  13.803  13.808
 13.862  13.874  13.895  13.912  13.921  13.990  14.000  14.023
 14.036  14.039  14.043  14.046  14.050  14.055  14.154  14.154
 14.156  14.157  14.159  14.164  14.165  14.182  14.184  14.185
 14.185  14.202  14.227  14.241  14.247  14.278  14.290  14.294
 14.311  14.316  14.349  14.349  14.514  14.518  14.571  14.580
 14.584  14.585  14.586  14.587  14.588  14.588  14.605  14.613
 19.690  19.691
 --------------------------------------------------------------
 
          Ground-State Mulliken Net Atomic Charges

     Atom                 Charge (a.u.)
  ----------------------------------------
      1 C                    -0.152877
      2 C                    -0.385967
      3 H                     0.233096
      4 C                     0.087810
      5 C                     0.112145
      6 C                    -0.392403
      7 H                     0.234879
      8 C                    -0.152631
      9 C                     0.197029
     10 C                    -0.378325
     11 H                     0.217223
     12 C                    -0.064595
     13 C                     0.252187
     14 C                     0.198347
     15 C                    -0.386245
     16 H                     0.217880
     17 C                    -0.205102
     18 H                     0.226177
     19 C                    -0.332383
     20 H                     0.220095
     21 C                    -0.336757
     22 H                     0.220497
     23 C                    -0.202697
     24 H                     0.226118
     25 B                     0.661985
     26 C                    -0.152997
     27 C                    -0.384371
     28 H                     0.231892
     29 C                     0.086338
     30 C                     0.114183
     31 C                    -0.397360
     32 H                     0.232336
     33 C                    -0.151118
     34 C                     0.196853
     35 C                    -0.376259
     36 H                     0.216740
     37 C                    -0.063727
     38 C                     0.253450
     39 C                     0.197358
     40 C                    -0.386567
     41 H                     0.218959
     42 C                    -0.205531
     43 H                     0.225971
     44 C                    -0.332760
     45 H                     0.220186
     46 C                    -0.337388
     47 H                     0.220557
     48 C                    -0.202664
     49 H                     0.226354
     50 B                     0.661280
     51 C                    -0.222367
     52 C                     0.080606
     53 C                    -0.353950
     54 H                     0.234053
     55 C                     0.309967
     56 C                    -0.361994
     57 H                     0.234991
     58 C                     0.074820
     59 N                    -0.675197
     60 C                     0.294681
     61 C                    -0.278288
     62 H                     0.244617
     63 C                    -0.214047
     64 H                     0.220211
     65 C                    -0.237760
     66 H                     0.217560
     67 C                    -0.213720
     68 H                     0.218768
     69 C                    -0.276631
     70 H                     0.240767
     71 C                     0.286086
     72 C                    -0.275478
     73 H                     0.244239
     74 C                    -0.215013
     75 H                     0.220447
     76 C                    -0.236471
     77 H                     0.218068
     78 C                    -0.214528
     79 H                     0.219871
     80 C                    -0.272088
     81 H                     0.242215
     82 C                    -0.552307
     83 H                     0.231838
     84 H                     0.256268
     85 C                    -0.548964
     86 H                     0.230280
     87 H                     0.251613
     88 C                    -0.645552
     89 H                     0.240510
     90 H                     0.219712
     91 H                     0.217230
     92 C                    -0.644300
     93 H                     0.242270
     94 H                     0.218107
     95 H                     0.217505
     96 C                    -0.233984
     97 C                     0.081106
     98 C                    -0.354029
     99 H                     0.233614
    100 C                     0.315224
    101 C                    -0.357458
    102 H                     0.234350
    103 C                     0.075797
    104 N                    -0.675871
    105 C                     0.291777
    106 C                    -0.274093
    107 H                     0.239771
    108 C                    -0.213201
    109 H                     0.217348
    110 C                    -0.237688
    111 H                     0.217728
    112 C                    -0.213420
    113 H                     0.220429
    114 C                    -0.278040
    115 H                     0.245198
    116 C                     0.286675
    117 C                    -0.271013
    118 H                     0.239899
    119 C                    -0.214122
    120 H                     0.218604
    121 C                    -0.236736
    122 H                     0.218037
    123 C                    -0.214215
    124 H                     0.220624
    125 C                    -0.276024
    126 H                     0.244970
    127 C                    -0.556262
    128 H                     0.234116
    129 H                     0.256233
    130 C                    -0.549750
    131 H                     0.232062
    132 H                     0.251517
    133 C                    -0.641207
    134 H                     0.240604
    135 H                     0.217896
    136 H                     0.216353
    137 C                    -0.640496
    138 H                     0.235758
    139 H                     0.219861
    140 H                     0.216214
  ----------------------------------------
  Sum of atomic charges =    -0.000000

 -----------------------------------------------------------------
                    Cartesian Multipole Moments
 -----------------------------------------------------------------
    Charge (ESU x 10^10)
                -0.0000
    Dipole Moment (Debye)
         X       0.1390      Y      -0.0156      Z       0.0514
       Tot       0.1490
    Quadrupole Moments (Debye-Ang)
        XX    -419.8406     XY       2.3801     YY    -461.3952
        XZ     -11.8871     YZ      -1.8273     ZZ    -408.3403
    Octopole Moments (Debye-Ang^2)
       XXX     -66.3119    XXY     176.2775    XYY     -49.5143
       YYY     302.9435    XXZ     595.1195    XYZ     -55.3060
       YYZ     652.3669    XZZ      21.9398    YZZ      61.8971
       ZZZ    1785.5569
    Hexadecapole Moments (Debye-Ang^3)
      XXXX  -67261.6420   XXXY    -708.5279   XXYY  -12639.3316
      XYYY    -872.6372   YYYY   -8035.7405   XXXZ   -9337.4838
      XXYZ    -401.3544   XYYZ   -2256.4790   YYYZ    -365.2594
      XXZZ  -18820.5095   XYZZ    -142.1831   YYZZ   -9891.0193
      XZZZ  -10035.2802   YZZZ    -604.3855   ZZZZ  -45781.8132
 -----------------------------------------------------------------
 Calculating analytic gradient of the SCF energy
 -1.332772649732543E-003 -1.332731660812422E-003
 -1.332751374152712E-003 -1.332753044288510E-003
 -1.332762163932310E-003 -1.332742131492491E-003
 -1.332754978124903E-003 -1.332749321815402E-003
 -1.332748918244596E-003 -1.332755513837589E-003
 -1.332732219148966E-003 -1.332772088159364E-003
 -1.332776291701490E-003 -1.332728011723022E-003
 -1.332752638477601E-003 -1.332751739963487E-003
 -1.332754313988872E-003 -1.332750000679181E-003
 -1.332782022949824E-003 -1.332722288683174E-003
 -1.332751397499717E-003 -1.332753029547976E-003
 -1.332738027520023E-003 -1.332766270002294E-003
 -1.332748203816422E-003 -1.332756092439294E-003
 -1.332751878446796E-003 -1.332752546422418E-003
 -1.332716939622117E-003 -1.332787376083386E-003
 -1.332766310943240E-003 -1.332738009602059E-003
 -1.332752938176345E-003 -1.332751493924774E-003
 -1.332741641406935E-003 -1.332762647033005E-003
 -1.332738201128160E-003 -1.332766116994840E-003
 -1.332753657628277E-003 -1.332750721728971E-003
 -1.332730702990044E-003 -1.332773602400207E-003
 -1.332733357034595E-003 -1.332770952251736E-003
 -1.332752833675003E-003 -1.332751582118063E-003
 -1.332736770372884E-003 -1.332767524413000E-003
 -1.332767606297590E-003 -1.332736678750208E-003
 -1.332750276416439E-003 -1.332754147657999E-003
 -1.332740708867322E-003 -1.332763604876227E-003
 -1.332789096515757E-003 -1.332715222020722E-003
 -1.332751464022842E-003 -1.332752959093949E-003
 -1.332731760410857E-003 -1.332772529213228E-003
 -1.332764935513647E-003 -1.332739374629322E-003
 -1.332757649935922E-003 -1.332746701005482E-003
 -1.332744829227621E-003 -1.332759465594528E-003
 -1.332763734735718E-003 -1.332740586671549E-003
 -1.332751235926674E-003 -1.332753193603479E-003
 -1.332731179497779E-003 -1.332773136038695E-003
 -1.332736447700421E-003 -1.332767839578286E-003
 -1.332751738483448E-003 -1.332752659839216E-003
 -1.332782059694451E-003 -1.332722252581378E-003
 -1.332753464439670E-003 -1.332750829014767E-003
 -1.332751735002192E-003 -1.332752689205249E-003
 -1.332731946857169E-003 -1.332772357923303E-003
 -1.332750356004962E-003 -1.332753945485373E-003
 -1.332750335148859E-003 -1.332754090528234E-003
 -1.332710974599989E-003 -1.332793338815966E-003
 -1.332752010746508E-003 -1.332752286671101E-003
 -1.332750817899908E-003 -1.332753535281102E-003
 -1.332737687953803E-003 -1.332766625683509E-003
 -1.332749772306843E-003 -1.332754491653541E-003
 -1.332752098397458E-003 -1.332752303649958E-003
 -1.332778747959853E-003 -1.332725573635662E-003
 -1.332760844583293E-003 -1.332743424307876E-003
 -1.332754150155579E-003 -1.332750181545716E-003
 -1.332742149512307E-003 -1.332762150436121E-003
 -1.332759439359061E-003 -1.332744878930322E-003
 -1.332751933949710E-003 -1.332752475233171E-003
 -1.332726496817823E-003 -1.332777774208684E-003
 -1.332742077580157E-003 -1.332762252886520E-003
 -1.332751686816452E-003 -1.332752674962000E-003
 -1.332769939556176E-003 -1.332734327724007E-003
 -1.332769049859178E-003 -1.332735234298224E-003
 -1.332752626487550E-003 -1.332751783591047E-003
 -1.332731961584435E-003 -1.332772338843112E-003
 -1.332742781860669E-003 -1.332761527285204E-003
 -1.332751898208624E-003 -1.332752463560944E-003
 -1.332770717332583E-003 -1.332733569126013E-003
 -1.332730597480699E-003 -1.332773684136354E-003
 -1.332751005486169E-003 -1.332753397453874E-003
 -1.332767893431470E-003 -1.332736414615311E-003
 -1.332756102361063E-003 -1.332748179542882E-003
 -1.332751134708808E-003 -1.332753197464842E-003
 -1.332739302276048E-003 -1.332764987494394E-003
 -1.332745762517413E-003 -1.332758548019462E-003
 -1.332753160918079E-003 -1.332751222030311E-003
 -1.332745267835854E-003 -1.332759039856039E-003
 -1.332769213033486E-003 -1.332735093087629E-003
 -1.332757002055525E-003 -1.332747414885870E-003
 -1.332768682642954E-003 -1.332735614399680E-003
 -1.332739827569954E-003 -1.332764492020922E-003
 -1.332751644319004E-003 -1.332752788510854E-003
 -1.332763933965287E-003 -1.332740353699636E-003
 -1.332763659843457E-003 -1.332740656723077E-003
 -1.332748189046408E-003 -1.332756189995657E-003
 -1.332772777650679E-003 -1.332731526956399E-003
 -1.332753153983403E-003 -1.332751139932512E-003
 -1.332751490128110E-003 -1.332752935063637E-003
 -1.332787686240250E-003 -1.332716626856727E-003
 -1.332724331109771E-003 -1.332779985621053E-003
 -1.332748789949669E-003 -1.332755633708480E-003
 -1.332767500449105E-003 -1.332736799348920E-003
 -1.332747613568081E-003 -1.332756688549137E-003
 -1.332747710565497E-003 -1.332756718804099E-003
 -1.332775177615676E-003 -1.332729124589993E-003
 -1.332727805682908E-003 -1.332776501727051E-003
 -1.332744289623321E-003 -1.332760085758999E-003
 -1.332749828322627E-003 -1.332754486774567E-003
 -1.332733405893949E-003 -1.332770902998847E-003
 -1.332753044409242E-003 -1.332751368092634E-003
 -1.332741519234453E-003 -1.332762775296103E-003
 -1.332751559891534E-003 -1.332752736102689E-003
 -1.332751479335999E-003 -1.332752944351752E-003
 -1.332770438551238E-003 -1.332733865616438E-003
 -1.332751318781098E-003 -1.332752980479234E-003
 -1.332748747908831E-003 -1.332755676417073E-003
 -1.332795308214356E-003 -1.332709003425333E-003
 -1.332750288376952E-003 -1.332754002072659E-003
 -1.332749692800845E-003 -1.332754661096919E-003
 -1.332765915107700E-003 -1.332738400306451E-003
 -1.332738802938959E-003 -1.332765508053382E-003
 -1.332748492734754E-003 -1.332755934475078E-003
 -1.332773007478337E-003 -1.332731313854560E-003
 -1.332773491931414E-003 -1.332730795229889E-003
 -1.332751342143593E-003 -1.332753054228077E-003
 -1.332723693118696E-003 -1.332780618677179E-003
 -1.332737156510943E-003 -1.332767126221892E-003
 -1.332748829584026E-003 -1.332755588258608E-003
 -1.332759506657539E-003 -1.332744808327956E-003
 -1.332717264991814E-003 -1.332787051969648E-003
 -1.332746667034633E-003 -1.332757753283266E-003
 -1.332773982199851E-003 -1.332730306776081E-003
 -1.332739858156981E-003 -1.332764446464274E-003
 -1.332753577063397E-003 -1.332750770609584E-003
 -1.332755366842682E-003 -1.332748929243695E-003
 -1.332775031091848E-003 -1.332729255093433E-003
 -1.332751494026196E-003 -1.332752911867599E-003
 -1.332737760923623E-003 -1.332766540508263E-003
 -1.332747770173133E-003 -1.332756512952460E-003
 -1.332748752313388E-003 -1.332755581332107E-003
 -1.332763742925916E-003 -1.332740544270968E-003
 -1.332730875861091E-003 -1.332773405348514E-003
 -1.332748203262732E-003 -1.332756205713742E-003
 -1.332769195727822E-003 -1.332735116708284E-003
 -1.332763275662621E-003 -1.332741025437900E-003
 -1.332751671100128E-003 -1.332752690754387E-003
 -1.332734981910810E-003 -1.332769313913569E-003
 -1.332738599715841E-003 -1.332765700175553E-003
 -1.332748293040579E-003 -1.332756111007737E-003
 -1.332775902527632E-003 -1.332728374539670E-003
 -1.332764650871194E-003 -1.332739671147551E-003
 -1.332751838702614E-003 -1.332752521959216E-003
 -1.332735657912932E-003 -1.332768614371332E-003
 -1.332761878453002E-003 -1.332742389775067E-003
 -1.332751467989639E-003 -1.332752929342066E-003
 -1.332723934043534E-003 -1.332780394232833E-003
 -1.332742545702208E-003 -1.332761725785665E-003
 -1.332750311313663E-003 -1.332754019130913E-003
 -1.332762928949315E-003 -1.332741385692700E-003
 -1.332761070650003E-003 -1.332743241925216E-003
 -1.332752800243710E-003 -1.332751581279548E-003
 -1.332760621703984E-003 -1.332743690752848E-003
 -1.332733854290240E-003 -1.332770467228972E-003
 -1.332740506017099E-003 -1.332763795626813E-003
 -1.332742085602589E-003 -1.332762229403094E-003
 -1.332788698138925E-003 -1.332715605661429E-003
 -1.332780481048811E-003 -1.332723818413963E-003
 -1.332761934555197E-003 -1.332742395482826E-003
 -1.332742624500377E-003 -1.332761698776963E-003
 -1.332743301763556E-003 -1.332760969489625E-003
 -1.332728092419595E-003 -1.332776249754513E-003
 -1.332772901808448E-003 -1.332731421105114E-003
 -1.332759618411576E-003 -1.332744652649176E-003
 -1.332743940746076E-003 -1.332760380661437E-003
 -1.332797780968357E-003 -1.332706530151416E-003
 -1.332763246313733E-003 -1.332741050406218E-003
 -1.332771603208952E-003 -1.332732732848848E-003
 -1.332727961101726E-003 -1.332776381790897E-003
 -1.332746262206066E-003 -1.332758012165203E-003
 -1.332760780511851E-003 -1.332743543671740E-003
 -1.332760632057927E-003 -1.332743692735262E-003
 -1.332751255273427E-003 -1.332753029610751E-003
 -1.332779519435827E-003 -1.332724781257224E-003
 -1.332793833830487E-003 -1.332710488968707E-003
 -1.332737498149071E-003 -1.332766795134436E-003
 -1.332780761965587E-003 -1.332723556700491E-003
 -1.332738083867802E-003 -1.332766270049970E-003
 -1.332750841003452E-003 -1.332753433367733E-003
 -1.332744271254128E-003 -1.332760102135649E-003
 -1.332762488505063E-003 -1.332741865169187E-003
 -1.332744151491352E-003 -1.332760161525885E-003
 -1.332783010701444E-003 -1.332721308956297E-003
 -1.332750000817579E-003 -1.332754333686807E-003
 -1.332754715955348E-003 -1.332749584440657E-003
 -1.332708069543815E-003 -1.332796252928127E-003
 -1.332769207960329E-003 -1.332735074294818E-003
 -1.332755769150918E-003 -1.332748527366348E-003
 -1.332745156540424E-003 -1.332759146121909E-003
 -1.332761674240859E-003 -1.332742682998558E-003
 -1.332762316054467E-003 -1.332742002225279E-003
 -1.332771010853418E-003 -1.332733269198029E-003
 -1.332761773186641E-003 -1.332742566787703E-003
 -1.332750230981926E-003 -1.332754089700930E-003
 -1.332736840201914E-003 -1.332767431373510E-003
 -1.332760631958438E-003 -1.332743720126858E-003
 -1.332742046709831E-003 -1.332762263082462E-003
 -1.332723198755616E-003 -1.332781122103239E-003
 -1.332758049519469E-003 -1.332746300380262E-003
 -1.332758878056187E-003 -1.332745429538135E-003
 -1.332757489476559E-003 -1.332746831048312E-003
 -1.332760031061297E-003 -1.332744310852987E-003
 -1.332759405598227E-003 -1.332744916164104E-003
 -1.332789169361583E-003 -1.332715121140827E-003
 -1.332764894291215E-003 -1.332739389877743E-003
 -1.332742941428792E-003 -1.332761362380047E-003
 -1.332748023269208E-003 -1.332756273537459E-003
 -1.332759644922560E-003 -1.332744709018397E-003
 -1.332730744676440E-003 -1.332773567110833E-003
 -1.332758058825189E-003 -1.332746244229256E-003
 -1.332753442589282E-003 -1.332750897267174E-003
 -1.332730313766912E-003 -1.332774015803212E-003
 -1.332779548155358E-003 -1.332724719998520E-003
 -1.332773472210417E-003 -1.332730854205477E-003
 -1.332762268484289E-003 -1.332742034240320E-003
 -1.332738167739946E-003 -1.332766178129449E-003
 -1.332722745223152E-003 -1.332781587099099E-003
 -1.332748896418367E-003 -1.332755381501046E-003
 -1.332783169784885E-003 -1.332721158753742E-003
 -1.332758449960491E-003 -1.332745848570664E-003
 -1.332750339750276E-003 -1.332753950200876E-003
 -1.332768676035830E-003 -1.332735610116545E-003
 -1.332772332209171E-003 -1.332731980136061E-003
 -1.332742661247225E-003 -1.332761643463019E-003
 -1.332748166724235E-003 -1.332756168337428E-003
 -1.332750195325584E-003 -1.332754109369810E-003
 -1.332755957113689E-003 -1.332748350782622E-003
 -1.332771023998082E-003 -1.332733292160900E-003
 -1.332738468621394E-003 -1.332765866542760E-003
 -1.332763809417555E-003 -1.332740479308177E-003
 -1.332778073957801E-003 -1.332726264755984E-003
 -1.332761168115245E-003 -1.332743166264454E-003
 -1.332746961636329E-003 -1.332757341544990E-003
 -1.332756430521747E-003 -1.332747908329209E-003
 -1.332782051482514E-003 -1.332722249788101E-003
 -1.332747560810970E-003 -1.332756745469431E-003
 -1.332735616753798E-003 -1.332768716500023E-003
 -1.332754278188406E-003 -1.332750011301540E-003
 -1.332765777567612E-003 -1.332738520645478E-003
 -1.332765896056693E-003 -1.332738399785513E-003
 -1.332757156262533E-003 -1.332747190246556E-003
 -1.332775719752712E-003 -1.332728574572051E-003
 -1.332751029013942E-003 -1.332753288128118E-003
 -1.332764656079027E-003 -1.332739666160562E-003
 -1.332775630950791E-003 -1.332728679431074E-003
 -1.332730895305869E-003 -1.332773398524945E-003
 -1.332755221475377E-003 -1.332749109453115E-003
 -1.332758300011373E-003 -1.332745993024608E-003
 -1.332745245569350E-003 -1.332759034355477E-003
 -1.332761585546358E-003 -1.332742744719006E-003
 -1.332760529401904E-003 -1.332743751783866E-003
 -1.332764385869414E-003 -1.332739906917443E-003
 -1.332755939833492E-003 -1.332748392124568E-003
 -1.332756274207489E-003 -1.332748043393447E-003
 -1.332770752033578E-003 -1.332733551891728E-003
 -1.332744547727768E-003 -1.332759758972058E-003
 -1.332740716363794E-003 -1.332763593352756E-003
 -1.332765817722965E-003 -1.332738484277155E-003
 -1.332760495578838E-003 -1.332743818257855E-003
 -1.332745232524396E-003 -1.332759063038103E-003
 -1.332750614618628E-003 -1.332753690519291E-003
 -1.332768057262898E-003 -1.332736267635344E-003
 -1.332753264980425E-003 -1.332751053850920E-003
 -1.332750213095666E-003 -1.332754104777345E-003
 -1.332780091587544E-003 -1.332724185311127E-003
 -1.332752629901674E-003 -1.332751677747447E-003
 -1.332753495529332E-003 -1.332750826407825E-003
 -1.332749595183781E-003 -1.332754718289103E-003
 -1.332739665158951E-003 -1.332764632600864E-003
 -1.332765136924388E-003 -1.332739158948800E-003
 -1.332762157507988E-003 -1.332742130383746E-003
 -1.332720164853366E-003 -1.332784144293873E-003
 -1.332753913213744E-003 -1.332750385591605E-003
 -1.332749806725789E-003 -1.332754498773452E-003
 -1.332736143561999E-003 -1.332768165653107E-003
 -1.332766852841450E-003 -1.332737464773839E-003
 -1.332772631077459E-003 -1.332731701202654E-003
 -1.332758950577727E-003 -1.332745347206206E-003
 -1.332772394190226E-003 -1.332731872975296E-003
 -1.332756766350128E-003 -1.332747555108688E-003
 -1.332768385931525E-003 -1.332735898447746E-003
 -1.332743117546132E-003 -1.332761166420167E-003
 -1.332764445254709E-003 -1.332739871312062E-003
 -1.332770408668244E-003 -1.332733901765141E-003
 -1.332745107563606E-003 -1.332759195954956E-003
 -1.332749168872823E-003 -1.332755139892105E-003
 -1.332782293384853E-003 -1.332721997714809E-003
 -1.332758544908703E-003 -1.332745744630118E-003
 -1.332769511224125E-003 -1.332734807615234E-003
 -1.332742053149263E-003 -1.332762249553198E-003
 -1.332761675456965E-003 -1.332742635570400E-003
 -1.332717025381220E-003 -1.332787288440912E-003
 -1.332779221423235E-003 -1.332725076025054E-003
 -1.332734876126657E-003 -1.332769439675532E-003
 -1.332765124712869E-003 -1.332739203924926E-003
 -1.332744935137684E-003 -1.332759336115761E-003
 -1.332768814335994E-003 -1.332735517340982E-003
 -1.332734470590902E-003 -1.332769858737097E-003
 -1.332761536169525E-003 -1.332742736307471E-003
 -1.332751716815536E-003 -1.332752603519180E-003
 -1.332708444705296E-003 -1.332795863663192E-003
 -1.332761062795768E-003 -1.332743244123786E-003
 -1.332727391910967E-003 -1.332776928964883E-003
 -1.332771452697501E-003 -1.332732885160033E-003
 -1.332745728457110E-003 -1.332758543990506E-003
 -1.332754339821423E-003 -1.332749986630732E-003
 -1.332739218012251E-003 -1.332765101356130E-003
 -1.332748496852304E-003 -1.332755786593053E-003
 -1.332734053307341E-003 -1.332770259388283E-003
 -1.332710621129363E-003 -1.332793693581759E-003
 -1.332735038649273E-003 -1.332769254665626E-003
 -1.332725016237090E-003 -1.332779307161557E-003
 -1.332763086107385E-003 -1.332741260888656E-003
 -1.332750420644524E-003 -1.332753870924209E-003
 -1.332759403611025E-003 -1.332744953800166E-003
 -1.332742102490125E-003 -1.332762247053320E-003
 -1.332738415122902E-003 -1.332765902034100E-003
 -1.332726839059955E-003 -1.332777477506131E-003
 -1.332738339449303E-003 -1.332766011383932E-003
 -1.332730691217745E-003 -1.332773626401704E-003
 -1.332749411210597E-003 -1.332754884314011E-003
 -1.332751004144673E-003 -1.332753336613157E-003
 -1.332719909842963E-003 -1.332784403444518E-003
 -1.332735233752981E-003 -1.332769046107053E-003
 -1.332746733954696E-003 -1.332757609146590E-003
 -1.332751335512449E-003 -1.332752991730628E-003
 -1.332718646438354E-003 -1.332785644551945E-003
 -1.332740251046139E-003 -1.332764033045809E-003
 -1.332744263968224E-003 -1.332760049289257E-003
 -1.332759106899274E-003 -1.332745191244260E-003
 -1.332741620670139E-003 -1.332762729927492E-003
 -1.332751197205194E-003 -1.332753122759719E-003
 -1.332781474899087E-003 -1.332722838917929E-003
 -1.332747488411872E-003 -1.332756861730231E-003
 -1.332757959453179E-003 -1.332746357128252E-003
 -1.332745680489310E-003 -1.332758631122017E-003
 -1.332744798928226E-003 -1.332759555766349E-003
 -1.332758320699296E-003 -1.332745995735809E-003
 -1.332732702891381E-003 -1.332771574999898E-003
 -1.332741401429283E-003 -1.332762936429712E-003
 -1.332755000772502E-003 -1.332749308581622E-003
 -1.332767430568329E-003 -1.332736847869195E-003
 -1.332751274224552E-003 -1.332753054740156E-003
 -1.332764636967750E-003 -1.332739671320559E-003
 -1.332794314581844E-003 -1.332710001671076E-003
 -1.332735154197205E-003 -1.332769125005944E-003
 -1.332758614589191E-003 -1.332745684406680E-003
 -1.332758272859143E-003 -1.332746023302714E-003
 -1.332729763932971E-003 -1.332774567889126E-003
 -1.332768534320846E-003 -1.332735770330276E-003
 -1.332758879336116E-003 -1.332745463157166E-003
 -1.332743773078264E-003 -1.332760570638879E-003
 -1.332774744829619E-003 -1.332729556350103E-003
 -1.332744858297004E-003 -1.332759455615654E-003
 -1.332744847233347E-003 -1.332759477053279E-003
 -1.332783688745484E-003 -1.332720607847468E-003
 -1.332762898031983E-003 -1.332741409134525E-003
 -1.332721136886550E-003 -1.332783168723292E-003
 -1.332756298211696E-003 -1.332748011955954E-003
 -1.332764564227967E-003 -1.332739774352661E-003
 -1.332752552205400E-003 -1.332751740165203E-003
 -1.332760608063949E-003 -1.332743698827478E-003
 -1.332737875038859E-003 -1.332766417377748E-003
 -1.332770103688406E-003 -1.332734243393612E-003
 -1.332752474306704E-003 -1.332751831687331E-003
 -1.332726232681078E-003 -1.332778094812980E-003
 -1.332743004179523E-003 -1.332761327237753E-003
 -1.332747445465502E-003 -1.332756869360460E-003
 -1.332750086373300E-003 -1.332754246664453E-003
 -1.332730733437258E-003 -1.332773573999562E-003
 -1.332747993806049E-003 -1.332756309003659E-003
 -1.332756222587906E-003 -1.332748114180374E-003
 -1.332757252606372E-003 -1.332747046198220E-003
 -1.332749951598319E-003 -1.332754345312473E-003
 -1.332733693261584E-003 -1.332770634698580E-003
 -1.332783449108057E-003 -1.332720890969727E-003
 -1.332736826488249E-003 -1.332767467602000E-003
 -1.332726198451317E-003 -1.332778116171245E-003
 -1.332746787449364E-003 -1.332757514274315E-003
 -1.332747311781676E-003 -1.332756982909119E-003
 -1.332734315503117E-003 -1.332769960648109E-003
 -1.332759858832273E-003 -1.332744434537379E-003
 -1.332758104657973E-003 -1.332746193950329E-003
 -1.332745008730397E-003 -1.332759305016143E-003
 -1.332733727307367E-003 -1.332770576955352E-003
 -1.332758602118135E-003 -1.332745682187701E-003
 -1.332748815768566E-003 -1.332755503768779E-003
 -1.332729667317535E-003 -1.332774638810170E-003
 -1.332756810959648E-003 -1.332747506472386E-003
 -1.332759452015322E-003 -1.332744871191942E-003
 -1.332748949087012E-003 -1.332755369037915E-003
 -1.332738600728538E-003 -1.332765709403238E-003
 -1.332763393744064E-003 -1.332740899043014E-003
 -1.332747117538014E-003 -1.332757202138452E-003
 -1.332747321717815E-003 -1.332756972089647E-003
 -1.332738091532878E-003 -1.332766210199799E-003
 -1.332743551974122E-003 -1.332760778494524E-003
 -1.332752274411672E-003 -1.332752044440412E-003
 -1.332729460024383E-003 -1.332774845252733E-003
 -1.332725951911078E-003 -1.332778319817292E-003
 -1.332765155111648E-003 -1.332739141187493E-003
 -1.332744731193748E-003 -1.332759613653985E-003
 -1.332754211976036E-003 -1.332750085450613E-003
 -1.332767199651459E-003 -1.332737084619757E-003
 -1.332745926207306E-003 -1.332758382774486E-003
 -1.332744613387102E-003 -1.332759684325221E-003
 -1.332780553759123E-003 -1.332723741363227E-003
 -1.332756556845614E-003 -1.332747751336064E-003
 -1.332757567007693E-003 -1.332746736880353E-003
 -1.332771636067986E-003 -1.332732674259559E-003
 -1.332743516944889E-003 -1.332760807518408E-003
 -1.332734659074713E-003 -1.332769666146699E-003
 -1.332747941938168E-003 -1.332756364239023E-003
 -1.332731180030226E-003 -1.332773104089335E-003
 -1.332747259704665E-003 -1.332757063553733E-003
 -1.332740316189591E-003 -1.332763977968945E-003
 -1.332757892438543E-003 -1.332746395994263E-003
 -1.332746891114053E-003 -1.332757409828023E-003
 -1.332723057818462E-003 -1.332781253837281E-003
 -1.332740636555896E-003 -1.332763655250528E-003
 -1.332751188870738E-003 -1.332753129550029E-003
 -1.332731709293487E-003 -1.332772605408035E-003
 -1.332763902719935E-003 -1.332740399862967E-003
 Gradient of SCF Energy
            1           2           3           4           5           6
    1  -0.0006946  -0.0005086   0.0001129  -0.0024776  -0.0013826  -0.0002442
    2   0.0000743   0.0000237  -0.0000334   0.0001368  -0.0000191   0.0000355
    3  -0.0006533  -0.0002090  -0.0000557  -0.0026577  -0.0030021  -0.0002134
            7           8           9          10          11          12
    1   0.0002954  -0.0003779  -0.0005722   0.0004478   0.0003266  -0.0026330
    2  -0.0000272  -0.0000657  -0.0000537  -0.0000262  -0.0000301   0.0000679
    3   0.0001282   0.0000439  -0.0009801   0.0007500   0.0003494  -0.0030973
           13          14          15          16          17          18
    1   0.0002187  -0.0007900   0.0007945   0.0003188   0.0008951   0.0002189
    2  -0.0000290  -0.0000182   0.0000136   0.0000135  -0.0000460  -0.0000092
    3   0.0005142   0.0001553   0.0006476   0.0003198   0.0007398   0.0002598
           19          20          21          22          23          24
    1   0.0007953   0.0002406   0.0005429   0.0003074   0.0008192   0.0002548
    2   0.0000463  -0.0000138  -0.0000094  -0.0000031  -0.0000478  -0.0000095
    3   0.0007533   0.0002857   0.0007258   0.0002988   0.0008911   0.0002131
           25          26          27          28          29          30
    1   0.0005702   0.0000810  -0.0000638   0.0000155  -0.0016672  -0.0023237
    2   0.0001404  -0.0000296   0.0001056   0.0000167  -0.0000139  -0.0000013
    3   0.0006247  -0.0008944  -0.0002375   0.0003629  -0.0035599  -0.0018529
           31          32          33          34          35          36
    1  -0.0000819   0.0002261  -0.0000893  -0.0014861   0.0004628   0.0003942
    2  -0.0000288   0.0000469  -0.0000445  -0.0000323  -0.0000695   0.0000046
    3  -0.0001509   0.0004024   0.0002186  -0.0001551   0.0007151   0.0003314
           37          38          39          40          41          42
    1  -0.0025520   0.0004015  -0.0003128   0.0005859   0.0003553   0.0006650
    2  -0.0000847   0.0000917   0.0000129  -0.0000101   0.0000029   0.0000212
    3  -0.0031783   0.0003682  -0.0010886   0.0008496   0.0003470   0.0008697
           43          44          45          46          47          48
    1   0.0002433   0.0008326   0.0002751   0.0007917   0.0002681   0.0008393
    2   0.0000059   0.0000074   0.0000217   0.0000274  -0.0000003   0.0000671
    3   0.0002425   0.0010038   0.0002757   0.0007955   0.0002970   0.0010039
           49          50          51          52          53          54
    1   0.0002109   0.0011773  -0.0009256  -0.0005400  -0.0003890   0.0000754
    2   0.0000304  -0.0003243  -0.0001596  -0.0007087  -0.0005713   0.0000331
    3   0.0002575   0.0005434  -0.0002203   0.0000317  -0.0000716   0.0000166
           55          56          57          58          59          60
    1  -0.0008059  -0.0002584   0.0002165  -0.0003702   0.0002195  -0.0012771
    2  -0.0004184  -0.0003956   0.0002123   0.0000045   0.0000837   0.0002600
    3  -0.0002890   0.0000839   0.0001915   0.0001098  -0.0000515  -0.0002353
           61          62          63          64          65          66
    1  -0.0002200   0.0000536   0.0000057   0.0000597   0.0001884   0.0000338
    2   0.0000338  -0.0000168   0.0001691   0.0000106  -0.0000740  -0.0000041
    3  -0.0003568  -0.0000040  -0.0000513   0.0000603   0.0000279   0.0000578
           67          68          69          70          71          72
    1   0.0001398   0.0000741   0.0001175   0.0001952  -0.0006093   0.0001653
    2   0.0000807   0.0000114   0.0001213  -0.0000187  -0.0004512   0.0000238
    3  -0.0000439   0.0000563  -0.0000853   0.0001686   0.0000324   0.0000095
           73          74          75          76          77          78
    1   0.0002605   0.0000575   0.0001048   0.0000361   0.0000649   0.0000930
    2   0.0002171  -0.0000095   0.0000422  -0.0000360   0.0000644   0.0001013
    3   0.0000428   0.0000417   0.0000784   0.0000021   0.0000043   0.0001547
           79          80          81          82          83          84
    1   0.0000998  -0.0000487   0.0002134   0.0000521   0.0002642   0.0002445
    2   0.0000201   0.0001249   0.0000977   0.0001637   0.0000349   0.0001482
    3   0.0000901  -0.0000010  -0.0000244   0.0000774   0.0000484   0.0001879
           85          86          87          88          89          90
    1   0.0002501   0.0001864   0.0003401   0.0003984   0.0001654   0.0000629
    2   0.0004335  -0.0000173  -0.0002641   0.0000194   0.0001928  -0.0000325
    3   0.0002884   0.0000716   0.0001815   0.0001163   0.0002475  -0.0000009
           91          92          93          94          95          96
    1   0.0001071   0.0003547   0.0001981   0.0002218   0.0001209  -0.0006039
    2   0.0000832   0.0001608   0.0001283   0.0000500   0.0000359  -0.0002509
    3   0.0001105   0.0000700   0.0003558   0.0001131   0.0001034   0.0002893
           97          98          99         100         101         102
    1  -0.0000341  -0.0004775   0.0001234  -0.0010949  -0.0006768   0.0002316
    2  -0.0006527  -0.0002064   0.0000431  -0.0002699  -0.0002437  -0.0000143
    3   0.0000627   0.0001670   0.0000141  -0.0005362   0.0001516   0.0000612
          103         104         105         106         107         108
    1  -0.0002966   0.0003696  -0.0007421   0.0003240   0.0002484   0.0002719
    2  -0.0005058   0.0000820  -0.0003881   0.0001370   0.0002166   0.0001653
    3   0.0001356   0.0003023  -0.0003065  -0.0000597   0.0001190  -0.0000081
          109         110         111         112         113         114
    1   0.0000884   0.0001956   0.0000585   0.0000877   0.0000633   0.0001449
    2   0.0000513   0.0000155   0.0000253  -0.0000450   0.0000547  -0.0001305
    3   0.0000637   0.0000604   0.0000674   0.0000685   0.0000638  -0.0001226
          115         116         117         118         119         120
    1   0.0002148  -0.0002167   0.0000564   0.0002641   0.0001725   0.0000995
    2   0.0000561   0.0001456   0.0000421   0.0000281  -0.0000627  -0.0000026
    3   0.0001095  -0.0005344   0.0001826   0.0001673   0.0000087   0.0000543
          121         122         123         124         125         126
    1   0.0002167   0.0000604   0.0001248   0.0000901   0.0000292   0.0001724
    2   0.0000012  -0.0000082   0.0001803   0.0000272   0.0003486   0.0000124
    3  -0.0000680   0.0000266  -0.0000320   0.0000516   0.0001724   0.0001533
          127         128         129         130         131         132
    1   0.0004935   0.0001875   0.0002352   0.0004179   0.0002475   0.0003322
    2   0.0003065   0.0001216   0.0000909   0.0000879   0.0000924   0.0001216
    3   0.0003515   0.0001627   0.0002997   0.0006463   0.0000690   0.0000799
          133         134         135         136         137         138
    1   0.0002205   0.0003093   0.0001363   0.0002011   0.0004947   0.0002624
    2   0.0001706  -0.0000179  -0.0000171   0.0000197  -0.0000111   0.0001164
    3   0.0004243   0.0001653   0.0000101  -0.0000434   0.0001251   0.0003598
          139         140
    1   0.0000736   0.0000994
    2  -0.0000157   0.0001639
    3   0.0000070   0.0000619
 Max gradient component =       3.560E-03
 RMS gradient           =       5.487E-04
 Computing fast IEFPCM-SWIG gradient.
 Updating gradient with PCM contributions...
 -- total gradient after adding PCM contribution --
---------------------------------------------------
  Atom         X              Y              Z     
---------------------------------------------------
   1      -0.000695       0.000074      -0.000653
   2      -0.000508       0.000024      -0.000209
   3       0.000113      -0.000033      -0.000056
   4      -0.002478       0.000137      -0.002658
   5      -0.001383      -0.000019      -0.003002
   6      -0.000244       0.000035      -0.000213
   7       0.000295      -0.000027       0.000128
   8      -0.000378      -0.000066       0.000044
   9      -0.000572      -0.000054      -0.000980
  10       0.000448      -0.000026       0.000750
  11       0.000326      -0.000030       0.000349
  12      -0.002633       0.000068      -0.003097
  13       0.000219      -0.000029       0.000514
  14      -0.000790      -0.000018       0.000155
  15       0.000794       0.000014       0.000647
  16       0.000319       0.000014       0.000320
  17       0.000895      -0.000046       0.000740
  18       0.000219      -0.000009       0.000259
  19       0.000795       0.000046       0.000754
  20       0.000241      -0.000014       0.000285
  21       0.000543      -0.000009       0.000726
  22       0.000308      -0.000003       0.000299
  23       0.000819      -0.000048       0.000891
  24       0.000255      -0.000009       0.000213
  25       0.000570       0.000140       0.000625
  26       0.000081      -0.000030      -0.000894
  27      -0.000064       0.000106      -0.000237
  28       0.000015       0.000017       0.000363
  29      -0.001667      -0.000014      -0.003560
  30      -0.002324      -0.000001      -0.001853
  31      -0.000082      -0.000029      -0.000151
  32       0.000226       0.000047       0.000403
  33      -0.000089      -0.000045       0.000219
  34      -0.001486      -0.000032      -0.000155
  35       0.000463      -0.000069       0.000715
  36       0.000394       0.000005       0.000331
  37      -0.002552      -0.000085      -0.003178
  38       0.000401       0.000092       0.000368
  39      -0.000313       0.000013      -0.001089
  40       0.000586      -0.000010       0.000850
  41       0.000356       0.000003       0.000347
  42       0.000665       0.000021       0.000870
  43       0.000243       0.000006       0.000242
  44       0.000833       0.000007       0.001004
  45       0.000275       0.000022       0.000276
  46       0.000792       0.000027       0.000795
  47       0.000268      -0.000000       0.000297
  48       0.000839       0.000067       0.001004
  49       0.000211       0.000030       0.000258
  50       0.001177      -0.000324       0.000543
  51      -0.000926      -0.000160      -0.000220
  52      -0.000540      -0.000709       0.000032
  53      -0.000389      -0.000571      -0.000072
  54       0.000075       0.000033       0.000017
  55      -0.000806      -0.000418      -0.000289
  56      -0.000258      -0.000396       0.000084
  57       0.000216       0.000212       0.000191
  58      -0.000370       0.000004       0.000110
  59       0.000219       0.000084      -0.000051
  60      -0.001277       0.000260      -0.000235
  61      -0.000220       0.000034      -0.000357
  62       0.000054      -0.000017      -0.000004
  63       0.000006       0.000169      -0.000051
  64       0.000060       0.000011       0.000060
  65       0.000188      -0.000074       0.000028
  66       0.000034      -0.000004       0.000058
  67       0.000140       0.000081      -0.000044
  68       0.000074       0.000011       0.000056
  69       0.000118       0.000121      -0.000085
  70       0.000195      -0.000019       0.000169
  71      -0.000609      -0.000451       0.000032
  72       0.000165       0.000024       0.000010
  73       0.000261       0.000217       0.000043
  74       0.000057      -0.000010       0.000042
  75       0.000105       0.000042       0.000078
  76       0.000036      -0.000036       0.000002
  77       0.000065       0.000065       0.000004
  78       0.000093       0.000101       0.000154
  79       0.000100       0.000020       0.000090
  80      -0.000049       0.000125      -0.000001
  81       0.000213       0.000098      -0.000024
  82       0.000052       0.000164       0.000077
  83       0.000264       0.000035       0.000048
  84       0.000245       0.000148       0.000188
  85       0.000250       0.000434       0.000288
  86       0.000186      -0.000017       0.000072
  87       0.000340      -0.000264       0.000182
  88       0.000398       0.000019       0.000116
  89       0.000165       0.000193       0.000248
  90       0.000063      -0.000033      -0.000001
  91       0.000107       0.000083       0.000110
  92       0.000355       0.000161       0.000070
  93       0.000198       0.000128       0.000356
  94       0.000222       0.000050       0.000113
  95       0.000121       0.000036       0.000103
  96      -0.000604      -0.000251       0.000289
  97      -0.000034      -0.000653       0.000063
  98      -0.000477      -0.000206       0.000167
  99       0.000123       0.000043       0.000014
 100      -0.001095      -0.000270      -0.000536
 101      -0.000677      -0.000244       0.000152
 102       0.000232      -0.000014       0.000061
 103      -0.000297      -0.000506       0.000136
 104       0.000370       0.000082       0.000302
 105      -0.000742      -0.000388      -0.000307
 106       0.000324       0.000137      -0.000060
 107       0.000248       0.000217       0.000119
 108       0.000272       0.000165      -0.000008
 109       0.000088       0.000051       0.000064
 110       0.000196       0.000016       0.000060
 111       0.000058       0.000025       0.000067
 112       0.000088      -0.000045       0.000069
 113       0.000063       0.000055       0.000064
 114       0.000145      -0.000131      -0.000122
 115       0.000215       0.000056       0.000109
 116      -0.000217       0.000146      -0.000534
 117       0.000056       0.000042       0.000183
 118       0.000264       0.000028       0.000167
 119       0.000172      -0.000063       0.000009
 120       0.000100      -0.000003       0.000054
 121       0.000217       0.000001      -0.000068
 122       0.000060      -0.000008       0.000026
 123       0.000125       0.000180      -0.000032
 124       0.000090       0.000027       0.000052
 125       0.000029       0.000349       0.000172
 126       0.000172       0.000012       0.000153
 127       0.000494       0.000306       0.000352
 128       0.000187       0.000122       0.000163
 129       0.000235       0.000091       0.000300
 130       0.000418       0.000088       0.000646
 131       0.000247       0.000092       0.000069
 132       0.000332       0.000122       0.000080
 133       0.000221       0.000170       0.000424
 134       0.000309      -0.000018       0.000165
 135       0.000136      -0.000017       0.000010
 136       0.000201       0.000020      -0.000043
 137       0.000495      -0.000011       0.000125
 138       0.000262       0.000116       0.000360
 139       0.000074      -0.000016       0.000007
 140       0.000099       0.000164       0.000062
---------------------------------------------------
 Number of fixed atoms: 0
 Gradient time:  CPU 2899.68 s  wall 1184.16 s
 Geometry Optimization Parameters
   NAtoms,    NIC,     NZ,  NCons,   NDum,   NFix, NCnnct, MaxDiis
      140    1102     140       0       0       0       0       0


** GEOMETRY OPTIMIZATION IN DELOCALIZED INTERNAL COORDINATES **
   Searching for a Minimum

   Optimization Cycle:   1

                       Coordinates (Angstroms)
     ATOM                X               Y               Z
      1  C         0.0000000000    0.0000000000    0.0000000000
      2  C         0.0000000000    0.0000000000    1.3949920000
      3  H         0.9420073259    0.0000000000    1.9321543489
      4  C        -1.1956782512   -0.0066795618    2.0829691793
      5  C        -2.4249550962   -0.0197691090    1.3880874605
      6  C        -2.4332641544   -0.0293183766    0.0044353601
      7  H        -3.3716297224   -0.0491323021   -0.5381391868
      8  C        -1.2264953248   -0.0205346402   -0.7052743258
      9  C        -1.4699970837   -0.0117238864    3.5173478739
     10  C        -0.7020871081   -0.0083669042    4.6524312521
     11  H         0.3802941274    0.0035058635    4.6116844494
     12  C        -2.8698282993   -0.0283117354    3.6446868066
     13  C        -3.5362162204   -0.0435209730    4.8652208571
     14  C        -3.5009236551   -0.0338480075    2.3855613685
     15  C        -4.8697305533   -0.0561267629    2.3513339918
     16  H        -5.4187619356   -0.0642657177    1.4181508893
     17  C        -1.3530274471   -0.0215685055    5.9080479042
     18  H        -0.7481382592   -0.0184758029    6.8055738855
     19  C        -2.7230212959   -0.0386417698    6.0246974272
     20  H        -3.1796323265   -0.0494226743    7.0068742024
     21  C        -4.9491849397   -0.0650944353    4.7990457466
     22  H        -5.5353658708   -0.0781726661    5.7097515026
     23  C        -5.5789964997   -0.0712488143    3.5769468171
     24  H        -6.6604229688   -0.0894468762    3.5453844340
     25  B         1.3514618285    0.0203776882   -0.7626050956
     26  C         1.3440044568    0.1027797666   -2.3147784568
     27  C         2.5538615712    0.1878199202   -3.0035678023
     28  H         3.4858425665    0.2119929916   -2.4494255639
     29  C         2.5598499126    0.2366956741   -4.3825789380
     30  C         1.3520603025    0.1787397584   -5.1118804625
     31  C         0.1480000739    0.0770492081   -4.4360112693
     32  H        -0.7856259213    0.0145555950   -4.9844247387
     33  C         0.1259332974    0.0526853890   -3.0356540243
     34  C         3.6698979897    0.3332820715   -5.3228138631
     35  C         5.0317579897    0.4177468540   -5.2037120023
     36  H         5.5232107982    0.4232974683   -4.2383848255
     37  C         3.0951865130    0.3317765834   -6.6055383377
     38  C         3.8302703578    0.4124006836   -7.7819148700
     39  C         1.6909831958    0.2390154927   -6.5382005929
     40  C         0.9891165534    0.2276436898   -7.7133875783
     41  H        -0.0911864902    0.1594010365   -7.7344378800
     42  C         5.8053914622    0.4997780627   -6.3843214126
     43  H         6.8819480356    0.5662213190   -6.2954023282
     44  C         5.2365795154    0.4983775447   -7.6364712012
     45  H         5.8685286583    0.5633951257   -8.5136365003
     46  C         3.0786871706    0.3985637851   -8.9804850539
     47  H         3.5812829521    0.4585689852   -9.9378927732
     48  C         1.7074567094    0.3089230061   -8.9308080370
     49  H         1.1498100537    0.3001870716   -9.8580148721
     50  B        -1.2262116125   -0.0566847344   -2.2653850849
     51  C        -2.5907833297   -0.2327109579   -3.0269466970
     52  C        -3.2487879491    0.8533501212   -3.6184501819
     53  C        -4.4748156511    0.6738516364   -4.2466944254
     54  H        -4.9641524050    1.5232268162   -4.7096686449
     55  C        -5.0866761927   -0.5740636164   -4.2800497715
     56  C        -4.4354331518   -1.6534604373   -3.6918204196
     57  H        -4.8977919632   -2.6335427269   -3.7088442359
     58  C        -3.1983559505   -1.4961790888   -3.0835209041
     59  N        -6.3387788949   -0.7431925149   -4.8980340907
     60  C        -7.3467196806    0.2214353629   -4.7346511110
     61  C        -8.1631807883    0.5777889209   -5.8071001076
     62  H        -8.0132465809    0.1114667248   -6.7723521748
     63  C        -9.1607760576    1.5236589476   -5.6403031384
     64  H        -9.7859690589    1.7881904873   -6.4831696774
     65  C        -9.3489608488    2.1434017993   -4.4136313419
     66  H       -10.1230552503    2.8885623966   -4.2892985969
     67  C        -8.5319045148    1.7958200578   -3.3478208919
     68  H        -8.6707764016    2.2652826948   -2.3824451499
     69  C        -7.5455236343    0.8362502577   -3.4990936570
     70  H        -6.9216257034    0.5621321887   -2.6580476109
     71  C        -6.5980749472   -1.9086726781   -5.6394194294
     72  C        -7.8039508489   -2.5907360063   -5.4913052299
     73  H        -8.5483229741   -2.2179570050   -4.7995549881
     74  C        -8.0489016890   -3.7412889774   -6.2225663376
     75  H        -8.9899785213   -4.2602468172   -6.0947401482
     76  C        -7.0933756709   -4.2401464687   -7.0953539280
     77  H        -7.2842790412   -5.1443924290   -7.6574275611
     78  C        -5.8890057350   -3.5662493395   -7.2383121126
     79  H        -5.1355796355   -3.9402781415   -7.9194479865
     80  C        -5.6437881525   -2.4044822618   -6.5267801973
     81  H        -4.7052894000   -1.8794021626   -6.6513190423
     82  C        -2.5016530168   -2.7144603850   -2.5329568311
[...]
  0.408   0.416   0.417   0.420   0.426   0.428   0.432   0.441
  0.444   0.448   0.450   0.453   0.454   0.458   0.460   0.461
  0.464   0.467   0.469   0.473   0.478   0.483   0.486   0.492
  0.495   0.498   0.500   0.502   0.503   0.511   0.512   0.516
  0.520   0.523   0.525   0.526   0.527   0.528   0.529   0.530
  0.533   0.534   0.537   0.538   0.539   0.541   0.543   0.544
  0.545   0.548   0.549   0.550   0.552   0.554   0.558   0.559
  0.560   0.561   0.564   0.565   0.566   0.568   0.571   0.573
  0.575   0.577   0.577   0.581   0.582   0.583   0.588   0.589
  0.590   0.591   0.592   0.593   0.595   0.596   0.597   0.597
  0.599   0.601   0.602   0.603   0.604   0.606   0.607   0.607
  0.612   0.613   0.616   0.617   0.619   0.619   0.620   0.621
  0.622   0.622   0.622   0.625   0.627   0.627   0.628   0.629
  0.630   0.631   0.631   0.633   0.633   0.635   0.639   0.644
  0.647   0.649   0.650   0.650   0.651   0.652   0.654   0.655
  0.656   0.657   0.658   0.659   0.660   0.662   0.664   0.666
  0.669   0.670   0.671   0.675   0.676   0.679   0.681   0.686
  0.686   0.687   0.691   0.693   0.695   0.697   0.699   0.701
  0.702   0.704   0.706   0.707   0.708   0.711   0.714   0.714
  0.716   0.717   0.720   0.721   0.724   0.728   0.734   0.738
  0.739   0.743   0.744   0.747   0.750   0.757   0.758   0.760
  0.763   0.766   0.772   0.773   0.774   0.777   0.779   0.782
  0.784   0.791   0.794   0.796   0.801   0.802   0.804   0.806
  0.809   0.812   0.816   0.820   0.822   0.824   0.833   0.835
  0.837   0.840   0.842   0.848   0.850   0.854   0.859   0.862
  0.865   0.872   0.872   0.881   0.887   0.893   0.900   0.902
  0.907   0.909   0.914   0.915   0.917   0.919   0.925   0.928
  0.933   0.935   0.940   0.943   0.947   0.948   0.950   0.951
  0.952   0.952   0.954   0.955   0.957   0.959   0.960   0.960
  0.961   0.964   0.965   0.967   0.969   0.970   0.972   0.974
  0.982   0.983   0.985   0.986   0.987   0.990   0.991   0.992
  0.993   0.996   1.001   1.003   1.004   1.007   1.009   1.010
  1.011   1.011   1.015   1.021   1.023   1.024   1.027   1.031
  1.033   1.034   1.039   1.041   1.043   1.045   1.047   1.048
  1.051   1.052   1.055   1.057   1.057   1.059   1.060   1.064
  1.069   1.070   1.072   1.073   1.075   1.077   1.078   1.079
  1.080   1.084   1.086   1.088   1.091   1.092   1.092   1.098
  1.101   1.102   1.105   1.110   1.115   1.116   1.117   1.121
  1.125   1.129   1.130   1.133   1.137   1.144   1.149   1.150
  1.152   1.153   1.158   1.159   1.160   1.160   1.164   1.167
  1.170   1.172   1.174   1.177   1.181   1.191   1.193   1.194
  1.196   1.201   1.203   1.205   1.208   1.210   1.218   1.219
  1.222   1.226   1.228   1.237   1.239   1.243   1.255   1.257
  1.258   1.261   1.262   1.267   1.271   1.273   1.275   1.278
  1.280   1.288   1.291   1.293   1.297   1.298   1.300   1.300
  1.302   1.307   1.309   1.314   1.317   1.318   1.319   1.321
  1.323   1.325   1.328   1.333   1.335   1.344   1.346   1.350
  1.351   1.355   1.359   1.362   1.367   1.371   1.372   1.375
  1.378   1.378   1.381   1.386   1.396   1.397   1.404   1.409
  1.411   1.415   1.418   1.420   1.423   1.430   1.441   1.441
  1.442   1.446   1.451   1.454   1.460   1.468   1.472   1.476
  1.481   1.482   1.484   1.490   1.497   1.506   1.508   1.510
  1.511   1.511   1.512   1.513   1.518   1.518   1.519   1.528
  1.531   1.532   1.532   1.535   1.537   1.539   1.543   1.548
  1.549   1.550   1.552   1.553   1.559   1.561   1.561   1.563
  1.566   1.568   1.571   1.572   1.573   1.575   1.577   1.579
  1.587   1.588   1.591   1.596   1.597   1.600   1.604   1.606
  1.609   1.616   1.618   1.625   1.627   1.637   1.642   1.646
  1.657   1.660   1.674   1.682   1.692   1.704   1.718   1.722
  1.739   1.743   1.744   1.748   1.750   1.754   1.761   1.763
  1.770   1.776   1.780   1.783   1.786   1.789   1.792   1.797
  1.807   1.809   1.811   1.811   1.812   1.815   1.817   1.819
  1.821   1.824   1.830   1.834   1.838   1.847   1.854   1.859
  1.862   1.868   1.869   1.872   1.882   1.885   1.893   1.896
  1.896   1.898   1.901   1.907   1.908   1.919   1.919   1.924
  1.930   1.934   1.936   1.939   1.941   1.943   1.945   1.948
  1.950   1.971   1.980   1.981   1.982   1.983   1.985   1.988
  1.992   1.994   2.000   2.005   2.011   2.018   2.021   2.023
  2.024   2.026   2.032   2.033   2.035   2.036   2.037   2.047
  2.060   2.063   2.067   2.070   2.072   2.073   2.073   2.075
  2.078   2.079   2.079   2.085   2.091   2.099   2.102   2.106
  2.112   2.113   2.121   2.131   2.131   2.139   2.145   2.146
  2.148   2.148   2.154   2.156   2.156   2.160   2.163   2.169
  2.170   2.179   2.182   2.190   2.194   2.195   2.199   2.202
  2.204   2.205   2.206   2.206   2.208   2.211   2.213   2.217
  2.221   2.223   2.226   2.232   2.232   2.235   2.237   2.250
  2.253   2.254   2.256   2.259   2.262   2.263   2.265   2.268
  2.270   2.277   2.281   2.282   2.286   2.291   2.293   2.294
  2.305   2.314   2.314   2.317   2.320   2.322   2.323   2.329
  2.333   2.337   2.340   2.341   2.346   2.347   2.350   2.352
  2.353   2.358   2.360   2.362   2.365   2.369   2.370   2.373
  2.373   2.374   2.383   2.385   2.389   2.390   2.391   2.392
  2.394   2.395   2.404   2.406   2.410   2.413   2.414   2.417
  2.419   2.420   2.423   2.433   2.435   2.439   2.445   2.448
  2.459   2.462   2.471   2.473   2.477   2.480   2.483   2.487
  2.489   2.493   2.495   2.500   2.502   2.510   2.512   2.517
  2.523   2.526   2.533   2.550   2.564   2.573   2.573   2.591
  2.608   2.616   2.617   2.626   2.633   2.639   2.642   2.644
  2.645   2.648   2.651   2.660   2.661   2.668   2.681   2.682
  2.685   2.687   2.689   2.691   2.692   2.698   2.712   2.715
  2.725   2.727   2.729   2.734   2.736   2.738   2.740   2.740
  2.741   2.753   2.758   2.760   2.762   2.762   2.766   2.767
  2.780   2.784   2.787   2.788   2.789   2.791   2.791   2.793
  2.793   2.795   2.807   2.809   2.811   2.814   2.815   2.816
  2.818   2.824   2.825   2.828   2.830   2.832   2.842   2.850
  2.852   2.858   2.859   2.862   2.871   2.883   2.889   2.902
  2.905   2.907   2.912   2.918   2.924   2.929   2.932   2.932
  2.943   2.945   2.959   2.980   2.993   3.006   3.010   3.011
  3.012   3.020   3.032   3.034   3.040   3.048   3.082   3.084
  3.084   3.106   3.117   3.150   3.156   3.238   3.256   3.259
  3.313   3.323   3.340   3.348   3.406   3.445   3.452   3.485
  3.487   3.492   3.495   3.498   3.513   3.515   3.551   3.559
  3.670   3.683   9.585   9.733  13.143  13.178  13.247  13.248
 13.280  13.281  13.439  13.497  13.512  13.514  13.527  13.551
 13.671  13.672  13.675  13.681  13.686  13.693  13.711  13.712
 13.716  13.717  13.729  13.759  13.773  13.796  13.806  13.807
 13.861  13.875  13.897  13.912  13.921  13.990  13.999  14.024
 14.032  14.038  14.041  14.045  14.053  14.057  14.152  14.154
 14.156  14.157  14.159  14.164  14.165  14.181  14.184  14.186
 14.187  14.202  14.227  14.241  14.250  14.276  14.289  14.294
 14.311  14.315  14.348  14.353  14.514  14.518  14.572  14.580
 14.584  14.585  14.586  14.587  14.588  14.588  14.606  14.614
 19.690  19.692
 --------------------------------------------------------------
 
          Ground-State Mulliken Net Atomic Charges

     Atom                 Charge (a.u.)
  ----------------------------------------
      1 C                    -0.150019
      2 C                    -0.395809
      3 H                     0.233934
      4 C                     0.112133
      5 C                     0.087404
      6 C                    -0.384498
      7 H                     0.228969
      8 C                    -0.154434
      9 C                     0.197341
     10 C                    -0.386813
     11 H                     0.217666
     12 C                    -0.064034
     13 C                     0.253481
     14 C                     0.195839
     15 C                    -0.376382
     16 H                     0.217361
     17 C                    -0.202456
     18 H                     0.226005
     19 C                    -0.337433
     20 H                     0.220522
     21 C                    -0.332735
     22 H                     0.220138
     23 C                    -0.205647
     24 H                     0.226253
     25 B                     0.655258
     26 C                    -0.152418
     27 C                    -0.389551
     28 H                     0.231545
     29 C                     0.112917
     30 C                     0.085423
     31 C                    -0.384789
     32 H                     0.231880
     33 C                    -0.152340
     34 C                     0.199781
     35 C                    -0.386035
     36 H                     0.216758
     37 C                    -0.064695
     38 C                     0.251586
     39 C                     0.197575
     40 C                    -0.377797
     41 H                     0.218828
     42 C                    -0.202294
     43 H                     0.225391
     44 C                    -0.336806
     45 H                     0.220518
     46 C                    -0.331881
     47 H                     0.220076
     48 C                    -0.205751
     49 H                     0.226736
     50 B                     0.659944
     51 C                    -0.233592
     52 C                     0.084465
     53 C                    -0.353714
     54 H                     0.233714
     55 C                     0.319882
     56 C                    -0.363746
     57 H                     0.236738
     58 C                     0.073690
     59 N                    -0.675615
     60 C                     0.278986
     61 C                    -0.270277
     62 H                     0.243836
     63 C                    -0.215125
     64 H                     0.221034
     65 C                    -0.235363
     66 H                     0.218706
     67 C                    -0.215470
     68 H                     0.219412
     69 C                    -0.269896
     70 H                     0.240289
     71 C                     0.293425
     72 C                    -0.279848
     73 H                     0.245165
     74 C                    -0.213387
     75 H                     0.220233
     76 C                    -0.237858
     77 H                     0.217766
     78 C                    -0.214248
     79 H                     0.219891
     80 C                    -0.275543
     81 H                     0.241960
     82 C                    -0.556205
     83 H                     0.233704
     84 H                     0.257392
     85 C                    -0.546134
     86 H                     0.230783
     87 H                     0.250740
     88 C                    -0.639317
     89 H                     0.230668
     90 H                     0.220210
     91 H                     0.218360
     92 C                    -0.641632
     93 H                     0.240013
     94 H                     0.217616
     95 H                     0.217513
     96 C                    -0.217563
     97 C                     0.085170
     98 C                    -0.349345
     99 H                     0.231076
    100 C                     0.301292
    101 C                    -0.358377
    102 H                     0.234088
    103 C                     0.074070
    104 N                    -0.672878
    105 C                     0.297066
    106 C                    -0.278992
    107 H                     0.241906
    108 C                    -0.212997
    109 H                     0.216072
    110 C                    -0.237812
    111 H                     0.217027
    112 C                    -0.214457
    113 H                     0.219994
    114 C                    -0.276950
    115 H                     0.244297
    116 C                     0.289428
    117 C                    -0.270841
    118 H                     0.240265
    119 C                    -0.213310
    120 H                     0.218291
    121 C                    -0.237442
    122 H                     0.217531
    123 C                    -0.214582
    124 H                     0.220304
    125 C                    -0.279283
    126 H                     0.244977
    127 C                    -0.559040
    128 H                     0.234376
    129 H                     0.258538
    130 C                    -0.546847
    131 H                     0.231015
    132 H                     0.250257
    133 C                    -0.645636
    134 H                     0.246813
    135 H                     0.216604
    136 H                     0.217910
    137 C                    -0.645050
    138 H                     0.240216
    139 H                     0.220458
    140 H                     0.216494
  ----------------------------------------
  Sum of atomic charges =    -0.000000

 -----------------------------------------------------------------
                    Cartesian Multipole Moments
 -----------------------------------------------------------------
    Charge (ESU x 10^10)
                -0.0000
    Dipole Moment (Debye)
         X      -0.5255      Y       0.1365      Z      -0.1627
       Tot       0.5668
    Quadrupole Moments (Debye-Ang)
        XX    -418.9727     XY       0.5613     YY    -462.6589
        XZ     -12.2042     YZ      -1.6066     ZZ    -408.1780
    Octopole Moments (Debye-Ang^2)
       XXX    -136.8192    XXY     179.5100    XYY     -48.2602
       YYY     263.3252    XXZ     570.1362    XYZ     -49.6515
       YYZ     645.9892    XZZ      -3.0811    YZZ      81.7421
       ZZZ    1776.1724
    Hexadecapole Moments (Debye-Ang^3)
      XXXX  -65282.0802   XXXY    -600.3001   XXYY  -12670.4122
      XYYY    -612.3142   YYYY   -8196.8496   XXXZ   -9000.8546
      XXYZ    -507.7798   XYYZ   -2178.0321   YYYZ    -354.5858
      XXZZ  -18650.3041   XYZZ    -106.1999   YYZZ   -9919.5158
      XZZZ   -9640.7210   YZZZ    -658.6931   ZZZZ  -46003.0232
 -----------------------------------------------------------------
Archival summary:
1\1\ctcp003\OPT\ProcedureUnspecified\BasisUnspecified\276260\mewes1\FriNov917:50:142018FriNov917:50:142018\0\\#,OPT,ProcedureUnspecified,BasisUnspecified,\\0,1\C\C,1,1.39546\H,2,1.08463,1,119.826\C,2,1.37927,1,119.884,3,-179.609,0\C,4,1.41278,2,120.789,1,1.23629,0\C,5,1.38262,4,119.659,2,0.177503,0\H,6,1.08434,5,120.284,4,177.939,0\C,6,1.40052,5,120.085,4,-1.52759,0\C,4,1.4601,2,130.545,1,-179.671,0\C,9,1.37061,4,135.038,2,0.85191,0\H,10,1.08322,9,121.923,4,-0.0588502,0\C,9,1.40571,4,106.015,2,-179.272,0\C,12,1.39078,9,123.731,4,-179.846,0\C,12,1.40877,9,111.483,4,0.0420751,0\C,14,1.3695,12,118.002,9,-179.776,0\H,15,1.08273,14,121.896,12,179.785,0\C,13,1.41435,12,115.939,9,179.858,0\H,17,1.08312,13,120.112,12,-179.983,0\C,17,1.3749,13,119.941,12,-0.0431033,0\H,19,1.08204,17,118.911,13,-179.927,0\C,10,1.41438,9,118.52,4,179.874,0\H,21,1.08234,10,118.622,9,179.989,0\C,21,1.37493,10,122.234,9,-0.0641996,0\H,23,1.08318,21,119.806,10,-179.96,0\B,1,1.55447,2,119.794,3,0.808991,0\C,25,1.55546,1,119.192,2,-176.112,0\C,26,1.39476,25,119.807,1,174.297,0\H,27,1.08475,26,119.675,25,0.4558,0\C,27,1.38083,26,119.923,25,-179.82,0\C,29,1.41244,27,120.862,26,-1.01627,0\C,30,1.38459,29,119.56,27,-0.163865,0\H,31,1.08467,30,120.451,29,-178.67,0\C,31,1.40049,30,120.061,29,1.15575,0\C,29,1.45821,27,130.448,26,179.327,0\C,34,1.36985,29,134.828,27,-0.188632,0\H,35,1.08326,34,121.914,29,0.141561,0\C,34,1.40581,29,106.086,27,179.85,0\C,37,1.38935,34,123.768,29,179.815,0\C,37,1.40895,34,111.361,29,-0.106352,0\C,39,1.36893,37,118.055,34,179.85,0\H,40,1.08273,39,121.913,37,-179.867,0\C,35,1.41396,34,118.369,29,-179.893,0\H,42,1.08229,35,118.639,34,-179.97,0\C,42,1.37536,35,122.248,34,0.0461767,0\H,44,1.08306,42,119.717,35,179.943,0\C,38,1.41465,37,115.829,34,-179.868,0\H,46,1.08296,38,120.124,37,179.963,0\C,46,1.37506,38,119.988,37,0.0153425,0\H,48,1.08198,46,118.91,38,179.906,0\B,33,1.5564,31,120.592,30,-179.902,0\C,50,1.56511,33,120.502,31,9.97885,0\C,51,1.40129,50,122.101,33,-104.055,0\C,52,1.3886,51,120.112,50,-178.729,0\H,53,1.08425,52,119.75,51,-178.681,0\C,53,1.39049,52,120.719,51,1.5995,0\C,55,1.3897,53,119.099,52,-0.76709,0\H,56,1.0841,55,119.516,53,179.279,0\C,56,1.38691,55,121.01,53,-0.734426,0\N,55,1.40706,53,120.683,52,179.313,0\C,59,1.40273,55,119.859,53,-46.0848,0\C,60,1.39407,59,120.459,55,142.303,0\H,61,1.08235,60,119.66,59,-0.116044,0\C,61,1.38456,60,120.207,59,-179.891,0\H,63,1.0823,61,119.296,60,179.891,0\C,63,1.38742,61,120.674,60,0.903473,0\H,65,1.08165,63,120.417,61,179.373,0\C,65,1.38714,63,119.162,61,-0.622367,0\H,67,1.08245,65,120.059,63,-179.471,0\C,67,1.38437,65,120.603,63,-0.343952,0\H,69,1.0825,67,120.114,65,-179.179,0\C,59,1.40391,55,119.295,53,140.058,0\C,71,1.39369,59,120.83,55,134.587,0\H,72,1.08252,71,119.805,59,0.238643,0\C,72,1.3852,71,120.251,59,-179.345,0\H,74,1.08234,72,119.28,71,179.87,0\C,74,1.3867,72,120.633,71,0.996777,0\H,76,1.08168,74,120.427,72,179.337,0\C,76,1.38757,74,119.179,72,-0.530019,0\H,78,1.0824,76,120.044,74,-179.791,0\C,78,1.38403,76,120.607,74,-0.459529,0\H,80,1.0825,78,120.088,76,-179.638,0\C,52,1.5077,51,120.601,50,4.63649,0\H,82,1.09277,52,109.542,51,-152.683,0\H,82,1.09367,52,110.238,51,-36.6343,0\C,58,1.50928,56,118.682,55,177.792,0\H,85,1.09281,58,109.288,56,31.4494,0\H,85,1.09327,58,110.426,56,147.222,0\C,82,1.52718,52,112.653,51,85.4169,0\H,88,1.09009,82,111.403,52,-61.6327,0\H,88,1.09037,82,111.089,52,58.5178,0\H,88,1.09044,82,110.954,52,178.625,0\C,85,1.52852,58,112.953,56,-90.1774,0\H,92,1.08985,85,111.645,58,-60.8255,0\H,92,1.09046,85,111.177,58,59.3845,0\H,92,1.09098,85,110.826,58,179.314,0\C,25,1.57276,1,119.981,2,6.082,0\C,96,1.40039,25,122.322,1,-82.4457,0\C,97,1.38868,96,120.444,25,178.045,0\H,98,1.08411,97,119.403,96,-178.866,0\C,98,1.39038,97,120.981,96,1.70884,0\C,100,1.39021,98,118.667,97,-0.85853,0\H,101,1.08438,100,119.638,98,179.505,0\C,101,1.38705,100,120.975,98,-0.949487,0\N,100,1.40544,98,120.57,97,178.772,0\C,104,1.40499,100,120.759,98,144.961,0\C,105,1.39433,104,120.389,100,136.975,0\H,106,1.08234,105,119.749,104,-0.505026,0\C,106,1.38498,105,120.374,104,179.486,0\H,108,1.08239,106,119.281,105,-179.985,0\C,108,1.3868,106,120.636,105,0.936351,0\H,110,1.0817,108,120.454,106,179.476,0\C,110,1.38742,108,119.107,106,-0.520203,0\H,112,1.08239,110,120.036,108,-179.566,0\C,112,1.38486,110,120.668,108,-0.473954,0\H,114,1.08233,112,120.04,110,-179.199,0\C,104,1.40622,100,119.962,98,-39.3395,0\C,116,1.39332,104,120.031,100,137.083,0\H,117,1.08252,116,119.546,104,-1.02009,0\C,117,1.38463,116,120.293,104,178.568,0\H,119,1.08232,117,119.404,116,-179.771,0\C,119,1.38721,117,120.509,116,0.99565,0\H,121,1.08174,119,120.357,117,179.618,0\C,121,1.38728,119,119.28,117,-0.446524,0\H,123,1.0823,121,120.018,119,-179.462,0\C,123,1.38521,121,120.575,119,-0.543808,0\H,125,1.08237,123,120.199,121,-178.804,0\C,97,1.50633,96,121.349,25,-4.43817,0\H,127,1.09327,97,110.726,96,23.7436,0\H,127,1.09349,97,109.743,96,140.105,0\C,103,1.50722,101,118.144,100,-175.362,0\H,130,1.09329,103,109.636,101,-39.7266,0\H,130,1.09343,103,110.782,101,-155.891,0\C,127,1.52697,97,111.741,96,-98.5465,0\H,133,1.09029,127,111.102,97,60.6034,0\H,133,1.09036,127,111.196,97,-179.407,0\H,133,1.09086,127,111.016,97,-59.2583,0\C,130,1.52727,103,111.804,101,81.7078,0\H,137,1.09037,130,111.132,103,59.9416,0\H,137,1.09062,130,111.09,103,179.976,0\H,137,1.09075,130,111.026,103,-59.9817,0\\\@

 Total job time:  115745.01s(wall), 417104.68s(cpu) 
 Fri Nov  9 17:50:14 2018

        *************************************************************
        *                                                           *
        *  Thank you very much for using Q-Chem.  Have a nice day.  *
        *                                                           *
        *************************************************************


0 sent ACK to 0 
now end server 0 ... 
