mFile = /cm/shared/apps/q-chem/intel/QCHEM_5.1.0_Trunk/bin/mpi/machines
Process 0 of 1 is on ctcp041 - thread support 0
initial socket setup ...start
initial socket setup ...done 
now start server 0 ... 
Q-Chem Developer Version!
                  Welcome to Q-Chem
     A Quantum Leap Into The Future Of Chemistry


 Q-Chem 5.1, Q-Chem, Inc., Pleasanton, CA (2018)

 Yihan Shao,  Zhengting Gan,  E. Epifanovsky,  A. T. B. Gilbert,  M. Wormit,  
 J. Kussmann,  A. W. Lange,  A. Behn,  Jia Deng,  Xintian Feng,  D. Ghosh,  
 M. Goldey,  P. R. Horn,  L. D. Jacobson,  I. Kaliman,  T. Kus,  A. Landau,  
 Jie Liu,  E. I. Proynov,  R. M. Richard,  R. P. Steele,  E. J. Sundstrom,  
 H. L. Woodcock III,  P. M. Zimmerman,  D. Zuev,  B. Albrecht,  E. Alguire,  
 S. A. Baeppler,  D. Barton,  Z. Benda,  Y. A. Bernard,  E. J. Berquist,  
 K. B. Bravaya,  H. Burton,  D. Casanova,  Chun-Min Chang,  Yunqing Chen,  
 A. Chien,  K. D. Closser,  M. P. Coons,  S. Coriani,  S. Dasgupta,  
 A. L. Dempwolff,  M. Diedenhofen,  Hainam Do,  R. G. Edgar,  Po-Tung Fang,  
 S. Faraji,  S. Fatehi,  Qingguo Feng,  K. D. Fenk,  J. Fosso-Tande,  
 Qinghui Ge,  A. Ghysels,  G. Gidofalvi,  J. Gomes,  J. Gonthier,  A. Gunina,  
 D. Hait,  M. W. D. Hanson-Heine,  P. H. P. Harbach,  A. W. Hauser,  
 J. E. Herr,  E. G. Hohenstein,  Z. C. Holden,  Kerwin Hui,  B. C. Huynh,  
 T.-C. Jagau,  Hyunjun Ji,  B. Kaduk,  K. Khistyaev,  Jaehoon Kim,  
 P. Klunzinger,  K. Koh,  D. Kosenkov,  L. Koulias,  T. Kowalczyk,  
 C. M. Krauter,  A. Kunitsa,  Ka Un Lao,  A. Laurent,  K. V. Lawler,  
 Joonho Lee,  D. Lefrancois,  S. Lehtola,  D. S. Levine,  Yi-Pei Li,  
 You-Sheng Lin,  Fenglai Liu,  E. Livshits,  A. Luenser,  P. Manohar,  
 E. Mansoor,  S. F. Manzer,  Shan-Ping Mao,  Yuezhi Mao,  N. Mardirossian,  
 A. V. Marenich,  T. Markovich,  L. A. Martinez-Martinez,  S. A. Maurer,  
 N. J. Mayhall,  S. C. McKenzie,  J.-M. Mewes,  A. F. Morrison,  
 J. W. Mullinax,  K. Nanda,  T. S. Nguyen-Beck,  R. Olivares-Amaya,  
 J. A. Parkhill,  T. M. Perrine,  F. Plasser,  P. Pokhilko,  S. Prager,  
 A. Prociuk,  E. Ramos,  D. R. Rehn,  F. Rob,  M. Schneider,  N. Sergueev,  
 S. M. Sharada,  S. Sharma,  D. W. Small,  T. Stauch,  T. Stein,  
 Yu-Chuan Su,  A. J. W. Thom,  A. Tkatchenko,  T. Tsuchimochi,  N. M. Tubman,  
 L. Vogt,  M. L. Vidal,  O. Vydrov,  M. A. Watson,  J. Wenzel,  
 M. de Wergifosse,  T. A. Wesolowski,  A. White,  J. Witte,  A. Yamada,  
 Jun Yang,  K. Yao,  S. Yeganeh,  S. R. Yost,  Zhi-Qiang You,  A. Zech,  
 Igor Ying Zhang,  Xing Zhang,  Yan Zhao,  Ying Zhu,  B. R. Brooks,  
 G. K. L. Chan,  C. J. Cramer,  M. S. Gordon,  W. J. Hehre,  A. Klamt,  
 M. W. Schmidt,  C. D. Sherrill,  D. G. Truhlar,  A. Aspuru-Guzik,  R. Baer,  
 A. T. Bell,  N. A. Besley,  Jeng-Da Chai,  A. E. DePrince, III,  
 R. A. DiStasio Jr.,  A. Dreuw,  B. D. Dunietz,  T. R. Furlani,  
 Chao-Ping Hsu,  Yousung Jung,  Jing Kong,  D. S. Lambrecht,  WanZhen Liang,  
 C. Ochsenfeld,  V. A. Rassolov,  L. V. Slipchenko,  J. E. Subotnik,  
 T. Van Voorhis,  J. M. Herbert,  A. I. Krylov,  P. M. W. Gill,  M. Head-Gordon

 Contributors to earlier versions of Q-Chem not listed above: 
 R. D. Adamson,  B. Austin,  J. Baker,  G. J. O. Beran,  K. Brandhorst,  
 S. T. Brown,  E. F. C. Byrd,  A. K. Chakraborty,  C.-L. Cheng,  
 Siu Hung Chien,  D. M. Chipman,  D. L. Crittenden,  H. Dachsel,  
 R. J. Doerksen,  A. D. Dutoi,  L. Fusti-Molnar,  W. A. Goddard III,  
 A. Golubeva-Zadorozhnaya,  S. R. Gwaltney,  G. Hawkins,  A. Heyden,  
 S. Hirata,  G. Kedziora,  F. J. Keil,  C. Kelley,  Jihan Kim,  R. A. King,  
 R. Z. Khaliullin,  P. P. Korambath,  W. Kurlancheek,  A. M. Lee,  M. S. Lee,  
 S. V. Levchenko,  Ching Yeh Lin,  D. Liotard,  R. C. Lochan,  I. Lotan,  
 P. E. Maslen,  N. Nair,  D. P. O'Neill,  D. Neuhauser,  E. Neuscamman,  
 C. M. Oana,  R. Olson,  B. Peters,  R. Peverati,  P. A. Pieniazek,  
 Y. M. Rhee,  J. Ritchie,  M. A. Rohrdanz,  E. Rosta,  N. J. Russ,  
 H. F. Schaefer III,  N. E. Schultz,  N. Shenvi,  A. C. Simmonett,  A. Sodt,  
 D. Stuck,  K. S. Thanthiriwatte,  V. Vanovschi,  Tao Wang,  A. Warshel,  
 C. F. Williams,  Q. Wu,  X. Xu,  W. Zhang

 Please cite Q-Chem as follows:
 Y. Shao et al., Mol. Phys. 113, 184-215 (2015)
 DOI: 10.1080/00268976.2014.952696

 Q-Chem 5.1.1 for Intel X86 EM64T Linux

 Parts of Q-Chem use Armadillo 8.300.2 (Tropical Shenanigans).
 http://arma.sourceforge.net/

 Q-Chem begins on Fri Nov  9 12:22:32 2018  

Host: ctcp041
0

     Scratch files written to /scratch/mewes1/140054/qchem32575//
 Parallel job on  1  processors
The previous job contains 0 fragments, simply inherited here
Symmetry turned off for PCM/SM12/SMD calculation
Input Ideriv = 2
Curr. Ideriv = -1
Max.  Ideriv = 2
Input Ideriv = 1
Curr. Ideriv = 2
Max.  Ideriv = 1

Checking the input file for inconsistencies... 	...done.

--------------------------------------------------------------
User input:
--------------------------------------------------------------
$solvent
dielectric      1.0001
dielectric_infi 1.00009
$end

$rem
threads 8
jobtype	sp
method PBEh-3c
basis def2-mSVP
mem_static	1024
mem_total	14000
sym_ignore	true
cis_n_roots             2
cis_singlets            true 
cis_triplets		false
rpa                     false
calc_soc 		true
cis_moments             true
cis_relaxed_density	true
solvent_method		pcm
$end

$pcm
StateSpecific   1
ChargeSeparation Excited
$end


$molecule
read moms1opt_vac.mol
$end


--------------------------------------------------------------
 Adding empirical dispersion correction 
 ----------------------------------------------------------------
 Doing -D3(BJ) with
 s6 =   1.00000
 s8 =   0.00000
 a1 =   0.48600
 a2 =   4.50000
 -D3 energy including 3body term =     -0.1357138106 hartrees
 ----------------------------------------------------------------
 Adding gCP correction 
 ----------------------------------------------------------------
 gCP energy =      0.1922887730 hartrees
 ----------------------------------------------------------------
             Standard Nuclear Orientation (Angstroms)
    I     Atom           X                Y                Z
 ----------------------------------------------------------------
    1      C       0.0000000000     0.0000000000     0.0000000000
    2      C       0.0000000000     0.0000000000     1.4112320000
    3      H       0.9477895104     0.0000000000     1.9387729991
    4      C      -1.1774962274     0.0130732905     2.1195628747
    5      C      -2.4161600044     0.0384876108     1.4162951373
    6      C      -2.4428228474     0.0531096213     0.0489872455
    7      H      -3.4024320640     0.0872335351    -0.4596089179
    8      C      -1.2446789731     0.0306876464    -0.6962133177
    9      C      -3.4999127154     0.0678702516     2.3916947277
   10      C      -4.8702106345     0.0998700051     2.3217689753
   11      H      -5.3927889040     0.0986574225     1.3725463507
   12      C      -2.8879943505     0.0642064810     3.6591515255
   13      C      -3.5930710417     0.0950983428     4.8597036064
   14      C      -1.4816247268     0.0288884874     3.5511576956
   15      C      -0.7515200570     0.0213101313     4.7127755590
   16      H       0.3309263831    -0.0092803633     4.7047966793
   17      C      -5.6101934617     0.1310094044     3.5249694154
   18      H      -6.6915036808     0.1549142498     3.4696933385
   19      C      -5.0052737891     0.1302383928     4.7603723465
   20      H      -5.6110870467     0.1550652390     5.6581217439
   21      C      -2.8114034856     0.0884471962     6.0388731708
   22      H      -3.2912146065     0.1109561968     7.0097385281
   23      C      -1.4394369814     0.0518558612     5.9487071794
   24      H      -0.8566126247     0.0451395485     6.8609193456
   25      B      -1.2571587159     0.0934109613    -2.2218024540
   26      C       0.0442961672     0.0393666342    -3.0164014109
   27      C       0.0454526148     0.0801232312    -4.4265330722
   28      H      -0.8965265152     0.1351695451    -4.9662784740
   29      C       1.2228971083     0.0552950963    -5.1254392204
   30      C       2.4730318844    -0.0031116348    -4.4428003568
   31      C       2.4928485556    -0.0287295693    -3.0675856913
   32      H       3.4384443356    -0.0566376875    -2.5353429696
   33      C       1.2935900427    -0.0074095302    -2.3251562523
   34      C       1.4824640059     0.0878383611    -6.5598092712
   35      C       0.6996661528     0.1446946992    -7.6848711682
   36      H      -0.3817605894     0.1750762911    -7.6264070023
   37      C       2.8813191123     0.0494547579    -6.7084149670
   38      C       3.5301246465     0.0672008467    -7.9389112205
   39      C       3.5278940940    -0.0065843832    -5.4556671318
   40      C       4.8981874579    -0.0464760963    -5.4438305926
   41      H       5.4585222637    -0.0894927724    -4.5185470701
   42      C       1.3323002415     0.1626720648    -8.9476174115
   43      H       0.7159546481     0.2071531591    -9.8368508735
   44      C       2.7007263160     0.1259980541    -9.0852310488
   45      H       3.1433183164     0.1420678258   -10.0737730657
   46      C       5.5877407132    -0.0300050701    -6.6791318250
   47      H       6.6695857456    -0.0616348252    -6.6632384237
   48      C       4.9437373962     0.0246551307    -7.8931682203
   49      H       5.5180138635     0.0353037367    -8.8113536349
   50      B       1.3225539792     0.0203412909    -0.7878014705
   51      C       2.6708418505     0.1659720280     0.0169585265
   52      C       3.2318623548    -0.9146978877     0.7132356884
   53      C       4.3396865778    -0.7219909804     1.5294428852
   54      H       4.7621318699    -1.5550007257     2.0802346698
   55      C       4.8968040574     0.5392468516     1.6757043518
   56      C       4.3684171420     1.6056992721     0.9654525974
   57      H       4.8088485461     2.5906197054     1.0788550651
   58      C       3.2667494262     1.4309778257     0.1376378649
   59      N       5.9530385785     0.7432580434     2.5983775285
   60      C       7.1142781118     1.3928285004     2.1718018881
   61      C       7.8087064439     2.2783298375     2.9987165920
   62      H       7.4520093625     2.4772478022     4.0005119456
   63      C       8.9464377506     2.9204888860     2.5389016618
   64      H       9.4654183890     3.6049916950     3.1978685523
   65      C       9.4077986301     2.7154256299     1.2479250205
   66      H      10.2913321862     3.2271949689     0.8910432661
   67      C       8.7121928055     1.8457420537     0.4199171733
   68      H       9.0540754460     1.6706072580    -0.5921620920
   69      C       7.5850231119     1.1840185313     0.8728384154
   70      H       7.0572220621     0.5055973514     0.2153435809
   71      C       5.6603894723     0.5475280071     3.9565684378
   72      C       6.6230076804     0.0401417472     4.8292935149
   73      H       7.6099001140    -0.1996257591     4.4552064329
   74      C       6.3186109345    -0.1618556336     6.1646762389
   75      H       7.0780668401    -0.5580970063     6.8264165093
   76      C       5.0496216160     0.1169575818     6.6523309508
   77      H       4.8136217154    -0.0515804191     7.6944960115
   78      C       4.0870509604     0.6090645099     5.7838917952
   79      H       3.0926356988     0.8360691013     6.1475259521
   80      C       4.3856637618     0.8303867358     4.4499403300
   81      H       3.6270585067     1.2228064134     3.7847384853
   82      C       2.6637844190    -2.3023799681     0.5612293553
   83      H       1.5717774903    -2.2616198761     0.5538919267
   84      H       2.9395935742    -2.9070491660     1.4289381171
   85      C       2.6811800661     2.6474641003    -0.5385215035
   86      H       2.2650108996     2.3786323466    -1.5111776406
   87      H       3.4793202558     3.3672306447    -0.7387920571
   88      C       3.1454660463    -2.9929984846    -0.7125894460
   89      H       2.8318829453    -2.4450868185    -1.6011948060
   90      H       4.2334958344    -3.0666549569    -0.7325082086
   91      H       2.7387655547    -4.0024891282    -0.7873154706
   92      C       1.5968043886     3.3224710477     0.3006423071
   93      H       0.7664183076     2.6437161325     0.4939529129
   94      H       1.9891972610     3.6489658000     1.2647314216
   95      H       1.1983969853     4.2001114902    -0.2118843602
   96      C      -2.6476245645     0.3779548637    -2.9217546535
   97      C      -3.0072547559     1.7264796809    -3.2172498034
   98      C      -4.2601500938     2.0230227571    -3.6840772846
   99      H      -4.5105374756     3.0482972002    -3.9258210579
  100      C      -5.2193054355     1.0069155235    -3.8842132386
  101      N      -6.4792682998     1.3325520100    -4.2886569651
  102      C      -4.8584667639    -0.3382209498    -3.6418928491
  103      H      -5.5967120690    -1.1205179469    -3.7659304362
  104      C      -3.6068935693    -0.6490621107    -3.1755717492
  105      C      -7.3072877607     0.4141846234    -4.9758620731
  106      C      -8.6337558485     0.2625995378    -4.5832503089
  107      H      -9.0165464848     0.8210557317    -3.7389522209
  108      C      -9.4522359220    -0.6130764444    -5.2735115324
  109      H     -10.4805325782    -0.7390310922    -4.9631832644
  110      C      -8.9564382270    -1.3308731650    -6.3535804011
  111      H      -9.6005803043    -2.0131471191    -6.8913833156
  112      C      -7.6360818342    -1.1675540630    -6.7468972486
  113      H      -7.2504241922    -1.7137392024    -7.5968293564
  114      C      -6.8073787521    -0.2924463978    -6.0655502574
  115      H      -5.7840013495    -0.1446802304    -6.3854716594
  116      C      -7.0132026400     2.6201751080    -4.0342903987
  117      C      -7.6195456478     3.3269792010    -5.0674832329
  118      H      -7.6690498322     2.9010584655    -6.0610584186
  119      C      -8.1419163194     4.5837203130    -4.8176543621
  120      H      -8.6026594103     5.1395725568    -5.6228707052
  121      C      -8.0666439269     5.1333025385    -3.5450833004
  122      H      -8.4752312198     6.1165561651    -3.3552962297
  123      C      -7.4704141849     4.4191547280    -2.5158380977
  124      H      -7.4195153432     4.8383651442    -1.5202925831
  125      C      -6.9458959827     3.1597785304    -2.7528727201
  126      H      -6.4928438246     2.5951697329    -1.9480397729
  127      C      -3.2559715282    -2.0857084439    -2.9206648773
  128      H      -2.6457981563    -2.1619763256    -2.0190182217
  129      H      -4.1688364208    -2.6564405358    -2.7333797288
  130      C      -2.0552138677     2.8626610590    -2.9675914717
  131      H      -1.0255777526     2.5127944793    -3.0289658237
  132      H      -2.1791034308     3.6148506304    -3.7513758776
  133      C      -2.5037010306    -2.6949994050    -4.1024129161
  134      H      -1.5621704139    -2.1773373983    -4.2813615110
  135      H      -2.2710633558    -3.7411090109    -3.9062071130
  136      H      -3.0989488035    -2.6479120884    -5.0155648365
  137      C      -2.3037041699     3.5024665569    -1.6014110532
  138      H      -2.1926336900     2.7742335121    -0.7989220847
  139      H      -1.5896434569     4.3056298346    -1.4209981865
  140      H      -3.3081349110     3.9256262354    -1.5392000165
 ----------------------------------------------------------------
 Nuclear Repulsion Energy = 12191.3116592953 hartrees
 There are      270 alpha and      270 beta electrons
 Requested basis set is def2-mSVP
 There are 680 shells and 1320 basis functions

 Total QAlloc Memory Limit  14000 MB
 Mega-Array Size      1001 MB
 MEM_STATIC part      1024 MB
 Discretize the solute cavity surface with Lebedev spheres
	Using 302 Lebedev grid points for each H atom
	Using 302 Lebedev grid points for other atoms
	Atomic van der Waals radii will be scaled by 1.20
 Remove points where switching function is < 1.0e-08
 Keep 14591 surface tesserae and discard 27689 interior tesserae
 Molecular Surface Area = 1075.662 Angst**2
 A cutoff of  1.0D-11 yielded  63321 shell pairs
 There are    245933 function pairs (    270407 Cartesian)
 
 -------------------------------------------------------
 OpenMP Integral Computing Module                       
 Release: version 1.0, May 2013, Q-Chem Inc. Pittsburgh 
 -------------------------------------------------------
 Integral Job Info:
 Integral job number is                      11
 Integral operator is                         1
 short-range coefficients                     0
 long-range coefficients              100000000
 Omega coefficients                           0
 if combine SR and LR in K                    0
 Integral screening is                        0
 Integral computing path is                   2
 max size of driver memory is            800000
 size of driver memory is                593474
 size of scratch memory is              1809772
 max col of scratch BK array               1296
 max len of scratch array in speh3          155
 max len of scratch index in speh4           18
 max int batch size is                      520
 min int batch size is                       52
 fixed nKL is                                52
 max L of basis functions is                  2
 order of int derivative is                   0
 number of shells is                        680
 number of basis is                        1400
 number of cartesian basis is              1400
 number of contracted shell pairs         63321
 number of primitive shell pairs         130751
 maxK2 (contraction) of shell pair           25
 max number of K2 of shell pair               1
 max number of CS2 of shell pair          15643
 max number of PS2 of shell pair          22970
 mem total for path MDJ                 1137052
 -------------------------------------------------------
 Smallest overlap matrix eigenvalue = 1.94E-04

 Scale SEOQF with 1.000000e-02/1.000000e-02/1.000000e-02

 Standard Electronic Orientation quadrupole field applied
 Nucleus-field energy     =    -0.0000000475 hartrees
 Guess from superposition of atomic densities
 Warning:  Energy on first SCF cycle will be non-variational
 SAD guess density has 540.000001 electrons

 -----------------------------------------------------------------------
  General SCF calculation program by
  Eric Jon Sundstrom, Paul Horn, Yuezhi Mao, Dmitri Zuev, Alec White,
  David Stuck, Shaama M.S., Shane Yost, Joonho Lee, David Small,
  Daniel Levine, Susi Lehtola, Hugh Burton, Evgeny Epifanovsky
 -----------------------------------------------------------------------
 Exchange:     0.4200 Hartree-Fock + 0.5800 PBEh-3c
 Correlation:  1.0000 PBEh-3c
 Using SG-1 standard quadrature grid
 Dispersion:   Grimme D3
 using 8 threads for integral computing
 -------------------------------------------------------
 OpenMP Integral computing Module                
 Release: version 2.0, May 2017, Q-Chem Inc. Pleasanton 
 -------------------------------------------------------
 -------------------------------------------------------
 OpenMP BLAS3 based DFT computing Module                
 Release: version 1.0, May 2013, Q-Chem Inc. Pittsburgh 
 -------------------------------------------------------
 A restricted SCF calculation will be
 performed using DIIS
 SCF converges when DIIS error is below 1.0e-08
 ---------------------------------------
  Cycle       Energy         DIIS error
 ---------------------------------------
    1   -3111.2379654671      2.35e-02  
    2   -3084.1018848547      1.63e-03  
    3   -3084.2387989846      1.52e-03  
    4   -3084.6859183728      5.91e-04  
    5   -3084.7645319637      1.75e-04  
    6   -3084.7712139937      6.30e-05  
    7   -3084.7720432674      1.74e-05  
    8   -3084.7721096187      6.22e-06  
    9   -3084.7721190324      1.54e-06  
   10   -3084.7721197196      6.02e-07  
   11   -3084.7721198401      2.30e-07  
   12   -3084.7721198681      9.39e-08  
   13   -3084.7721198772      3.29e-08  
   14   -3084.7721198854      1.58e-08  
   15   -3084.7721198903      7.14e-09  Convergence criterion met
 ---------------------------------------
 SCF time:   CPU 22788.67s  wall 2990.00s 

************** Final PCM Free Energy Summary **************
 G_electrostatic  =      -0.00000355 hartree =      -0.00222993 kcal/mol
 G_cavitation     =       0.00000000 hartree =       0.00000000 kcal/mol
 G_dispersion     =       0.00000000 hartree =       0.00000000 kcal/mol
 G_repulsion      =       0.00000000 hartree =       0.00000000 kcal/mol
 --------------------------------------------------
 Non-electrostatic Free Energy =       0.00000000 hartree =       0.00000000 kcal/mol
 Total                         =      -0.00000355 hartree =      -0.00222993 kcal/mol
 --------------------------------------------------
 SCF Energy (H0 + V/2)                       =   -3084.77211989 
 Solute Internal Energy (H0)                 =   -3084.77211634 
 Total Free Energy (H0 + V/2 + non-elec)     =   -3084.77211989 hartree
                                             = -1935723.72110789 kcal/mol
***********************************************************

 SCF   energy in the final basis set =    -3084.7721198903
 Total energy in the final basis set =    -3084.7721198903
 
 Direct TDDFT/TDA calculation will be performed
 Exchange:     0.4200 Hartree-Fock + 0.5800 PBEh-3c
 Correlation:  1.0000 PBEh-3c
 Using SG-1 standard quadrature grid
 Dispersion:   Grimme D3
 Singlet excitation energies requested
 Adding PCM contribution to the XC response
 CIS energy converged when residual is below 10e- 6
 ---------------------------------------------------
 Iter    Rts Conv    Rts Left    Ttl Dev     Max Dev
 ---------------------------------------------------
   1         0           2      0.000050    0.000029
   2         0           2      0.000045    0.000024
   3         0           2      0.000013    0.000007
   4         0           2      0.000006    0.000003
   5         1           1      0.000002    0.000001
   6         2           0      0.000001    0.000001    Roots Converged
 ---------------------------------------------------
 
 ---------------------------------------------------
         TDDFT/TDA Excitation Energies              
 ---------------------------------------------------

 Excited state   1: excitation energy (eV) =    2.1078
 Total energy for state  1:                 -3084.69466110 au
    Multiplicity: Singlet
    Trans. Mom.:  0.3542 X  -0.0635 Y   0.3157 Z
    Strength   :     0.0118344014
    D(270) --> V(  1) amplitude =  0.9728

 Excited state   2: excitation energy (eV) =    2.5548
 Total energy for state  2:                 -3084.67823303 au
    Multiplicity: Singlet
    Trans. Mom.:  0.5275 X   0.0450 Y   0.2515 Z
    Strength   :     0.0215017363
    D(269) --> V(  1) amplitude =  0.9748
 
 ---------------------------------------------------
 Calculating Relaxed Density
 ---------------------------------------------------
 Iter    Rts Conv    Rts Left    Ttl Dev     Max Dev
 ---------------------------------------------------
   1         0           2      0.000301    0.000156
   2         0           2      0.000104    0.000052
   3         0           2      0.000042    0.000021
   4         0           2      0.000014    0.000008
   5         0           2      0.000006    0.000003
   6         1           1      0.000001    0.000001
   7         2           0      0.000000    0.000000    Roots Converged
 ---------------------------------------------------
  SETman timing summary (seconds)
  CPU time             17703.33s
  System time              0.00s
  Wall time             4521.58s



*********SPIN-ORBIT COUPLING JOB BEGINS HERE*********
There is no spin-orbit coupling effect between singlet states.

=======================================================================================
    SPIN-ORBIT COUPLING BETWEEN THE SINGLET GROUND STATE AND EXCITED TRIPLET STATE
=======================================================================================

SOC between the singlet ground state and excited triplet states (ms=0):
T1(ms=0)      0.000000  +  1.655836i    cm-1
T2(ms=0)      0.000000  +  -1.465691i    cm-1
SOC between the singlet ground state and excited triplet states (ms=1):
T1(ms=1)      -0.601083  + (2.663581i)    cm-1
T2(ms=1)      0.028548  + (-1.734067i)    cm-1
SOC between the singlet ground state and excited triplet states (ms=-1):
T1(ms=-1)     -0.601083  - (2.663581i)    cm-1
T2(ms=-1)     0.028548  - (-1.734067i)    cm-1
Total SOC between the singlet ground state and excited triplet states:
T1      4.201634    cm-1
T2      2.857246    cm-1




=======================================================================================
                     SPIN-ORBIT COUPLING BETWEEN EXCITED TRIPLET STATES
=======================================================================================

SOC between the T1 (ms=0) state and excited triplet states (ms=1):
T2(ms=1)      0.023879  + (0.010331i)    cm-1
SOC between the T1 (ms=0) state and excited triplet states (ms=-1):
T2(ms=-1)     -0.023879  + (0.010331i)    cm-1
SOC between the T1 (ms=1) state and excited triplet states (ms=0):
T2(ms=0)      -0.023879  + (0.010331i)    cm-1
SOC between the T1 (ms=1) state and excited triplet states (ms=1):
T2(ms=1)      0.000000  + (0.060064i)    cm-1
SOC between the T1 (ms=-1) state and excited triplet states (ms=0):
T2(ms=0)      0.023879  + (0.010331i)    cm-1
SOC between the T1 (ms=-1) state and excited triplet states (ms=-1):
T2(ms=-1)     0.000000  + (-0.060064i)    cm-1
Total SOC between the T1 state and excited triplet states:
T2      0.099614    cm-1







=======================================================================================
         SPIN-ORBIT COUPLING BETWEEN EXCITED SINGLET STATES AND TRIPLET STATES
=======================================================================================

SOC between the S1 state and excited triplet states (ms=0):
T1(ms=0)      0.000000  +  -1.626097i    cm-1
T2(ms=0)      0.000000  +  -3.018564i    cm-1
SOC between the S1 state and excited triplet states (ms=1):
T1(ms=1)      (1.194347)  + (1.111145i)    cm-1
T2(ms=1)      (0.518124)  + (1.626690i)    cm-1
SOC between the S1 state and excited triplet states (ms=-1):
T1(ms=-1)    -(1.194347)  + (1.111145i)    cm-1
T2(ms=-1)    -(0.518124)  + (1.626690i)    cm-1
Total SOC between the S1 state and excited triplet states:
T1      2.822483    cm-1
T2      3.865343    cm-1



SOC between the S2 state and excited triplet states (ms=0):
T1(ms=0)      0.000000  +  0.000000i    cm-1
T2(ms=0)      0.000000  +  0.000000i    cm-1
SOC between the S2 state and excited triplet states (ms=1):
T1(ms=1)      (0.000000)  + (-0.000000i)    cm-1
T2(ms=1)      (0.000000)  + (-0.000000i)    cm-1
SOC between the S2 state and excited triplet states (ms=-1):
T1(ms=-1)    -(0.000000)  + (-0.000000i)    cm-1
T2(ms=-1)    -(0.000000)  + (-0.000000i)    cm-1
Total SOC between the S2 state and excited triplet states:
T1      0.000000    cm-1
T2      0.000000    cm-1






            *********SOC CODE ENDS HERE*********



 
 --------------------------------------------------------------
 
                    Orbital Energies (a.u.)
 --------------------------------------------------------------
 
 Alpha MOs
 -- Occupied --
-14.669 -14.666 -10.491 -10.490 -10.488 -10.487 -10.483 -10.480
-10.466 -10.465 -10.465 -10.465 -10.465 -10.464 -10.464 -10.463
-10.463 -10.463 -10.463 -10.462 -10.462 -10.462 -10.462 -10.461
-10.460 -10.460 -10.460 -10.460 -10.460 -10.460 -10.455 -10.453
-10.453 -10.451 -10.451 -10.450 -10.450 -10.450 -10.450 -10.450
-10.448 -10.448 -10.448 -10.447 -10.447 -10.447 -10.447 -10.446
-10.446 -10.446 -10.444 -10.443 -10.442 -10.442 -10.442 -10.442
-10.441 -10.437 -10.437 -10.436 -10.436 -10.435 -10.435 -10.434
-10.434 -10.434 -10.432 -10.432 -10.431 -10.428 -10.427 -10.425
-10.424 -10.420 -10.418 -10.418 -10.415 -10.415  -6.946  -6.940
 -1.084  -1.076  -1.016  -1.015  -0.963  -0.963  -0.959  -0.958
 -0.956  -0.956  -0.938  -0.936  -0.934  -0.933  -0.908  -0.899
 -0.888  -0.886  -0.867  -0.863  -0.855  -0.854  -0.852  -0.848
 -0.847  -0.847  -0.843  -0.842  -0.838  -0.832  -0.824  -0.820
 -0.819  -0.813  -0.812  -0.804  -0.801  -0.796  -0.789  -0.783
 -0.736  -0.731  -0.727  -0.721  -0.715  -0.713  -0.711  -0.710
 -0.698  -0.698  -0.697  -0.695  -0.690  -0.686  -0.681  -0.680
 -0.676  -0.674  -0.666  -0.665  -0.648  -0.645  -0.638  -0.634
 -0.631  -0.627  -0.604  -0.603  -0.597  -0.594  -0.593  -0.590
 -0.585  -0.583  -0.583  -0.576  -0.576  -0.562  -0.560  -0.554
 -0.553  -0.544  -0.543  -0.540  -0.540  -0.536  -0.528  -0.526
 -0.525  -0.518  -0.517  -0.514  -0.508  -0.507  -0.504  -0.503
 -0.501  -0.499  -0.497  -0.496  -0.494  -0.494  -0.493  -0.489
 -0.489  -0.488  -0.487  -0.486  -0.484  -0.483  -0.483  -0.482
 -0.480  -0.479  -0.477  -0.476  -0.475  -0.468  -0.467  -0.462
 -0.461  -0.455  -0.454  -0.450  -0.442  -0.441  -0.435  -0.434
 -0.433  -0.433  -0.429  -0.428  -0.427  -0.425  -0.424  -0.423
 -0.423  -0.422  -0.419  -0.416  -0.415  -0.408  -0.407  -0.405
 -0.404  -0.400  -0.399  -0.399  -0.398  -0.396  -0.396  -0.395
 -0.394  -0.393  -0.392  -0.391  -0.390  -0.386  -0.385  -0.382
 -0.378  -0.374  -0.367  -0.359  -0.356  -0.354  -0.351  -0.348
 -0.343  -0.334  -0.318  -0.313  -0.308  -0.300  -0.297  -0.297
 -0.296  -0.296  -0.295  -0.290  -0.284  -0.281  -0.279  -0.274
 -0.272  -0.261  -0.255  -0.254  -0.220  -0.212
 -- Virtual --
 -0.095  -0.059  -0.036  -0.031  -0.005   0.002   0.006   0.006
  0.008   0.010   0.012   0.014   0.017   0.025   0.031   0.033
  0.038   0.045   0.058   0.059   0.071   0.083   0.090   0.092
  0.116   0.122   0.125   0.139   0.142   0.144   0.146   0.150
  0.156   0.156   0.159   0.161   0.164   0.166   0.167   0.168
  0.171   0.174   0.180   0.182   0.183   0.185   0.186   0.187
  0.190   0.193   0.194   0.194   0.198   0.199   0.200   0.201
  0.205   0.205   0.206   0.207   0.208   0.209   0.210   0.211
  0.213   0.214   0.215   0.216   0.218   0.218   0.219   0.220
  0.224   0.224   0.226   0.228   0.229   0.232   0.234   0.236
  0.237   0.237   0.238   0.240   0.242   0.243   0.244   0.245
  0.246   0.249   0.250   0.252   0.253   0.253   0.254   0.255
  0.258   0.260   0.262   0.267   0.269   0.272   0.275   0.277
  0.280   0.280   0.282   0.283   0.285   0.288   0.291   0.293
  0.294   0.296   0.300   0.300   0.304   0.307   0.308   0.309
  0.314   0.315   0.317   0.320   0.322   0.324   0.325   0.325
  0.331   0.331   0.332   0.336   0.337   0.340   0.340   0.346
  0.351   0.352   0.355   0.359   0.361   0.364   0.370   0.373
  0.378   0.383   0.384   0.394   0.398   0.403   0.404   0.407
  0.413   0.414   0.415   0.418   0.423   0.432   0.435   0.443
  0.443   0.445   0.450   0.451   0.456   0.458   0.459   0.462
  0.464   0.466   0.470   0.474   0.478   0.481   0.488   0.490
  0.493   0.497   0.499   0.501   0.505   0.507   0.510   0.512
  0.518   0.520   0.524   0.526   0.527   0.528   0.530   0.530
  0.534   0.535   0.537   0.538   0.539   0.542   0.544   0.545
  0.546   0.549   0.550   0.553   0.554   0.554   0.557   0.559
  0.560   0.561   0.562   0.563   0.565   0.567   0.571   0.573
  0.574   0.575   0.580   0.583   0.587   0.588   0.588   0.590
  0.591   0.592   0.592   0.595   0.596   0.597   0.598   0.599
  0.599   0.601   0.602   0.604   0.605   0.606   0.610   0.611
  0.613   0.613   0.615   0.618   0.618   0.620   0.621   0.621
  0.622   0.623   0.624   0.625   0.628   0.629   0.629   0.630
  0.631   0.631   0.632   0.633   0.633   0.638   0.640   0.643
  0.644   0.645   0.648   0.649   0.650   0.651   0.655   0.655
  0.657   0.660   0.661   0.662   0.664   0.665   0.666   0.667
  0.668   0.671   0.672   0.674   0.677   0.679   0.680   0.684
  0.685   0.688   0.691   0.692   0.696   0.697   0.700   0.701
  0.703   0.704   0.707   0.708   0.711   0.713   0.714   0.715
  0.717   0.719   0.721   0.723   0.725   0.731   0.733   0.735
  0.740   0.746   0.748   0.749   0.753   0.755   0.758   0.761
  0.762   0.764   0.766   0.770   0.774   0.777   0.779   0.780
  0.786   0.786   0.787   0.791   0.798   0.801   0.804   0.808
  0.808   0.816   0.819   0.820   0.825   0.827   0.834   0.836
  0.841   0.845   0.848   0.851   0.852   0.856   0.861   0.864
  0.866   0.875   0.878   0.884   0.892   0.895   0.899   0.904
  0.908   0.912   0.914   0.915   0.917   0.918   0.922   0.932
  0.933   0.937   0.940   0.942   0.945   0.945   0.947   0.949
  0.952   0.954   0.954   0.955   0.956   0.959   0.961   0.962
  0.965   0.965   0.966   0.969   0.971   0.972   0.975   0.980
  0.981   0.983   0.984   0.985   0.986   0.990   0.992   0.994
  0.995   0.997   1.002   1.002   1.003   1.004   1.008   1.011
  1.011   1.016   1.016   1.020   1.021   1.027   1.029   1.032
  1.035   1.037   1.040   1.041   1.043   1.045   1.045   1.048
  1.051   1.055   1.057   1.058   1.059   1.061   1.063   1.065
  1.069   1.071   1.073   1.075   1.076   1.077   1.079   1.080
  1.082   1.087   1.089   1.092   1.093   1.095   1.097   1.100
  1.102   1.103   1.106   1.110   1.114   1.115   1.121   1.125
  1.125   1.132   1.135   1.138   1.141   1.145   1.148   1.149
  1.151   1.153   1.156   1.156   1.161   1.162   1.165   1.167
  1.171   1.176   1.179   1.182   1.185   1.189   1.193   1.196
  1.196   1.201   1.203   1.206   1.210   1.212   1.219   1.220
  1.223   1.225   1.234   1.234   1.239   1.244   1.251   1.255
  1.260   1.262   1.264   1.267   1.272   1.275   1.278   1.281
  1.285   1.289   1.290   1.297   1.298   1.299   1.300   1.305
  1.308   1.311   1.314   1.316   1.320   1.321   1.322   1.324
  1.328   1.332   1.336   1.338   1.340   1.343   1.347   1.347
  1.353   1.356   1.358   1.363   1.367   1.371   1.375   1.375
  1.378   1.380   1.385   1.389   1.391   1.398   1.401   1.409
  1.410   1.412   1.418   1.422   1.429   1.431   1.440   1.441
  1.442   1.447   1.450   1.456   1.460   1.463   1.475   1.479
  1.485   1.487   1.489   1.492   1.494   1.508   1.510   1.511
  1.512   1.513   1.515   1.517   1.517   1.518   1.520   1.528
  1.531   1.532   1.533   1.537   1.541   1.543   1.546   1.547
  1.550   1.551   1.552   1.555   1.557   1.560   1.560   1.562
  1.563   1.566   1.570   1.570   1.575   1.576   1.580   1.582
  1.583   1.586   1.594   1.596   1.603   1.603   1.605   1.607
  1.615   1.618   1.623   1.629   1.631   1.637   1.642   1.649
  1.657   1.664   1.673   1.675   1.692   1.707   1.722   1.732
  1.737   1.739   1.744   1.752   1.756   1.760   1.764   1.767
  1.770   1.777   1.782   1.785   1.790   1.794   1.799   1.801
  1.809   1.809   1.810   1.811   1.814   1.817   1.820   1.821
  1.822   1.825   1.828   1.835   1.838   1.853   1.857   1.862
  1.862   1.863   1.872   1.882   1.884   1.890   1.896   1.899
  1.901   1.903   1.904   1.907   1.908   1.918   1.919   1.925
  1.929   1.932   1.933   1.937   1.942   1.943   1.945   1.949
  1.953   1.972   1.976   1.979   1.981   1.982   1.986   1.987
  1.990   1.997   2.001   2.008   2.013   2.016   2.023   2.025
  2.026   2.030   2.033   2.036   2.038   2.040   2.042   2.047
  2.057   2.061   2.067   2.068   2.071   2.071   2.073   2.074
  2.075   2.076   2.082   2.086   2.096   2.099   2.105   2.108
  2.111   2.111   2.122   2.133   2.136   2.142   2.144   2.148
  2.149   2.151   2.155   2.158   2.160   2.162   2.165   2.168
  2.168   2.171   2.182   2.184   2.194   2.195   2.198   2.201
  2.202   2.204   2.204   2.207   2.208   2.210   2.214   2.215
  2.219   2.220   2.230   2.231   2.231   2.232   2.239   2.244
  2.246   2.249   2.251   2.257   2.260   2.262   2.269   2.270
  2.274   2.276   2.278   2.282   2.286   2.288   2.292   2.298
  2.307   2.310   2.312   2.319   2.321   2.322   2.322   2.324
  2.333   2.337   2.340   2.345   2.346   2.349   2.351   2.354
  2.355   2.358   2.360   2.361   2.364   2.368   2.370   2.374
  2.376   2.377   2.381   2.387   2.387   2.388   2.390   2.395
  2.396   2.398   2.400   2.404   2.406   2.410   2.411   2.416
  2.418   2.422   2.425   2.432   2.435   2.441   2.446   2.454
  2.459   2.466   2.471   2.472   2.478   2.480   2.485   2.488
  2.497   2.499   2.500   2.503   2.507   2.508   2.515   2.525
  2.528   2.531   2.542   2.562   2.568   2.573   2.580   2.596
  2.604   2.609   2.613   2.623   2.630   2.634   2.643   2.644
  2.644   2.645   2.658   2.660   2.665   2.672   2.678   2.681
  2.683   2.687   2.689   2.693   2.694   2.697   2.709   2.712
  2.725   2.727   2.729   2.735   2.737   2.739   2.740   2.741
  2.742   2.751   2.753   2.753   2.763   2.766   2.770   2.777
  2.779   2.783   2.785   2.787   2.790   2.791   2.791   2.791
  2.792   2.795   2.802   2.808   2.809   2.811   2.813   2.815
  2.817   2.823   2.824   2.828   2.833   2.836   2.843   2.848
  2.853   2.861   2.865   2.867   2.870   2.879   2.887   2.899
  2.904   2.905   2.912   2.914   2.923   2.926   2.935   2.947
  2.948   2.954   2.955   2.977   2.984   3.000   3.003   3.012
  3.015   3.018   3.031   3.033   3.054   3.062   3.075   3.082
  3.082   3.105   3.136   3.147   3.160   3.239   3.257   3.259
  3.297   3.304   3.338   3.364   3.404   3.444   3.452   3.482
  3.490   3.491   3.493   3.496   3.517   3.519   3.539   3.551
  3.667   3.677   9.598   9.754  13.142  13.178  13.247  13.252
 13.274  13.286  13.442  13.497  13.511  13.518  13.525  13.550
 13.666  13.672  13.679  13.682  13.686  13.694  13.705  13.714
 13.718  13.724  13.730  13.771  13.774  13.796  13.802  13.807
 13.861  13.870  13.892  13.927  13.931  14.002  14.006  14.033
 14.035  14.037  14.041  14.046  14.055  14.057  14.151  14.153
 14.157  14.158  14.163  14.163  14.165  14.177  14.184  14.187
 14.190  14.202  14.222  14.239  14.263  14.270  14.282  14.293
 14.316  14.318  14.343  14.348  14.511  14.516  14.562  14.569
 14.580  14.581  14.583  14.584  14.586  14.591  14.591  14.613
 19.680  19.687
 --------------------------------------------------------------
 
          Ground-State Mulliken Net Atomic Charges

     Atom                 Charge (a.u.)
  ----------------------------------------
      1 C                    -0.148564
      2 C                    -0.393831
      3 H                     0.232491
      4 C                     0.119596
      5 C                     0.092310
      6 C                    -0.383230
      7 H                     0.235855
      8 C                    -0.143797
      9 C                     0.199421
     10 C                    -0.378625
     11 H                     0.219698
     12 C                    -0.066674
     13 C                     0.251688
     14 C                     0.198032
     15 C                    -0.387899
     16 H                     0.220736
     17 C                    -0.204963
     18 H                     0.226562
     19 C                    -0.331972
     20 H                     0.220543
     21 C                    -0.335537
     22 H                     0.220970
     23 C                    -0.202006
     24 H                     0.224871
     25 B                     0.625909
     26 C                    -0.146644
     27 C                    -0.393892
     28 H                     0.234025
     29 C                     0.094700
     30 C                     0.118230
     31 C                    -0.399670
     32 H                     0.232203
     33 C                    -0.149933
     34 C                     0.196002
     35 C                    -0.376470
     36 H                     0.219305
     37 C                    -0.064817
     38 C                     0.253471
     39 C                     0.197134
     40 C                    -0.385342
     41 H                     0.218960
     42 C                    -0.204915
     43 H                     0.226865
     44 C                    -0.332097
     45 H                     0.220732
     46 C                    -0.202384
     47 H                     0.226418
     48 C                    -0.336303
     49 H                     0.221353
     50 B                     0.646212
     51 C                    -0.212532
     52 C                     0.077290
     53 C                    -0.327310
     54 H                     0.222914
     55 C                     0.246197
     56 C                    -0.320796
     57 H                     0.229764
     58 C                     0.060132
     59 N                    -0.669724
     60 C                     0.325817
     61 C                    -0.305043
     62 H                     0.248900
     63 C                    -0.211006
     64 H                     0.217750
     65 C                    -0.243736
     66 H                     0.214304
     67 C                    -0.209403
     68 H                     0.215153
     69 C                    -0.287126
     70 H                     0.241139
     71 C                     0.305287
     72 C                    -0.275389
     73 H                     0.247303
     74 C                    -0.216437
     75 H                     0.219778
     76 C                    -0.236695
     77 H                     0.216212
     78 C                    -0.214827
     79 H                     0.212993
     80 C                    -0.280777
     81 H                     0.243991
     82 C                    -0.544674
     83 H                     0.252073
     84 H                     0.231425
     85 C                    -0.555089
     86 H                     0.257699
     87 H                     0.234083
     88 C                    -0.646763
     89 H                     0.241071
     90 H                     0.217156
     91 H                     0.220906
     92 C                    -0.647642
     93 H                     0.248834
     94 H                     0.216223
     95 H                     0.218485
     96 C                    -0.252400
     97 C                     0.082573
     98 C                    -0.382865
     99 H                     0.240685
    100 C                     0.335664
    101 N                    -0.662305
    102 C                    -0.385426
    103 H                     0.238131
    104 C                     0.103438
    105 C                     0.270040
    106 C                    -0.265960
    107 H                     0.242756
    108 C                    -0.217157
    109 H                     0.222002
    110 C                    -0.232770
    111 H                     0.219014
    112 C                    -0.218938
    113 H                     0.221550
    114 C                    -0.261892
    115 H                     0.246960
    116 C                     0.255762
    117 C                    -0.259108
    118 H                     0.242709
    119 C                    -0.218445
    120 H                     0.222409
    121 C                    -0.231613
    122 H                     0.219576
    123 C                    -0.219599
    124 H                     0.223127
    125 C                    -0.255717
    126 H                     0.245457
    127 C                    -0.540451
    128 H                     0.246704
    129 H                     0.227892
    130 C                    -0.553787
    131 H                     0.257664
    132 H                     0.231518
    133 C                    -0.645362
    134 H                     0.240087
    135 H                     0.218648
    136 H                     0.215377
    137 C                    -0.644861
    138 H                     0.245177
    139 H                     0.215730
    140 H                     0.215370
  ----------------------------------------
  Sum of atomic charges =    -0.000000

 -----------------------------------------------------------------
                    Cartesian Multipole Moments
 -----------------------------------------------------------------
    Charge (ESU x 10^10)
                -0.0000
    Dipole Moment (Debye)
         X      -1.9963      Y       0.2391      Z      -0.9643
       Tot       2.2298
    Quadrupole Moments (Debye-Ang)
        XX    -420.8107     XY      -3.7446     YY    -462.8357
        XZ      -9.4199     YZ       0.9257     ZZ    -401.0527
    Octopole Moments (Debye-Ang^2)
       XXX      82.3935    XXY    -217.1946    XYY      14.0148
       YYY    -774.7195    XXZ     410.7587    XYZ     -22.7692
       YYZ     531.5404    XZZ      87.6812    YZZ    -290.6569
       ZZZ    1421.3105
    Hexadecapole Moments (Debye-Ang^3)
      XXXX  -64125.4703   XXXY    1375.7480   XXYY  -12115.8635
      XYYY     545.5599   YYYY   -8237.8522   XXXZ   -9013.0003
      XXYZ     414.9287   XYYZ   -2373.8563   YYYZ     721.8769
      XXZZ  -17674.9778   XYZZ     426.6408   YYZZ  -10298.9464
      XZZZ   -9210.8811   YZZZ     907.1459   ZZZZ  -44394.3782
 -----------------------------------------------------------------
 -----------------------------------------------------------------
               TDA Excited-State Multipoles, State  1
 -----------------------------------------------------------------
    Charge (ESU x 10^10)
                -0.0000
    Dipole Moment (Debye)
         X     -20.8952      Y       3.5069      Z      -9.4050
       Tot      23.1811
    Quadrupole Moments (Debye-Ang)
        XX    -330.5127     XY     -29.6174     YY    -446.1154
        XZ      90.6109     YZ     -10.1259     ZZ    -409.3828
    Octopole Moments (Debye-Ang^2)
       XXX    -964.0448    XXY     -60.9539    XYY    -152.3982
       YYY    -697.0171    XXZ    -185.1421    XYZ      48.9352
       YYZ     451.0377    XZZ    -404.1807    YZZ    -263.5720
       ZZZ    1395.8189
    Hexadecapole Moments (Debye-Ang^3)
      XXXX  -57420.1858   XXXY    -104.2276   XXYY  -11053.2758
      XYYY    -110.0389   YYYY   -7792.0997   XXXZ   -3969.1202
      XXYZ    -134.3468   XYYZ   -1784.6817   YYYZ     439.2887
      XXZZ  -15426.9147   XYZZ     195.9773   YYZZ  -10004.1109
      XZZZ   -5954.9517   YZZZ     847.6786   ZZZZ  -46373.6107
 -----------------------------------------------------------------
 -----------------------------------------------------------------
               TDA Excited-State Multipoles, State  2
 -----------------------------------------------------------------
    Charge (ESU x 10^10)
                -0.0000
    Dipole Moment (Debye)
         X      19.4593      Y       3.0614      Z      13.5315
       Tot      23.8985
    Quadrupole Moments (Debye-Ang)
        XX    -319.2091     XY      26.8048     YY    -459.1498
        XZ      65.1789     YZ       8.9203     ZZ    -432.0969
    Octopole Moments (Debye-Ang^2)
       XXX    1323.6080    XXY      -3.0046    XYY     125.7639
       YYY    -765.2552    XXZ     894.9367    XYZ      18.0591
       YYZ     573.6825    XZZ     295.0790    YZZ    -277.5061
       ZZZ    1995.3724
    Hexadecapole Moments (Debye-Ang^3)
      XXXX  -56419.2646   XXXY    3706.5860   XXYY  -11622.4547
      XYYY     896.9912   YYYY   -8251.1381   XXXZ   -6502.8624
      XXYZ     867.2430   XYYZ   -2298.4105   YYYZ     826.3635
      XXZZ  -17451.5501   XYZZ     600.0475   YYZZ  -10352.8362
      XZZZ   -6629.2746   YZZZ    1032.5322   ZZZZ  -46653.3779
 -----------------------------------------------------------------
Archival summary:
1\1\ctcp041\SP\ProcedureUnspecified\BasisUnspecified\276260\mewes1\FriNov917:45:032018FriNov917:45:032018\0\\#,ProcedureUnspecified,BasisUnspecified,\\0,1\C\C,1,1.41123\H,2,1.08471,1,119.1\C,2,1.37419,1,121.028,3,179.364,0\C,4,1.42461,2,119.389,1,-0.538274,0\C,5,1.36765,4,120.709,2,-0.155306,0\H,6,1.08659,5,119.045,4,-179.107,0\C,6,1.41116,5,120.745,4,0.598794,0\C,5,1.45835,4,108.441,2,-179.174,0\C,9,1.37245,5,135.102,4,179.958,0\H,10,1.08357,9,121.744,5,0.60727,0\C,9,1.40745,5,106.21,4,0.201649,0\C,12,1.39263,9,123.79,5,179.616,0\C,12,1.41095,9,111.377,5,-0.236289,0\C,14,1.37203,12,117.758,9,-179.996,0\H,15,1.08291,14,121.724,12,179.747,0\C,10,1.41288,9,118.688,5,-179.586,0\H,17,1.08299,10,118.682,9,-179.919,0\C,17,1.37555,10,122.309,9,-0.004773,0\H,19,1.08332,17,119.89,10,179.981,0\C,13,1.41474,12,116.02,9,-179.89,0\H,21,1.08319,13,120.147,12,-179.987,0\C,21,1.37541,13,119.776,12,-0.056243,0\H,23,1.08252,21,118.814,13,-179.871,0\B,8,1.52693,6,121.334,5,-177.943,0\C,25,1.52581,8,120.79,6,-178.731,0\C,26,1.41072,25,121.348,8,179.223,0\H,27,1.08705,26,119.806,25,-0.99088,0\C,27,1.36947,26,120.685,25,178.804,0\C,29,1.42557,27,120.686,26,-0.428373,0\C,30,1.3756,29,119.48,27,-0.286713,0\H,31,1.08545,30,120.214,29,-178.989,0\C,31,1.41063,30,120.906,29,0.445673,0\C,29,1.45803,27,130.899,26,-179.95,0\C,34,1.37178,29,134.925,27,-0.403871,0\H,35,1.08343,34,121.769,29,-0.143262,0\C,34,1.40725,29,106.275,27,179.519,0\C,37,1.39118,34,123.824,29,-179.861,0\C,37,1.41088,34,111.276,29,0.04523,0\C,39,1.37093,37,117.833,34,-179.893,0\H,40,1.08258,39,121.728,37,179.953,0\C,35,1.41247,34,118.565,29,179.9,0\H,42,1.08286,35,118.668,34,179.977,0\C,42,1.37582,35,122.315,34,-0.038466,0\H,44,1.08322,42,119.82,35,-179.974,0\C,40,1.41482,39,118.638,37,-0.022811,0\H,46,1.08242,40,118.291,39,179.997,0\C,46,1.37536,40,122.885,39,0.016464,0\H,48,1.08304,46,120.03,40,179.988,0\B,33,1.53788,31,120.69,30,-177.549,0\C,50,1.57694,33,121.866,31,5.99081,0\C,51,1.40264,50,121.612,33,-107.14,0\C,52,1.38946,51,120.242,50,-173.038,0\H,53,1.08431,52,120.164,51,178.964,0\C,53,1.38654,52,120.563,51,0.572479,0\C,55,1.38599,53,119.517,52,-2.14667,0\H,56,1.08485,55,119.356,53,-179.758,0\C,56,1.38906,55,120.729,53,1.70941,0\N,55,1.41724,53,119.939,52,174.584,0\C,59,1.39728,55,119.179,53,129.502,0\C,60,1.39647,59,121.822,55,142.724,0\H,61,1.08185,60,120.064,59,0.072636,0\C,61,1.385,60,120.391,59,-179.092,0\H,63,1.08265,61,119.003,60,179.796,0\C,63,1.38619,61,120.931,60,0.972788,0\H,65,1.08162,63,120.608,61,179.389,0\C,65,1.38774,63,118.787,61,-0.347159,0\H,67,1.08252,65,120.061,63,179.983,0\C,67,1.3833,65,120.855,63,-0.550116,0\H,69,1.08219,67,119.892,65,-179.706,0\C,59,1.40308,55,117.044,53,-64.2339,0\C,71,1.39489,59,120.827,55,146.298,0\H,72,1.08231,71,119.577,59,0.390135,0\C,72,1.38445,71,120.32,59,-179.328,0\H,74,1.08244,72,119.263,71,179.889,0\C,74,1.38776,72,120.709,71,0.964772,0\H,76,1.08176,74,120.446,72,179.401,0\C,76,1.38669,74,119.076,72,-0.32487,0\H,78,1.08288,76,120.102,74,-179.753,0\C,78,1.38477,76,120.685,74,-0.47882,0\H,80,1.08258,78,119.917,76,-179.482,0\C,52,1.50714,51,120.568,50,8.43256,0\H,82,1.09279,52,110.059,51,-41.4534,0\H,82,1.09298,52,109.523,51,-157.789,0\C,58,1.50994,56,118.236,55,176.027,0\H,85,1.09157,58,110.393,56,147.898,0\H,85,1.09325,58,109.228,56,31.6071,0\C,82,1.52695,52,112.437,51,80.3376,0\H,88,1.09003,82,111.221,52,-61.5615,0\H,88,1.0907,82,111.128,52,58.5718,0\H,88,1.0909,82,110.982,52,178.706,0\C,85,1.5283,58,112.651,56,-89.8413,0\H,92,1.08978,85,111.282,58,-60.343,0\H,92,1.09089,85,111.237,58,59.7284,0\H,92,1.09163,85,110.87,58,179.665,0\C,25,1.5825,8,117.161,6,7.93623,0\C,96,1.42659,25,118.887,8,92.0097,0\C,97,1.36953,96,120.391,25,-172.695,0\H,98,1.08274,97,119.518,96,-178.574,0\C,98,1.41156,97,120.937,96,-0.073818,0\N,100,1.36276,98,119.888,97,176.879,0\C,100,1.41362,98,119.158,97,-2.24455,0\H,102,1.08277,100,119.592,98,178.265,0\C,102,1.37132,100,120.461,98,2.16244,0\C,101,1.41466,100,122.019,98,155.647,0\C,105,1.39163,101,119.444,100,133.782,0\H,106,1.08224,105,120.068,101,-1.92833,0\C,106,1.38318,105,119.485,101,178.565,0\H,108,1.08146,106,119.55,105,179.395,0\C,108,1.38838,106,120.279,105,-0.294983,0\H,110,1.0815,108,120.021,106,-179.893,0\C,110,1.38734,108,119.97,106,-0.216133,0\H,112,1.0814,110,120.184,108,-179.08,0\C,112,1.38448,110,120.302,108,0.107359,0\H,114,1.08235,112,120.45,110,-178.469,0\C,101,1.41695,100,120.814,98,-24.2672,0\C,116,1.39094,101,119.517,100,131.226,0\H,117,1.08215,116,120.129,101,-0.904876,0\C,117,1.38372,116,119.47,101,179.931,0\H,119,1.08149,117,119.551,116,179.241,0\C,119,1.38822,117,120.305,116,-0.255995,0\H,121,1.08155,119,120.019,117,179.914,0\C,121,1.38739,119,119.972,117,-0.268078,0\H,123,1.08141,121,120.241,119,-179.298,0\C,123,1.38468,121,120.262,119,0.167022,0\H,125,1.08249,123,120.374,121,-179.13,0\C,104,1.50069,102,119.221,100,179.662,0\H,127,1.09137,104,109.753,102,-141.414,0\H,127,1.09276,104,109.497,102,-24.4878,0\C,97,1.5032,96,121.36,25,4.41182,0\H,130,1.08918,97,110.277,96,27.4772,0\H,130,1.09337,97,109.218,96,144.452,0\C,127,1.52764,104,111.443,102,96.9519,0\H,133,1.08925,127,111.297,104,61.5215,0\H,133,1.08948,127,110.414,104,-179.126,0\H,133,1.09105,127,111.197,104,-59.2858,0\C,130,1.5289,97,111.209,96,-94.5524,0\H,137,1.08933,130,111.22,97,58.8688,0\H,137,1.08973,130,110.479,97,178.41,0\H,137,1.0917,130,111.264,97,-61.731,0\\\@

 Total job time:  19351.65s(wall), 52355.97s(cpu) 
 Fri Nov  9 17:45:03 2018

        *************************************************************
        *                                                           *
        *  Thank you very much for using Q-Chem.  Have a nice day.  *
        *                                                           *
        *************************************************************


0 sent ACK to 0 
now end server 0 ... 
 
*************************************************************
Job 2 of 2 
*************************************************************
 
mFile = /cm/shared/apps/q-chem/intel/QCHEM_5.1.0_Trunk/bin/mpi/machines
Process 0 of 1 is on ctcp041 - thread support 0
initial socket setup ...start
initial socket setup ...done 
now start server 0 ... 
Q-Chem Developer Version!
                  Welcome to Q-Chem
     A Quantum Leap Into The Future Of Chemistry


 Q-Chem 5.1, Q-Chem, Inc., Pleasanton, CA (2018)

 Yihan Shao,  Zhengting Gan,  E. Epifanovsky,  A. T. B. Gilbert,  M. Wormit,  
 J. Kussmann,  A. W. Lange,  A. Behn,  Jia Deng,  Xintian Feng,  D. Ghosh,  
 M. Goldey,  P. R. Horn,  L. D. Jacobson,  I. Kaliman,  T. Kus,  A. Landau,  
 Jie Liu,  E. I. Proynov,  R. M. Richard,  R. P. Steele,  E. J. Sundstrom,  
 H. L. Woodcock III,  P. M. Zimmerman,  D. Zuev,  B. Albrecht,  E. Alguire,  
 S. A. Baeppler,  D. Barton,  Z. Benda,  Y. A. Bernard,  E. J. Berquist,  
 K. B. Bravaya,  H. Burton,  D. Casanova,  Chun-Min Chang,  Yunqing Chen,  
 A. Chien,  K. D. Closser,  M. P. Coons,  S. Coriani,  S. Dasgupta,  
 A. L. Dempwolff,  M. Diedenhofen,  Hainam Do,  R. G. Edgar,  Po-Tung Fang,  
 S. Faraji,  S. Fatehi,  Qingguo Feng,  K. D. Fenk,  J. Fosso-Tande,  
 Qinghui Ge,  A. Ghysels,  G. Gidofalvi,  J. Gomes,  J. Gonthier,  A. Gunina,  
 D. Hait,  M. W. D. Hanson-Heine,  P. H. P. Harbach,  A. W. Hauser,  
 J. E. Herr,  E. G. Hohenstein,  Z. C. Holden,  Kerwin Hui,  B. C. Huynh,  
 T.-C. Jagau,  Hyunjun Ji,  B. Kaduk,  K. Khistyaev,  Jaehoon Kim,  
 P. Klunzinger,  K. Koh,  D. Kosenkov,  L. Koulias,  T. Kowalczyk,  
 C. M. Krauter,  A. Kunitsa,  Ka Un Lao,  A. Laurent,  K. V. Lawler,  
 Joonho Lee,  D. Lefrancois,  S. Lehtola,  D. S. Levine,  Yi-Pei Li,  
 You-Sheng Lin,  Fenglai Liu,  E. Livshits,  A. Luenser,  P. Manohar,  
 E. Mansoor,  S. F. Manzer,  Shan-Ping Mao,  Yuezhi Mao,  N. Mardirossian,  
 A. V. Marenich,  T. Markovich,  L. A. Martinez-Martinez,  S. A. Maurer,  
 N. J. Mayhall,  S. C. McKenzie,  J.-M. Mewes,  A. F. Morrison,  
 J. W. Mullinax,  K. Nanda,  T. S. Nguyen-Beck,  R. Olivares-Amaya,  
 J. A. Parkhill,  T. M. Perrine,  F. Plasser,  P. Pokhilko,  S. Prager,  
 A. Prociuk,  E. Ramos,  D. R. Rehn,  F. Rob,  M. Schneider,  N. Sergueev,  
 S. M. Sharada,  S. Sharma,  D. W. Small,  T. Stauch,  T. Stein,  
 Yu-Chuan Su,  A. J. W. Thom,  A. Tkatchenko,  T. Tsuchimochi,  N. M. Tubman,  
 L. Vogt,  M. L. Vidal,  O. Vydrov,  M. A. Watson,  J. Wenzel,  
 M. de Wergifosse,  T. A. Wesolowski,  A. White,  J. Witte,  A. Yamada,  
 Jun Yang,  K. Yao,  S. Yeganeh,  S. R. Yost,  Zhi-Qiang You,  A. Zech,  
 Igor Ying Zhang,  Xing Zhang,  Yan Zhao,  Ying Zhu,  B. R. Brooks,  
 G. K. L. Chan,  C. J. Cramer,  M. S. Gordon,  W. J. Hehre,  A. Klamt,  
 M. W. Schmidt,  C. D. Sherrill,  D. G. Truhlar,  A. Aspuru-Guzik,  R. Baer,  
 A. T. Bell,  N. A. Besley,  Jeng-Da Chai,  A. E. DePrince, III,  
 R. A. DiStasio Jr.,  A. Dreuw,  B. D. Dunietz,  T. R. Furlani,  
 Chao-Ping Hsu,  Yousung Jung,  Jing Kong,  D. S. Lambrecht,  WanZhen Liang,  
 C. Ochsenfeld,  V. A. Rassolov,  L. V. Slipchenko,  J. E. Subotnik,  
 T. Van Voorhis,  J. M. Herbert,  A. I. Krylov,  P. M. W. Gill,  M. Head-Gordon

 Contributors to earlier versions of Q-Chem not listed above: 
 R. D. Adamson,  B. Austin,  J. Baker,  G. J. O. Beran,  K. Brandhorst,  
 S. T. Brown,  E. F. C. Byrd,  A. K. Chakraborty,  C.-L. Cheng,  
 Siu Hung Chien,  D. M. Chipman,  D. L. Crittenden,  H. Dachsel,  
 R. J. Doerksen,  A. D. Dutoi,  L. Fusti-Molnar,  W. A. Goddard III,  
 A. Golubeva-Zadorozhnaya,  S. R. Gwaltney,  G. Hawkins,  A. Heyden,  
 S. Hirata,  G. Kedziora,  F. J. Keil,  C. Kelley,  Jihan Kim,  R. A. King,  
 R. Z. Khaliullin,  P. P. Korambath,  W. Kurlancheek,  A. M. Lee,  M. S. Lee,  
 S. V. Levchenko,  Ching Yeh Lin,  D. Liotard,  R. C. Lochan,  I. Lotan,  
 P. E. Maslen,  N. Nair,  D. P. O'Neill,  D. Neuhauser,  E. Neuscamman,  
 C. M. Oana,  R. Olson,  B. Peters,  R. Peverati,  P. A. Pieniazek,  
 Y. M. Rhee,  J. Ritchie,  M. A. Rohrdanz,  E. Rosta,  N. J. Russ,  
 H. F. Schaefer III,  N. E. Schultz,  N. Shenvi,  A. C. Simmonett,  A. Sodt,  
 D. Stuck,  K. S. Thanthiriwatte,  V. Vanovschi,  Tao Wang,  A. Warshel,  
 C. F. Williams,  Q. Wu,  X. Xu,  W. Zhang

 Please cite Q-Chem as follows:
 Y. Shao et al., Mol. Phys. 113, 184-215 (2015)
 DOI: 10.1080/00268976.2014.952696

 Q-Chem 5.1.1 for Intel X86 EM64T Linux

 Parts of Q-Chem use Armadillo 8.300.2 (Tropical Shenanigans).
 http://arma.sourceforge.net/

 Q-Chem begins on Fri Nov  9 17:45:06 2018  

Host: ctcp041
0

     Scratch files written to /scratch/mewes1/140054/qchem32575//
 Parallel job on  1  processors
The previous job contains 0 fragments, simply inherited here
Symmetry turned off for PCM/SM12/SMD calculation
Input Ideriv = 2
Curr. Ideriv = -1
Max.  Ideriv = 2
Input Ideriv = 1
Curr. Ideriv = 2
Max.  Ideriv = 1

Checking the input file for inconsistencies... 	...done.

--------------------------------------------------------------
User input:
--------------------------------------------------------------
$rem
threads 8
jobtype sp
method PBEh-3c
basis def2-mSVP
mem_static      1024
mem_total       14000
sym_ignore      true
cis_n_roots             6
cis_singlets            true
cis_triplets            true
rpa                     false
calc_soc                true
cis_moments             true
cis_relaxed_density     true
solvent_method          pcm
$end

$molecule
read
$end

$pcm
statespecific           Marcus 
$end

$solvent
dielectric      1.0001 
dielectric_infi 1.00009
$end

--------------------------------------------------------------
 Adding empirical dispersion correction 
 ----------------------------------------------------------------
 Doing -D3(BJ) with
 s6 =   1.00000
 s8 =   0.00000
 a1 =   0.48600
 a2 =   4.50000
 -D3 energy including 3body term =     -0.1357138106 hartrees
 ----------------------------------------------------------------
 Adding gCP correction 
 ----------------------------------------------------------------
 gCP energy =      0.1922887730 hartrees
 ----------------------------------------------------------------
             Standard Nuclear Orientation (Angstroms)
    I     Atom           X                Y                Z
 ----------------------------------------------------------------
    1      C       0.0000000000     0.0000000000     0.0000000000
    2      C       0.0000000000     0.0000000000     1.4112320000
    3      H       0.9477895104     0.0000000000     1.9387729991
    4      C      -1.1774962274     0.0130732905     2.1195628747
    5      C      -2.4161600044     0.0384876108     1.4162951373
    6      C      -2.4428228474     0.0531096213     0.0489872455
    7      H      -3.4024320640     0.0872335351    -0.4596089179
    8      C      -1.2446789731     0.0306876464    -0.6962133177
    9      C      -3.4999127154     0.0678702516     2.3916947277
   10      C      -4.8702106345     0.0998700051     2.3217689753
   11      H      -5.3927889040     0.0986574225     1.3725463507
   12      C      -2.8879943505     0.0642064810     3.6591515255
   13      C      -3.5930710417     0.0950983428     4.8597036064
   14      C      -1.4816247268     0.0288884874     3.5511576956
   15      C      -0.7515200570     0.0213101313     4.7127755590
   16      H       0.3309263831    -0.0092803633     4.7047966793
   17      C      -5.6101934617     0.1310094044     3.5249694154
   18      H      -6.6915036808     0.1549142498     3.4696933385
   19      C      -5.0052737891     0.1302383928     4.7603723465
   20      H      -5.6110870467     0.1550652390     5.6581217439
   21      C      -2.8114034856     0.0884471962     6.0388731708
   22      H      -3.2912146065     0.1109561968     7.0097385281
   23      C      -1.4394369814     0.0518558612     5.9487071794
   24      H      -0.8566126247     0.0451395485     6.8609193456
   25      B      -1.2571587159     0.0934109613    -2.2218024540
   26      C       0.0442961672     0.0393666342    -3.0164014109
   27      C       0.0454526148     0.0801232312    -4.4265330722
   28      H      -0.8965265152     0.1351695451    -4.9662784740
   29      C       1.2228971083     0.0552950963    -5.1254392204
   30      C       2.4730318844    -0.0031116348    -4.4428003568
   31      C       2.4928485556    -0.0287295693    -3.0675856913
   32      H       3.4384443356    -0.0566376875    -2.5353429696
   33      C       1.2935900427    -0.0074095302    -2.3251562523
   34      C       1.4824640059     0.0878383611    -6.5598092712
   35      C       0.6996661528     0.1446946992    -7.6848711682
   36      H      -0.3817605894     0.1750762911    -7.6264070023
   37      C       2.8813191123     0.0494547579    -6.7084149670
   38      C       3.5301246465     0.0672008467    -7.9389112205
   39      C       3.5278940940    -0.0065843832    -5.4556671318
   40      C       4.8981874579    -0.0464760963    -5.4438305926
   41      H       5.4585222637    -0.0894927724    -4.5185470701
   42      C       1.3323002415     0.1626720648    -8.9476174115
   43      H       0.7159546481     0.2071531591    -9.8368508735
   44      C       2.7007263160     0.1259980541    -9.0852310488
   45      H       3.1433183164     0.1420678258   -10.0737730657
   46      C       5.5877407132    -0.0300050701    -6.6791318250
   47      H       6.6695857456    -0.0616348252    -6.6632384237
   48      C       4.9437373962     0.0246551307    -7.8931682203
   49      H       5.5180138635     0.0353037367    -8.8113536349
   50      B       1.3225539792     0.0203412909    -0.7878014705
   51      C       2.6708418505     0.1659720280     0.0169585265
   52      C       3.2318623548    -0.9146978877     0.7132356884
   53      C       4.3396865778    -0.7219909804     1.5294428852
   54      H       4.7621318699    -1.5550007257     2.0802346698
   55      C       4.8968040574     0.5392468516     1.6757043518
   56      C       4.3684171420     1.6056992721     0.9654525974
   57      H       4.8088485461     2.5906197054     1.0788550651
   58      C       3.2667494262     1.4309778257     0.1376378649
   59      N       5.9530385785     0.7432580434     2.5983775285
   60      C       7.1142781118     1.3928285004     2.1718018881
   61      C       7.8087064439     2.2783298375     2.9987165920
   62      H       7.4520093625     2.4772478022     4.0005119456
   63      C       8.9464377506     2.9204888860     2.5389016618
   64      H       9.4654183890     3.6049916950     3.1978685523
   65      C       9.4077986301     2.7154256299     1.2479250205
   66      H      10.2913321862     3.2271949689     0.8910432661
   67      C       8.7121928055     1.8457420537     0.4199171733
   68      H       9.0540754460     1.6706072580    -0.5921620920
   69      C       7.5850231119     1.1840185313     0.8728384154
   70      H       7.0572220621     0.5055973514     0.2153435809
   71      C       5.6603894723     0.5475280071     3.9565684378
   72      C       6.6230076804     0.0401417472     4.8292935149
   73      H       7.6099001140    -0.1996257591     4.4552064329
   74      C       6.3186109345    -0.1618556336     6.1646762389
   75      H       7.0780668401    -0.5580970063     6.8264165093
   76      C       5.0496216160     0.1169575818     6.6523309508
   77      H       4.8136217154    -0.0515804191     7.6944960115
   78      C       4.0870509604     0.6090645099     5.7838917952
   79      H       3.0926356988     0.8360691013     6.1475259521
   80      C       4.3856637618     0.8303867358     4.4499403300
   81      H       3.6270585067     1.2228064134     3.7847384853
   82      C       2.6637844190    -2.3023799681     0.5612293553
   83      H       1.5717774903    -2.2616198761     0.5538919267
   84      H       2.9395935742    -2.9070491660     1.4289381171
   85      C       2.6811800661     2.6474641003    -0.5385215035
   86      H       2.2650108996     2.3786323466    -1.5111776406
   87      H       3.4793202558     3.3672306447    -0.7387920571
   88      C       3.1454660463    -2.9929984846    -0.7125894460
   89      H       2.8318829453    -2.4450868185    -1.6011948060
   90      H       4.2334958344    -3.0666549569    -0.7325082086
   91      H       2.7387655547    -4.0024891282    -0.7873154706
   92      C       1.5968043886     3.3224710477     0.3006423071
   93      H       0.7664183076     2.6437161325     0.4939529129
   94      H       1.9891972610     3.6489658000     1.2647314216
   95      H       1.1983969853     4.2001114902    -0.2118843602
   96      C      -2.6476245645     0.3779548637    -2.9217546535
   97      C      -3.0072547559     1.7264796809    -3.2172498034
   98      C      -4.2601500938     2.0230227571    -3.6840772846
   99      H      -4.5105374756     3.0482972002    -3.9258210579
  100      C      -5.2193054355     1.0069155235    -3.8842132386
  101      N      -6.4792682998     1.3325520100    -4.2886569651
  102      C      -4.8584667639    -0.3382209498    -3.6418928491
  103      H      -5.5967120690    -1.1205179469    -3.7659304362
  104      C      -3.6068935693    -0.6490621107    -3.1755717492
  105      C      -7.3072877607     0.4141846234    -4.9758620731
  106      C      -8.6337558485     0.2625995378    -4.5832503089
  107      H      -9.0165464848     0.8210557317    -3.7389522209
  108      C      -9.4522359220    -0.6130764444    -5.2735115324
  109      H     -10.4805325782    -0.7390310922    -4.9631832644
  110      C      -8.9564382270    -1.3308731650    -6.3535804011
  111      H      -9.6005803043    -2.0131471191    -6.8913833156
  112      C      -7.6360818342    -1.1675540630    -6.7468972486
  113      H      -7.2504241922    -1.7137392024    -7.5968293564
  114      C      -6.8073787521    -0.2924463978    -6.0655502574
  115      H      -5.7840013495    -0.1446802304    -6.3854716594
  116      C      -7.0132026400     2.6201751080    -4.0342903987
  117      C      -7.6195456478     3.3269792010    -5.0674832329
  118      H      -7.6690498322     2.9010584655    -6.0610584186
  119      C      -8.1419163194     4.5837203130    -4.8176543621
  120      H      -8.6026594103     5.1395725568    -5.6228707052
  121      C      -8.0666439269     5.1333025385    -3.5450833004
  122      H      -8.4752312198     6.1165561651    -3.3552962297
  123      C      -7.4704141849     4.4191547280    -2.5158380977
  124      H      -7.4195153432     4.8383651442    -1.5202925831
  125      C      -6.9458959827     3.1597785304    -2.7528727201
  126      H      -6.4928438246     2.5951697329    -1.9480397729
  127      C      -3.2559715282    -2.0857084439    -2.9206648773
  128      H      -2.6457981563    -2.1619763256    -2.0190182217
  129      H      -4.1688364208    -2.6564405358    -2.7333797288
  130      C      -2.0552138677     2.8626610590    -2.9675914717
  131      H      -1.0255777526     2.5127944793    -3.0289658237
  132      H      -2.1791034308     3.6148506304    -3.7513758776
  133      C      -2.5037010306    -2.6949994050    -4.1024129161
  134      H      -1.5621704139    -2.1773373983    -4.2813615110
  135      H      -2.2710633558    -3.7411090109    -3.9062071130
  136      H      -3.0989488035    -2.6479120884    -5.0155648365
  137      C      -2.3037041699     3.5024665569    -1.6014110532
  138      H      -2.1926336900     2.7742335121    -0.7989220847
  139      H      -1.5896434569     4.3056298346    -1.4209981865
  140      H      -3.3081349110     3.9256262354    -1.5392000165
 ----------------------------------------------------------------
 Nuclear Repulsion Energy = 12191.3116592953 hartrees
 There are      270 alpha and      270 beta electrons
 Requested basis set is def2-mSVP
 There are 680 shells and 1320 basis functions

 Total QAlloc Memory Limit  14000 MB
 Mega-Array Size      1001 MB
 MEM_STATIC part      1024 MB
 Discretize the solute cavity surface with Lebedev spheres
	Using 302 Lebedev grid points for each H atom
	Using 302 Lebedev grid points for other atoms
	Atomic van der Waals radii will be scaled by 1.20
 Remove points where switching function is < 1.0e-08
 Keep 14591 surface tesserae and discard 27689 interior tesserae
 Molecular Surface Area = 1075.662 Angst**2
 A cutoff of  1.0D-11 yielded  63321 shell pairs
 There are    245933 function pairs (    270407 Cartesian)
 
 -------------------------------------------------------
 OpenMP Integral Computing Module                       
 Release: version 1.0, May 2013, Q-Chem Inc. Pittsburgh 
 -------------------------------------------------------
 Integral Job Info:
 Integral job number is                      11
 Integral operator is                         1
 short-range coefficients                     0
 long-range coefficients              100000000
 Omega coefficients                           0
 if combine SR and LR in K                    0
 Integral screening is                        0
 Integral computing path is                   2
 max size of driver memory is            800000
 size of driver memory is                593474
 size of scratch memory is              1809772
 max col of scratch BK array               1296
 max len of scratch array in speh3          155
 max len of scratch index in speh4           18
 max int batch size is                      520
 min int batch size is                       52
 fixed nKL is                                52
 max L of basis functions is                  2
 order of int derivative is                   0
 number of shells is                        680
 number of basis is                        1400
 number of cartesian basis is              1400
 number of contracted shell pairs         63321
 number of primitive shell pairs         130751
 maxK2 (contraction) of shell pair           25
 max number of K2 of shell pair               1
 max number of CS2 of shell pair          15643
 max number of PS2 of shell pair          22970
 mem total for path MDJ                 1137052
 -------------------------------------------------------
 Smallest overlap matrix eigenvalue = 1.94E-04

 Scale SEOQF with 1.000000e-02/1.000000e-02/1.000000e-02

 Standard Electronic Orientation quadrupole field applied
 Nucleus-field energy     =    -0.0000000475 hartrees
 Guess from superposition of atomic densities
 Warning:  Energy on first SCF cycle will be non-variational
 SAD guess density has 540.000001 electrons

 -----------------------------------------------------------------------
  General SCF calculation program by
  Eric Jon Sundstrom, Paul Horn, Yuezhi Mao, Dmitri Zuev, Alec White,
  David Stuck, Shaama M.S., Shane Yost, Joonho Lee, David Small,
  Daniel Levine, Susi Lehtola, Hugh Burton, Evgeny Epifanovsky
 -----------------------------------------------------------------------
 Exchange:     0.4200 Hartree-Fock + 0.5800 PBEh-3c
 Correlation:  1.0000 PBEh-3c
 Using SG-1 standard quadrature grid
 Dispersion:   Grimme D3
 using 8 threads for integral computing
 -------------------------------------------------------
 OpenMP Integral computing Module                
 Release: version 2.0, May 2017, Q-Chem Inc. Pleasanton 
 -------------------------------------------------------
 -------------------------------------------------------
 OpenMP BLAS3 based DFT computing Module                
 Release: version 1.0, May 2013, Q-Chem Inc. Pittsburgh 
 -------------------------------------------------------
 A restricted SCF calculation will be
 performed using DIIS
 SCF converges when DIIS error is below 1.0e-08
 ---------------------------------------
  Cycle       Energy         DIIS error
 ---------------------------------------
    1   -3111.2379654671      2.35e-02  
    2               -nan          -nan  
solve(c,A,vect) failed Check on this
The B Matrix
           0.  -1.0000e+00  -1.0000e+00  -1.0000e+00
  -1.0000e+00   9.6206e+02          nan          nan
  -1.0000e+00          nan          nan          nan
  -1.0000e+00          nan          nan          nan
    3               -nan     1.80e+308  
    4               -nan           nan  
    5               -nan           nan  
solve(c,A,vect) failed Check on this
The B Matrix
       0.  -1.0000  -1.0000  -1.0000
  -1.0000      nan      nan      nan
  -1.0000      nan      nan      nan
  -1.0000      nan      nan      nan
    6               -nan     1.80e+308  
    7               -nan           nan  
    8               -nan           nan  
solve(c,A,vect) failed Check on this
The B Matrix
       0.  -1.0000  -1.0000  -1.0000
  -1.0000      nan      nan      nan
  -1.0000      nan      nan      nan
  -1.0000      nan      nan      nan
    9               -nan     1.80e+308  
   10               -nan           nan  
   11               -nan           nan  
solve(c,A,vect) failed Check on this
The B Matrix
       0.  -1.0000  -1.0000  -1.0000
  -1.0000      nan      nan      nan
  -1.0000      nan      nan      nan
  -1.0000      nan      nan      nan
   12               -nan     1.80e+308  
   13               -nan           nan  
   14               -nan           nan  
solve(c,A,vect) failed Check on this
The B Matrix
       0.  -1.0000  -1.0000  -1.0000
  -1.0000      nan      nan      nan
  -1.0000      nan      nan      nan
  -1.0000      nan      nan      nan
   15               -nan     1.80e+308  
   16               -nan           nan  
   17               -nan           nan  
solve(c,A,vect) failed Check on this
The B Matrix
       0.  -1.0000  -1.0000  -1.0000
  -1.0000      nan      nan      nan
  -1.0000      nan      nan      nan
  -1.0000      nan      nan      nan
   18               -nan     1.80e+308  
   19               -nan           nan  
   20               -nan           nan  
solve(c,A,vect) failed Check on this
The B Matrix
       0.  -1.0000  -1.0000  -1.0000
  -1.0000      nan      nan      nan
  -1.0000      nan      nan      nan
  -1.0000      nan      nan      nan
   21               -nan     1.80e+308  
   22               -nan           nan  
   23               -nan           nan  
solve(c,A,vect) failed Check on this
The B Matrix
       0.  -1.0000  -1.0000  -1.0000
  -1.0000      nan      nan      nan
  -1.0000      nan      nan      nan
  -1.0000      nan      nan      nan
   24               -nan     1.80e+308  
   25               -nan           nan  
   26               -nan           nan  
solve(c,A,vect) failed Check on this
The B Matrix
       0.  -1.0000  -1.0000  -1.0000
  -1.0000      nan      nan      nan
  -1.0000      nan      nan      nan
  -1.0000      nan      nan      nan
   27               -nan     1.80e+308  
   28               -nan           nan  
   29               -nan           nan  
solve(c,A,vect) failed Check on this
The B Matrix
       0.  -1.0000  -1.0000  -1.0000
  -1.0000      nan      nan      nan
  -1.0000      nan      nan      nan
  -1.0000      nan      nan      nan
   30               -nan     1.80e+308  
   31               -nan           nan  
   32               -nan           nan  
solve(c,A,vect) failed Check on this
The B Matrix
       0.  -1.0000  -1.0000  -1.0000
  -1.0000      nan      nan      nan
  -1.0000      nan      nan      nan
  -1.0000      nan      nan      nan
   33               -nan     1.80e+308  
   34               -nan           nan  
   35               -nan           nan  
solve(c,A,vect) failed Check on this
The B Matrix
       0.  -1.0000  -1.0000  -1.0000
  -1.0000      nan      nan      nan
  -1.0000      nan      nan      nan
  -1.0000      nan      nan      nan
   36               -nan     1.80e+308  
   37               -nan           nan  
   38               -nan           nan  
solve(c,A,vect) failed Check on this
The B Matrix
       0.  -1.0000  -1.0000  -1.0000
  -1.0000      nan      nan      nan
  -1.0000      nan      nan      nan
  -1.0000      nan      nan      nan
   39               -nan     1.80e+308  
   40               -nan           nan  
   41               -nan           nan  
solve(c,A,vect) failed Check on this
The B Matrix
       0.  -1.0000  -1.0000  -1.0000
  -1.0000      nan      nan      nan
  -1.0000      nan      nan      nan
  -1.0000      nan      nan      nan
   42               -nan     1.80e+308  
   43               -nan           nan  
   44               -nan           nan  
solve(c,A,vect) failed Check on this
The B Matrix
       0.  -1.0000  -1.0000  -1.0000
  -1.0000      nan      nan      nan
  -1.0000      nan      nan      nan
  -1.0000      nan      nan      nan
   45               -nan     1.80e+308  
   46               -nan           nan  
   47               -nan           nan  
solve(c,A,vect) failed Check on this
The B Matrix
       0.  -1.0000  -1.0000  -1.0000
  -1.0000      nan      nan      nan
  -1.0000      nan      nan      nan
  -1.0000      nan      nan      nan
   48               -nan     1.80e+308  
   49               -nan           nan  
   50               -nan           nan  
gen_scfman_exception: eig_sym(): decomposition failed

 Q-Chem fatal error occurred in module libgscf/gen_scfman/gen_scfman_main.C, line 144:

 Error in gen_scfman


 Please submit a crash report at q-chem.com/reporter 
 
 
[ctcp041:17217] *** Process received signal ***
[ctcp041:17217] Signal: Aborted (6)
[ctcp041:17217] Signal code:  (-6)
[ctcp041:17217] [ 0] /lib64/libpthread.so.0(+0xf100)[0x2aaaaaee2100]
[ctcp041:17217] [ 1] /lib64/libc.so.6(gsignal+0x37)[0x2aaaac37e5f7]
[ctcp041:17217] [ 2] /lib64/libc.so.6(abort+0x148)[0x2aaaac37fce8]
[ctcp041:17217] [ 3] /cm/shared/apps/q-chem/intel/QCHEM_5.1.0_Trunk/exe/qcprog.exe[0x10a2c76b]
[ctcp041:17217] [ 4] /cm/shared/apps/q-chem/intel/QCHEM_5.1.0_Trunk/exe/qcprog.exe[0xab5521]
[ctcp041:17217] [ 5] /cm/shared/apps/q-chem/intel/QCHEM_5.1.0_Trunk/exe/qcprog.exe[0x43fe3d]
[ctcp041:17217] [ 6] /cm/shared/apps/q-chem/intel/QCHEM_5.1.0_Trunk/exe/qcprog.exe[0x43d36e]
[ctcp041:17217] [ 7] /cm/shared/apps/q-chem/intel/QCHEM_5.1.0_Trunk/exe/qcprog.exe[0x43c2b0]
[ctcp041:17217] [ 8] /lib64/libc.so.6(__libc_start_main+0xf5)[0x2aaaac36ab15]
[ctcp041:17217] [ 9] /cm/shared/apps/q-chem/intel/QCHEM_5.1.0_Trunk/exe/qcprog.exe[0x416029]
[ctcp041:17217] *** End of error message ***
