mFile = /cm/shared/apps/q-chem/intel/QCHEM_5.1.0_Trunk/bin/mpi/machines
Process 0 of 1 is on ctcp002 - thread support 0
initial socket setup ...start
initial socket setup ...done 
now start server 0 ... 
Q-Chem Developer Version!
                  Welcome to Q-Chem
     A Quantum Leap Into The Future Of Chemistry


 Q-Chem 5.1, Q-Chem, Inc., Pleasanton, CA (2018)

 Yihan Shao,  Zhengting Gan,  E. Epifanovsky,  A. T. B. Gilbert,  M. Wormit,  
 J. Kussmann,  A. W. Lange,  A. Behn,  Jia Deng,  Xintian Feng,  D. Ghosh,  
 M. Goldey,  P. R. Horn,  L. D. Jacobson,  I. Kaliman,  T. Kus,  A. Landau,  
 Jie Liu,  E. I. Proynov,  R. M. Richard,  R. P. Steele,  E. J. Sundstrom,  
 H. L. Woodcock III,  P. M. Zimmerman,  D. Zuev,  B. Albrecht,  E. Alguire,  
 S. A. Baeppler,  D. Barton,  Z. Benda,  Y. A. Bernard,  E. J. Berquist,  
 K. B. Bravaya,  H. Burton,  D. Casanova,  Chun-Min Chang,  Yunqing Chen,  
 A. Chien,  K. D. Closser,  M. P. Coons,  S. Coriani,  S. Dasgupta,  
 A. L. Dempwolff,  M. Diedenhofen,  Hainam Do,  R. G. Edgar,  Po-Tung Fang,  
 S. Faraji,  S. Fatehi,  Qingguo Feng,  K. D. Fenk,  J. Fosso-Tande,  
 Qinghui Ge,  A. Ghysels,  G. Gidofalvi,  J. Gomes,  J. Gonthier,  A. Gunina,  
 D. Hait,  M. W. D. Hanson-Heine,  P. H. P. Harbach,  A. W. Hauser,  
 J. E. Herr,  E. G. Hohenstein,  Z. C. Holden,  Kerwin Hui,  B. C. Huynh,  
 T.-C. Jagau,  Hyunjun Ji,  B. Kaduk,  K. Khistyaev,  Jaehoon Kim,  
 P. Klunzinger,  K. Koh,  D. Kosenkov,  L. Koulias,  T. Kowalczyk,  
 C. M. Krauter,  A. Kunitsa,  Ka Un Lao,  A. Laurent,  K. V. Lawler,  
 Joonho Lee,  D. Lefrancois,  S. Lehtola,  D. S. Levine,  Yi-Pei Li,  
 You-Sheng Lin,  Fenglai Liu,  E. Livshits,  A. Luenser,  P. Manohar,  
 E. Mansoor,  S. F. Manzer,  Shan-Ping Mao,  Yuezhi Mao,  N. Mardirossian,  
 A. V. Marenich,  T. Markovich,  L. A. Martinez-Martinez,  S. A. Maurer,  
 N. J. Mayhall,  S. C. McKenzie,  J.-M. Mewes,  A. F. Morrison,  
 J. W. Mullinax,  K. Nanda,  T. S. Nguyen-Beck,  R. Olivares-Amaya,  
 J. A. Parkhill,  T. M. Perrine,  F. Plasser,  P. Pokhilko,  S. Prager,  
 A. Prociuk,  E. Ramos,  D. R. Rehn,  F. Rob,  M. Schneider,  N. Sergueev,  
 S. M. Sharada,  S. Sharma,  D. W. Small,  T. Stauch,  T. Stein,  
 Yu-Chuan Su,  A. J. W. Thom,  A. Tkatchenko,  T. Tsuchimochi,  N. M. Tubman,  
 L. Vogt,  M. L. Vidal,  O. Vydrov,  M. A. Watson,  J. Wenzel,  
 M. de Wergifosse,  T. A. Wesolowski,  A. White,  J. Witte,  A. Yamada,  
 Jun Yang,  K. Yao,  S. Yeganeh,  S. R. Yost,  Zhi-Qiang You,  A. Zech,  
 Igor Ying Zhang,  Xing Zhang,  Yan Zhao,  Ying Zhu,  B. R. Brooks,  
 G. K. L. Chan,  C. J. Cramer,  M. S. Gordon,  W. J. Hehre,  A. Klamt,  
 M. W. Schmidt,  C. D. Sherrill,  D. G. Truhlar,  A. Aspuru-Guzik,  R. Baer,  
 A. T. Bell,  N. A. Besley,  Jeng-Da Chai,  A. E. DePrince, III,  
 R. A. DiStasio Jr.,  A. Dreuw,  B. D. Dunietz,  T. R. Furlani,  
 Chao-Ping Hsu,  Yousung Jung,  Jing Kong,  D. S. Lambrecht,  WanZhen Liang,  
 C. Ochsenfeld,  V. A. Rassolov,  L. V. Slipchenko,  J. E. Subotnik,  
 T. Van Voorhis,  J. M. Herbert,  A. I. Krylov,  P. M. W. Gill,  M. Head-Gordon

 Contributors to earlier versions of Q-Chem not listed above: 
 R. D. Adamson,  B. Austin,  J. Baker,  G. J. O. Beran,  K. Brandhorst,  
 S. T. Brown,  E. F. C. Byrd,  A. K. Chakraborty,  C.-L. Cheng,  
 Siu Hung Chien,  D. M. Chipman,  D. L. Crittenden,  H. Dachsel,  
 R. J. Doerksen,  A. D. Dutoi,  L. Fusti-Molnar,  W. A. Goddard III,  
 A. Golubeva-Zadorozhnaya,  S. R. Gwaltney,  G. Hawkins,  A. Heyden,  
 S. Hirata,  G. Kedziora,  F. J. Keil,  C. Kelley,  Jihan Kim,  R. A. King,  
 R. Z. Khaliullin,  P. P. Korambath,  W. Kurlancheek,  A. M. Lee,  M. S. Lee,  
 S. V. Levchenko,  Ching Yeh Lin,  D. Liotard,  R. C. Lochan,  I. Lotan,  
 P. E. Maslen,  N. Nair,  D. P. O'Neill,  D. Neuhauser,  E. Neuscamman,  
 C. M. Oana,  R. Olson,  B. Peters,  R. Peverati,  P. A. Pieniazek,  
 Y. M. Rhee,  J. Ritchie,  M. A. Rohrdanz,  E. Rosta,  N. J. Russ,  
 H. F. Schaefer III,  N. E. Schultz,  N. Shenvi,  A. C. Simmonett,  A. Sodt,  
 D. Stuck,  K. S. Thanthiriwatte,  V. Vanovschi,  Tao Wang,  A. Warshel,  
 C. F. Williams,  Q. Wu,  X. Xu,  W. Zhang

 Please cite Q-Chem as follows:
 Y. Shao et al., Mol. Phys. 113, 184-215 (2015)
 DOI: 10.1080/00268976.2014.952696

 Q-Chem 5.1.1 for Intel X86 EM64T Linux

 Parts of Q-Chem use Armadillo 8.300.2 (Tropical Shenanigans).
 http://arma.sourceforge.net/

 Q-Chem begins on Sun Nov  4 10:11:01 2018  

Host: ctcp002
0

     Scratch files written to /scratch/mewes/139529/qchem23678//
 Parallel job on  1  processors
The previous job contains 0 fragments, simply inherited here
Symmetry turned off for PCM/SM12/SMD calculation
Input Ideriv = 2
Curr. Ideriv = -1
Max.  Ideriv = 2
Input Ideriv = 1
Curr. Ideriv = 2
Max.  Ideriv = 1

Checking the input file for inconsistencies... 	...done.

--------------------------------------------------------------
User input:
--------------------------------------------------------------
$solvent
dielectric      4.33
dielectric_infi 1.83
$end

$rem
threads 8
jobtype	sp
method PBEh-3c
basis def2-mSVP
mem_static	1024
mem_total	14000
sym_ignore	true
cis_n_roots             2
cis_singlets            true 
cis_triplets		false
rpa                     false
calc_soc 		true
cis_moments             true
cis_relaxed_density	true
solvent_method		pcm
$end

$pcm
StateSpecific   1
ChargeSeparation Excited
$end


$molecule
read moms1opt_eth.mol
$end


--------------------------------------------------------------
 Adding empirical dispersion correction 
 ----------------------------------------------------------------
 Doing -D3(BJ) with
 s6 =   1.00000
 s8 =   0.00000
 a1 =   0.48600
 a2 =   4.50000
 -D3 energy including 3body term =     -0.1353875932 hartrees
 ----------------------------------------------------------------
 Adding gCP correction 
 ----------------------------------------------------------------
 gCP energy =      0.1918151626 hartrees
 ----------------------------------------------------------------
             Standard Nuclear Orientation (Angstroms)
    I     Atom           X                Y                Z
 ----------------------------------------------------------------
    1      C       0.0000000000     0.0000000000     0.0000000000
    2      C       0.0000000000     0.0000000000     1.4130270000
    3      H       0.9461334079     0.0000000000     1.9440965572
    4      C      -1.1782061779     0.0115858722     2.1202528005
    5      C      -2.4184998878     0.0320400859     1.4166376749
    6      C      -2.4440768447     0.0522408677     0.0473154952
    7      H      -3.4006737400     0.0866588405    -0.4659592035
    8      C      -1.2461648450     0.0375066690    -0.6957891699
    9      C      -3.5017295840     0.0557373038     2.3923378496
   10      C      -4.8733643097     0.0835991485     2.3220897320
   11      H      -5.3967979154     0.0842837403     1.3734030725
   12      C      -2.8889115692     0.0543965392     3.6605440904
   13      C      -3.5943922720     0.0840411082     4.8618415166
   14      C      -1.4818613956     0.0277015919     3.5532441593
   15      C      -0.7504103736     0.0301006542     4.7152755018
   16      H       0.3324832529     0.0105185842     4.7078673018
   17      C      -5.6129826864     0.1116833603     3.5268066583
   18      H      -6.6943053019     0.1330062189     3.4708193091
   19      C      -5.0079179009     0.1129887574     4.7633694981
   20      H      -5.6134246998     0.1365400074     5.6614540791
   21      C      -2.8125123321     0.0855506456     6.0418658548
   22      H      -3.2929756430     0.1081321104     7.0125754613
   23      C      -1.4390380261     0.0593383627     5.9518726194
   24      H      -0.8558911871     0.0610304744     6.8640513787
   25      B      -1.2714900474     0.1102810659    -2.2230345531
   26      C       0.0342097286     0.0403074267    -3.0152102769
   27      C       0.0310270582     0.0740972364    -4.4247187253
   28      H      -0.9121358894     0.1415183478    -4.9596912483
   29      C       1.2060234366     0.0230563104    -5.1290126914
   30      C       2.4591662328    -0.0524805623    -4.4501260321
   31      C       2.4841431290    -0.0667596442    -3.0745998795
   32      H       3.4335048020    -0.1076855162    -2.5494400621
   33      C       1.2867621736    -0.0213167743    -2.3266837622
   34      C       1.4592536646     0.0351994727    -6.5640708762
   35      C       0.6708981440     0.0943809453    -7.6870199765
   36      H      -0.4094226392     0.1476374891    -7.6240002493
   37      C       2.8573679945    -0.0336351281    -6.7185868123
   38      C       3.5006437823    -0.0451594104    -7.9532780682
   39      C       3.5096272449    -0.0887406240    -5.4680477851
   40      C       4.8802299305    -0.1589118303    -5.4618045647
   41      H       5.4448916652    -0.2041877022    -4.5389816987
   42      C       1.2988149642     0.0840317413    -8.9531785171
   43      H       0.6787234568     0.1304469973    -9.8397939120
   44      C       2.6666785362     0.0169012216    -9.0976592901
   45      H       3.1048745908     0.0111859884   -10.0883919026
   46      C       5.5636251930    -0.1722347260    -6.7013593025
   47      H       6.6447093590    -0.2279300599    -6.6903356322
   48      C       4.9140819207    -0.1180153295    -7.9141012572
   49      H       5.4835148538    -0.1313003854    -8.8354392620
   50      B       1.3207948405     0.0106149476    -0.7904224161
   51      C       2.6757962670     0.1510093289     0.0077890551
   52      C       3.2353887728    -0.9303360256     0.7053824627
   53      C       4.3529573305    -0.7434511222     1.5111422594
   54      H       4.7728395790    -1.5793285540     2.0602753912
   55      C       4.9222906190     0.5140390508     1.6463784154
   56      C       4.3964386050     1.5813986009     0.9345830504
   57      H       4.8433656932     2.5646031060     1.0386566274
   58      C       3.2861877046     1.4112487914     0.1157897425
   59      N       5.9887013700     0.7122670973     2.5589648616
   60      C       7.1475967742     1.3626310585     2.1253614454
   61      C       7.8397089701     2.2564341400     2.9462831964
   62      H       7.4837391978     2.4622711805     3.9470739871
   63      C       8.9772344268     2.8980932412     2.4824194152
   64      H       9.4944581476     3.5887803734     3.1365234579
   65      C       9.4404816189     2.6829523102     1.1924944615
   66      H      10.3236497206     3.1934823194     0.8322367501
   67      C       8.7471002417     1.8046470020     0.3698593081
   68      H       9.0906332575     1.6214058333    -0.6404093197
   69      C       7.6198193747     1.1439945426     0.8278523720
   70      H       7.0969087685     0.4576915996     0.1740624288
   71      C       5.7090874303     0.5162957199     3.9211696041
   72      C       6.6783653387    -0.0016510992     4.7810227728
   73      H       7.6599644454    -0.2492013578     4.3973358574
   74      C       6.3880632609    -0.2059223661     6.1201759056
   75      H       7.1524670790    -0.6101517153     6.7715487207
   76      C       5.1257797177     0.0806853916     6.6235153280
   77      H       4.9003602971    -0.0902612985     7.6678409013
   78      C       4.1562719145     0.5835801685     5.7675952973
   79      H       3.1670300115     0.8152363417     6.1423929222
   80      C       4.4423446547     0.8083783155     4.4302370200
   81      H       3.6771499748     1.2099728224     3.7778595807
   82      C       2.6597007355    -2.3160973104     0.5634070544
   83      H       1.5683775716    -2.2680253087     0.5426821742
   84      H       2.9236392632    -2.9139674125     1.4393965232
   85      C       2.7124451814     2.6292535689    -0.5683420034
   86      H       2.3083854047     2.3602306176    -1.5460012252
   87      H       3.5153694086     3.3467588340    -0.7569126355
   88      C       3.1502168338    -3.0222766736    -0.6987685538
   89      H       2.8575376103    -2.4740016401    -1.5945900607
   90      H       2.7296025810    -4.0260644763    -0.7732812634
   91      H       4.2374706490    -3.1118554439    -0.7021470887
   92      C       1.6175798733     3.3106574883     0.2522335716
   93      H       0.7764632061     2.6392572154     0.4251529353
   94      H       1.9943452213     3.6307521274     1.2249527105
   95      H       1.2372992260     4.1925655530    -0.2661272993
   96      C      -2.6567944301     0.3897355912    -2.9445363866
   97      C      -3.0304643265     1.7335895730    -3.2025416139
   98      C      -4.2454007912     2.0209349639    -3.7778507891
   99      H      -4.4996058536     3.0480411562    -4.0098746115
  100      C      -5.1371543046     0.9880992459    -4.1211060815
  101      N      -6.3486887261     1.2905485000    -4.6854903007
  102      C      -4.7739425407    -0.3501457544    -3.8760783080
  103      H      -5.4765000213    -1.1451503999    -4.0950082581
  104      C      -3.5618377846    -0.6450922728    -3.2947722662
  105      C      -6.9793700063     0.4063181077    -5.5835351192
  106      C      -6.2341802926    -0.2029354233    -6.5923299152
  107      H      -5.1766325672     0.0051541221    -6.6908048304
  108      C      -6.8681674894    -1.0439715311    -7.4896979949
  109      H      -6.2952320888    -1.5078739288    -8.2808723758
  110      C      -8.2339280969    -1.2749354322    -7.3876785816
  111      H      -8.7253718034    -1.9309779977    -8.0934782311
  112      C      -8.9716836745    -0.6587430289    -6.3836651302
  113      H     -10.0342709897    -0.8417789372    -6.2995179433
  114      C      -8.3525374522     0.1860592522    -5.4811501829
  115      H      -8.9248984756     0.6580269182    -4.6931854186
  116      C      -6.9855036380     2.5176136122    -4.4056093178
  117      C      -7.5291659402     3.2628399534    -5.4505191923
  118      H      -7.4449405420     2.9143000487    -6.4715653424
  119      C      -8.1501386828     4.4669559063    -5.1729483698
  120      H      -8.5592034570     5.0548484995    -5.9833381876
  121      C      -8.2386215266     4.9248406688    -3.8636564283
  122      H      -8.7273040439     5.8664818222    -3.6524794976
  123      C      -7.7034261143     4.1728921183    -2.8257770666
  124      H      -7.7832201277     4.5198354557    -1.8045813964
  125      C      -7.0765073618     2.9674305978    -3.0888097980
  126      H      -6.6802719185     2.3685367891    -2.2789637256
  127      C      -3.2123729077    -2.0867566492    -3.0520687867
  128      H      -2.5608765849    -2.1718126472    -2.1805918917
  129      H      -4.1212162240    -2.6463546894    -2.8180514666
  130      C      -2.1403696096     2.8862701505    -2.8211893476
  131      H      -1.1044299000     2.5557419821    -2.7425529603
  132      H      -2.1663508051     3.6403585223    -3.6122736788
  133      C      -2.5296097076    -2.7105036639    -4.2671316912
  134      H      -1.5991872249    -2.1945152522    -4.5024539703
  135      H      -2.2902018843    -3.7568672566    -4.0787070108
  136      H      -3.1740874432    -2.6652711789    -5.1465314394
  137      C      -2.5767744202     3.5197408956    -1.5014016233
  138      H      -2.5512206005     2.7926214074    -0.6899724677
  139      H      -1.9125021934     4.3413582664    -1.2333928078
  140      H      -3.5910495036     3.9171981774    -1.5685143909
 ----------------------------------------------------------------
 Nuclear Repulsion Energy = 12170.7994316490 hartrees
 There are      270 alpha and      270 beta electrons
 Requested basis set is def2-mSVP
 There are 680 shells and 1320 basis functions

 Total QAlloc Memory Limit  14000 MB
 Mega-Array Size      1001 MB
 MEM_STATIC part      1024 MB
 Discretize the solute cavity surface with Lebedev spheres
	Using 302 Lebedev grid points for each H atom
	Using 302 Lebedev grid points for other atoms
	Atomic van der Waals radii will be scaled by 1.20
 Remove points where switching function is < 1.0e-08
 Keep 14663 surface tesserae and discard 27617 interior tesserae
 Molecular Surface Area = 1076.703 Angst**2
 A cutoff of  1.0D-11 yielded  63131 shell pairs
 There are    245123 function pairs (    269514 Cartesian)
 
 -------------------------------------------------------
 OpenMP Integral Computing Module                       
 Release: version 1.0, May 2013, Q-Chem Inc. Pittsburgh 
 -------------------------------------------------------
 Integral Job Info:
 Integral job number is                      11
 Integral operator is                         1
 short-range coefficients                     0
 long-range coefficients              100000000
 Omega coefficients                           0
 if combine SR and LR in K                    0
 Integral screening is                        0
 Integral computing path is                   2
 max size of driver memory is            800000
 size of driver memory is                593474
 size of scratch memory is              1809772
 max col of scratch BK array               1296
 max len of scratch array in speh3          155
 max len of scratch index in speh4           18
 max int batch size is                      520
 min int batch size is                       52
 fixed nKL is                                52
 max L of basis functions is                  2
 order of int derivative is                   0
 number of shells is                        680
 number of basis is                        1400
 number of cartesian basis is              1400
 number of contracted shell pairs         63131
 number of primitive shell pairs         130312
 maxK2 (contraction) of shell pair           25
 max number of K2 of shell pair               1
 max number of CS2 of shell pair          15620
 max number of PS2 of shell pair          22875
 mem total for path MDJ                 1134764
 -------------------------------------------------------
 Smallest overlap matrix eigenvalue = 1.95E-04

 Scale SEOQF with 1.000000e-02/1.000000e-02/1.000000e-02

 Standard Electronic Orientation quadrupole field applied
 Nucleus-field energy     =    -0.0000000552 hartrees
 Guess from superposition of atomic densities
 Warning:  Energy on first SCF cycle will be non-variational
 SAD guess density has 540.000001 electrons

 -----------------------------------------------------------------------
  General SCF calculation program by
  Eric Jon Sundstrom, Paul Horn, Yuezhi Mao, Dmitri Zuev, Alec White,
  David Stuck, Shaama M.S., Shane Yost, Joonho Lee, David Small,
  Daniel Levine, Susi Lehtola, Hugh Burton, Evgeny Epifanovsky
 -----------------------------------------------------------------------
 Exchange:     0.4200 Hartree-Fock + 0.5800 PBEh-3c
 Correlation:  1.0000 PBEh-3c
 Using SG-1 standard quadrature grid
 Dispersion:   Grimme D3
 using 8 threads for integral computing
 -------------------------------------------------------
 OpenMP Integral computing Module                
 Release: version 2.0, May 2017, Q-Chem Inc. Pleasanton 
 -------------------------------------------------------
 -------------------------------------------------------
 OpenMP BLAS3 based DFT computing Module                
 Release: version 1.0, May 2013, Q-Chem Inc. Pittsburgh 
 -------------------------------------------------------
 A restricted SCF calculation will be
 performed using DIIS
 SCF converges when DIIS error is below 1.0e-08
 ---------------------------------------
  Cycle       Energy         DIIS error
 ---------------------------------------
    1   -3111.1403582296      2.35e-02  
    2   -3084.1764448795      1.57e-03  
    3   -3084.4011512071      1.33e-03  
    4   -3084.7600729191      4.34e-04  
    5   -3084.8004081512      1.45e-04  
    6   -3084.8051868787      3.61e-05  
    7   -3084.8054623718      1.18e-05  
    8   -3084.8054939189      3.52e-06  
    9   -3084.8054969769      1.12e-06  
   10   -3084.8054972515      3.74e-07  
   11   -3084.8054972495      1.36e-07  
   12   -3084.8054971287      4.98e-08  
   13   -3084.8054972668      1.95e-08  
   14   -3084.8054973083      1.00e-08  
   15   -3084.8054973194      5.56e-09  Convergence criterion met
 ---------------------------------------
 SCF time:   CPU 26115.11s  wall 3613.00s 

************** Final PCM Free Energy Summary **************
 G_electrostatic  =      -0.03424069 hartree =     -21.48635434 kcal/mol
 G_cavitation     =       0.00000000 hartree =       0.00000000 kcal/mol
 G_dispersion     =       0.00000000 hartree =       0.00000000 kcal/mol
 G_repulsion      =       0.00000000 hartree =       0.00000000 kcal/mol
 --------------------------------------------------
 Non-electrostatic Free Energy =       0.00000000 hartree =       0.00000000 kcal/mol
 Total                         =      -0.03424069 hartree =     -21.48635434 kcal/mol
 --------------------------------------------------
 SCF Energy (H0 + V/2)                       =   -3084.80549732 
 Solute Internal Energy (H0)                 =   -3084.77125663 
 Total Free Energy (H0 + V/2 + non-elec)     =   -3084.80549732 hartree
                                             = -1935744.66576080 kcal/mol
***********************************************************

 SCF   energy in the final basis set =    -3084.8054973194
 Total energy in the final basis set =    -3084.8054973194
 
 Direct TDDFT/TDA calculation will be performed
 Exchange:     0.4200 Hartree-Fock + 0.5800 PBEh-3c
 Correlation:  1.0000 PBEh-3c
 Using SG-1 standard quadrature grid
 Dispersion:   Grimme D3
 Singlet excitation energies requested
 Adding PCM contribution to the XC response
 CIS energy converged when residual is below 10e- 6
 ---------------------------------------------------
 Iter    Rts Conv    Rts Left    Ttl Dev     Max Dev
 ---------------------------------------------------
   1         0           2      0.000044    0.000024
   2         0           2      0.000031    0.000018
   3         0           2      0.000010    0.000006
   4         0           2      0.000005    0.000003
   5         2           0      0.000002    0.000001    Roots Converged
 ---------------------------------------------------
 
 ---------------------------------------------------
         TDDFT/TDA Excitation Energies              
 ---------------------------------------------------

 Excited state   1: excitation energy (eV) =    2.1731
 Total energy for state  1:                 -3084.72563649 au
    Multiplicity: Singlet
    Trans. Mom.: -0.1490 X   0.0402 Y  -0.2668 Z
    Strength   :     0.0050572170
    D(270) --> V(  1) amplitude =  0.9734

 Excited state   2: excitation energy (eV) =    2.5809
 Total energy for state  2:                 -3084.71064958 au
    Multiplicity: Singlet
    Trans. Mom.:  0.6248 X   0.0522 Y   0.2659 Z
    Strength   :     0.0293312482
    D(269) --> V(  1) amplitude =  0.9719
 
 ---------------------------------------------------
 Calculating Relaxed Density
 ---------------------------------------------------
 Iter    Rts Conv    Rts Left    Ttl Dev     Max Dev
 ---------------------------------------------------
   1         0           2      0.000195    0.000100
   2         0           2      0.000069    0.000035
   3         0           2      0.000027    0.000014
   4         0           2      0.000008    0.000004
   5         0           2      0.000003    0.000002
   6         2           0      0.000000    0.000000    Roots Converged
 ---------------------------------------------------
  SETman timing summary (seconds)
  CPU time             17237.59s
  System time              0.00s
  Wall time             5327.40s



*********SPIN-ORBIT COUPLING JOB BEGINS HERE*********
There is no spin-orbit coupling effect between singlet states.

=======================================================================================
    SPIN-ORBIT COUPLING BETWEEN THE SINGLET GROUND STATE AND EXCITED TRIPLET STATE
=======================================================================================

SOC between the singlet ground state and excited triplet states (ms=0):
T1(ms=0)      0.000000  +  -1.694695i    cm-1
T2(ms=0)      0.000000  +  -1.526481i    cm-1
SOC between the singlet ground state and excited triplet states (ms=1):
T1(ms=1)      0.581905  + (-2.474697i)    cm-1
T2(ms=1)      0.060894  + (-1.792005i)    cm-1
SOC between the singlet ground state and excited triplet states (ms=-1):
T1(ms=-1)     0.581905  - (-2.474697i)    cm-1
T2(ms=-1)     0.060894  - (-1.792005i)    cm-1
Total SOC between the singlet ground state and excited triplet states:
T1      3.974603    cm-1
T2      2.959750    cm-1




=======================================================================================
                     SPIN-ORBIT COUPLING BETWEEN EXCITED TRIPLET STATES
=======================================================================================

SOC between the T1 (ms=0) state and excited triplet states (ms=1):
T2(ms=1)      -0.020441  + (-0.018845i)    cm-1
SOC between the T1 (ms=0) state and excited triplet states (ms=-1):
T2(ms=-1)     0.020441  + (-0.018845i)    cm-1
SOC between the T1 (ms=1) state and excited triplet states (ms=0):
T2(ms=0)      0.020441  + (-0.018845i)    cm-1
SOC between the T1 (ms=1) state and excited triplet states (ms=1):
T2(ms=1)      0.000000  + (-0.088219i)    cm-1
SOC between the T1 (ms=-1) state and excited triplet states (ms=0):
T2(ms=0)      -0.020441  + (-0.018845i)    cm-1
SOC between the T1 (ms=-1) state and excited triplet states (ms=-1):
T2(ms=-1)     0.000000  + (0.088219i)    cm-1
Total SOC between the T1 state and excited triplet states:
T2      0.136592    cm-1







=======================================================================================
         SPIN-ORBIT COUPLING BETWEEN EXCITED SINGLET STATES AND TRIPLET STATES
=======================================================================================

SOC between the S1 state and excited triplet states (ms=0):
T1(ms=0)      0.000000  +  -0.183833i    cm-1
T2(ms=0)      0.000000  +  0.007089i    cm-1
SOC between the S1 state and excited triplet states (ms=1):
T1(ms=1)      (0.086828)  + (-0.010509i)    cm-1
T2(ms=1)      (-0.001886)  + (-0.000929i)    cm-1
SOC between the S1 state and excited triplet states (ms=-1):
T1(ms=-1)    -(0.086828)  + (-0.010509i)    cm-1
T2(ms=-1)    -(-0.001886)  + (-0.000929i)    cm-1
Total SOC between the S1 state and excited triplet states:
T1      0.221570    cm-1
T2      0.007687    cm-1



SOC between the S2 state and excited triplet states (ms=0):
T1(ms=0)      0.000000  +  0.005667i    cm-1
T2(ms=0)      0.000000  +  -0.111492i    cm-1
SOC between the S2 state and excited triplet states (ms=1):
T1(ms=1)      (0.003500)  + (-0.004938i)    cm-1
T2(ms=1)      (0.106620)  + (-0.072402i)    cm-1
SOC between the S2 state and excited triplet states (ms=-1):
T1(ms=-1)    -(0.003500)  + (-0.004938i)    cm-1
T2(ms=-1)    -(0.106620)  + (-0.072402i)    cm-1
Total SOC between the S2 state and excited triplet states:
T1      0.010265    cm-1
T2      0.213659    cm-1






            *********SOC CODE ENDS HERE*********



 
 --------------------------------------------------------------
 
                    Orbital Energies (a.u.)
 --------------------------------------------------------------
 
 Alpha MOs
 -- Occupied --
-14.672 -14.671 -10.494 -10.493 -10.493 -10.493 -10.488 -10.485
-10.469 -10.468 -10.467 -10.467 -10.467 -10.467 -10.466 -10.466
-10.466 -10.466 -10.465 -10.465 -10.463 -10.463 -10.463 -10.463
-10.463 -10.463 -10.459 -10.459 -10.459 -10.459 -10.459 -10.458
-10.457 -10.456 -10.455 -10.455 -10.451 -10.451 -10.450 -10.450
-10.450 -10.450 -10.450 -10.450 -10.449 -10.449 -10.448 -10.448
-10.448 -10.448 -10.447 -10.447 -10.447 -10.446 -10.445 -10.445
-10.444 -10.443 -10.443 -10.441 -10.440 -10.440 -10.440 -10.440
-10.439 -10.438 -10.435 -10.435 -10.434 -10.434 -10.433 -10.432
-10.429 -10.422 -10.422 -10.421 -10.421 -10.420  -6.951  -6.947
 -1.088  -1.082  -1.019  -1.018  -0.966  -0.964  -0.963  -0.961
 -0.961  -0.960  -0.942  -0.941  -0.935  -0.934  -0.911  -0.902
 -0.891  -0.891  -0.870  -0.867  -0.858  -0.858  -0.853  -0.852
 -0.848  -0.848  -0.844  -0.842  -0.841  -0.837  -0.828  -0.823
 -0.822  -0.815  -0.814  -0.807  -0.804  -0.801  -0.793  -0.788
 -0.738  -0.733  -0.728  -0.722  -0.719  -0.716  -0.714  -0.713
 -0.702  -0.701  -0.700  -0.698  -0.690  -0.685  -0.684  -0.681
 -0.680  -0.676  -0.669  -0.669  -0.650  -0.648  -0.639  -0.637
 -0.634  -0.630  -0.608  -0.605  -0.598  -0.596  -0.592  -0.589
 -0.588  -0.586  -0.584  -0.577  -0.577  -0.563  -0.562  -0.558
 -0.555  -0.546  -0.545  -0.544  -0.542  -0.539  -0.528  -0.527
 -0.525  -0.522  -0.519  -0.515  -0.511  -0.510  -0.505  -0.503
 -0.503  -0.500  -0.499  -0.498  -0.498  -0.496  -0.495  -0.492
 -0.491  -0.490  -0.489  -0.488  -0.488  -0.486  -0.485  -0.485
 -0.482  -0.481  -0.479  -0.478  -0.477  -0.471  -0.467  -0.467
 -0.463  -0.457  -0.456  -0.453  -0.445  -0.442  -0.440  -0.437
 -0.436  -0.436  -0.434  -0.431  -0.430  -0.429  -0.428  -0.428
 -0.426  -0.422  -0.421  -0.418  -0.414  -0.411  -0.409  -0.408
 -0.405  -0.403  -0.401  -0.401  -0.400  -0.399  -0.398  -0.397
 -0.396  -0.395  -0.395  -0.393  -0.393  -0.389  -0.388  -0.386
 -0.382  -0.377  -0.371  -0.365  -0.360  -0.359  -0.356  -0.352
 -0.349  -0.339  -0.323  -0.318  -0.309  -0.303  -0.303  -0.302
 -0.299  -0.298  -0.297  -0.297  -0.288  -0.285  -0.284  -0.279
 -0.277  -0.264  -0.260  -0.258  -0.226  -0.217
 -- Virtual --
 -0.099  -0.063  -0.040  -0.034  -0.008  -0.000   0.001   0.003
  0.004   0.006   0.007   0.007   0.012   0.024   0.025   0.027
  0.031   0.040   0.052   0.057   0.067   0.080   0.085   0.089
  0.112   0.119   0.131   0.143   0.148   0.149   0.151   0.153
  0.154   0.159   0.160   0.162   0.163   0.164   0.167   0.168
  0.170   0.172   0.176   0.180   0.183   0.185   0.186   0.188
  0.191   0.193   0.196   0.198   0.200   0.202   0.202   0.204
  0.205   0.205   0.206   0.207   0.209   0.210   0.211   0.212
  0.213   0.213   0.214   0.215   0.217   0.218   0.219   0.220
  0.223   0.224   0.225   0.228   0.229   0.231   0.234   0.236
  0.236   0.238   0.239   0.240   0.241   0.241   0.243   0.243
  0.245   0.248   0.249   0.249   0.251   0.252   0.253   0.255
  0.257   0.258   0.262   0.268   0.269   0.270   0.271   0.274
  0.278   0.281   0.282   0.285   0.285   0.289   0.292   0.294
  0.295   0.298   0.299   0.302   0.302   0.307   0.310   0.310
  0.313   0.314   0.315   0.318   0.320   0.324   0.324   0.325
  0.330   0.330   0.332   0.335   0.335   0.336   0.338   0.344
  0.345   0.350   0.352   0.357   0.359   0.363   0.365   0.373
  0.376   0.381   0.385   0.390   0.394   0.397   0.402   0.405
  0.410   0.411   0.412   0.418   0.422   0.424   0.431   0.438
  0.440   0.443   0.446   0.448   0.453   0.455   0.456   0.460
  0.463   0.465   0.466   0.469   0.475   0.479   0.485   0.487
  0.490   0.492   0.495   0.496   0.500   0.503   0.506   0.509
  0.513   0.517   0.520   0.522   0.522   0.523   0.524   0.526
  0.529   0.530   0.531   0.534   0.535   0.537   0.539   0.541
  0.541   0.545   0.545   0.548   0.549   0.552   0.554   0.555
  0.556   0.558   0.558   0.561   0.562   0.563   0.566   0.568
  0.570   0.573   0.575   0.579   0.581   0.582   0.585   0.585
  0.587   0.588   0.588   0.591   0.592   0.593   0.593   0.594
  0.596   0.597   0.598   0.599   0.599   0.601   0.604   0.605
  0.609   0.609   0.611   0.612   0.614   0.615   0.616   0.616
  0.617   0.618   0.620   0.622   0.624   0.625   0.625   0.626
  0.627   0.627   0.628   0.629   0.629   0.632   0.637   0.640
  0.641   0.643   0.644   0.645   0.646   0.648   0.651   0.652
  0.652   0.656   0.657   0.658   0.659   0.660   0.662   0.662
  0.665   0.667   0.669   0.671   0.673   0.674   0.676   0.679
  0.680   0.686   0.687   0.690   0.692   0.694   0.695   0.698
  0.698   0.700   0.704   0.706   0.707   0.708   0.710   0.711
  0.713   0.715   0.717   0.719   0.722   0.727   0.730   0.732
  0.738   0.741   0.742   0.745   0.747   0.752   0.755   0.759
  0.760   0.762   0.764   0.767   0.773   0.774   0.775   0.776
  0.781   0.782   0.786   0.791   0.792   0.797   0.801   0.802
  0.806   0.810   0.814   0.815   0.819   0.822   0.829   0.833
  0.837   0.839   0.840   0.844   0.846   0.851   0.855   0.859
  0.862   0.869   0.871   0.877   0.889   0.892   0.897   0.899
  0.905   0.909   0.911   0.914   0.918   0.918   0.921   0.929
  0.930   0.933   0.936   0.942   0.944   0.946   0.947   0.949
  0.950   0.952   0.953   0.956   0.957   0.959   0.959   0.961
  0.962   0.963   0.965   0.969   0.971   0.973   0.973   0.976
  0.980   0.984   0.985   0.989   0.990   0.991   0.992   0.992
  0.994   0.997   1.002   1.003   1.005   1.007   1.008   1.009
  1.010   1.015   1.018   1.019   1.021   1.026   1.028   1.031
  1.031   1.035   1.039   1.040   1.041   1.044   1.044   1.046
  1.048   1.052   1.053   1.055   1.055   1.057   1.060   1.063
  1.067   1.068   1.071   1.071   1.073   1.076   1.077   1.078
  1.081   1.084   1.086   1.088   1.089   1.092   1.093   1.097
  1.098   1.100   1.104   1.106   1.109   1.112   1.117   1.119
  1.123   1.128   1.130   1.133   1.137   1.144   1.145   1.149
  1.150   1.152   1.153   1.154   1.157   1.160   1.163   1.165
  1.166   1.172   1.176   1.179   1.180   1.186   1.189   1.191
  1.193   1.198   1.200   1.202   1.204   1.210   1.212   1.218
  1.221   1.227   1.229   1.231   1.235   1.244   1.248   1.253
  1.254   1.256   1.261   1.264   1.267   1.270   1.276   1.277
  1.281   1.282   1.286   1.290   1.295   1.296   1.298   1.298
  1.303   1.307   1.309   1.311   1.312   1.315   1.318   1.320
  1.322   1.324   1.329   1.332   1.337   1.337   1.341   1.344
  1.350   1.352   1.355   1.360   1.361   1.367   1.369   1.371
  1.373   1.375   1.381   1.383   1.389   1.394   1.399   1.404
  1.406   1.409   1.417   1.417   1.423   1.428   1.437   1.438
  1.438   1.442   1.444   1.449   1.455   1.460   1.468   1.474
  1.477   1.480   1.482   1.487   1.489   1.504   1.507   1.509
  1.510   1.511   1.511   1.513   1.516   1.516   1.517   1.525
  1.529   1.530   1.530   1.532   1.535   1.538   1.540   1.541
  1.544   1.546   1.548   1.551   1.554   1.555   1.555   1.559
  1.560   1.561   1.564   1.569   1.570   1.571   1.574   1.577
  1.579   1.583   1.588   1.594   1.596   1.598   1.599   1.602
  1.611   1.611   1.616   1.623   1.627   1.634   1.638   1.639
  1.656   1.658   1.666   1.674   1.687   1.699   1.713   1.720
  1.732   1.737   1.741   1.746   1.750   1.753   1.760   1.762
  1.766   1.771   1.775   1.783   1.785   1.787   1.792   1.797
  1.800   1.805   1.806   1.806   1.808   1.810   1.815   1.816
  1.817   1.819   1.823   1.828   1.833   1.847   1.852   1.857
  1.860   1.867   1.868   1.878   1.881   1.884   1.892   1.894
  1.896   1.899   1.900   1.902   1.904   1.916   1.917   1.919
  1.925   1.927   1.929   1.934   1.938   1.940   1.940   1.945
  1.948   1.969   1.971   1.977   1.979   1.980   1.983   1.984
  1.987   1.991   1.999   2.005   2.010   2.013   2.021   2.022
  2.025   2.026   2.031   2.032   2.033   2.035   2.038   2.044
  2.053   2.060   2.062   2.067   2.069   2.069   2.070   2.070
  2.073   2.073   2.079   2.081   2.090   2.095   2.101   2.103
  2.108   2.108   2.118   2.128   2.131   2.138   2.139   2.142
  2.145   2.148   2.148   2.153   2.157   2.157   2.160   2.161
  2.162   2.168   2.176   2.178   2.190   2.191   2.192   2.196
  2.198   2.200   2.200   2.201   2.203   2.207   2.208   2.210
  2.216   2.221   2.224   2.228   2.228   2.229   2.233   2.239
  2.243   2.245   2.248   2.251   2.256   2.257   2.264   2.265
  2.268   2.270   2.273   2.277   2.282   2.285   2.286   2.292
  2.300   2.307   2.308   2.314   2.318   2.319   2.319   2.320
  2.328   2.332   2.336   2.340   2.342   2.342   2.347   2.347
  2.351   2.354   2.355   2.357   2.360   2.363   2.365   2.368
  2.371   2.374   2.377   2.383   2.384   2.385   2.387   2.389
  2.392   2.393   2.398   2.400   2.403   2.405   2.407   2.412
  2.414   2.417   2.420   2.431   2.432   2.435   2.442   2.450
  2.455   2.460   2.468   2.468   2.475   2.475   2.481   2.483
  2.489   2.494   2.496   2.497   2.500   2.509   2.512   2.519
  2.523   2.526   2.535   2.555   2.561   2.567   2.572   2.590
  2.598   2.603   2.617   2.618   2.625   2.630   2.640   2.641
  2.642   2.642   2.653   2.656   2.659   2.667   2.674   2.678
  2.679   2.682   2.685   2.687   2.690   2.692   2.706   2.709
  2.722   2.724   2.727   2.732   2.733   2.734   2.735   2.736
  2.737   2.748   2.750   2.751   2.757   2.760   2.764   2.770
  2.773   2.777   2.782   2.783   2.784   2.787   2.787   2.787
  2.788   2.791   2.801   2.803   2.806   2.808   2.809   2.810
  2.812   2.818   2.820   2.823   2.829   2.831   2.839   2.843
  2.850   2.857   2.860   2.861   2.866   2.873   2.883   2.896
  2.900   2.900   2.906   2.908   2.921   2.921   2.930   2.942
  2.942   2.948   2.951   2.975   2.982   2.998   2.999   3.007
  3.010   3.012   3.026   3.028   3.045   3.054   3.069   3.077
  3.078   3.102   3.125   3.143   3.153   3.235   3.253   3.255
  3.299   3.308   3.330   3.359   3.398   3.437   3.445   3.478
  3.483   3.485   3.488   3.490   3.511   3.514   3.537   3.546
  3.660   3.671   9.592   9.746  13.140  13.175  13.246  13.247
 13.270  13.285  13.440  13.495  13.509  13.518  13.524  13.547
 13.666  13.668  13.674  13.677  13.683  13.688  13.699  13.709
 13.717  13.721  13.730  13.765  13.770  13.792  13.799  13.802
 13.859  13.868  13.889  13.919  13.921  13.996  14.001  14.028
 14.029  14.032  14.036  14.043  14.050  14.054  14.145  14.150
 14.152  14.156  14.157  14.159  14.159  14.176  14.179  14.180
 14.183  14.198  14.218  14.233  14.254  14.265  14.273  14.287
 14.310  14.313  14.334  14.340  14.507  14.511  14.554  14.561
 14.576  14.577  14.577  14.578  14.582  14.583  14.587  14.606
 19.674  19.687
 --------------------------------------------------------------
 
          Ground-State Mulliken Net Atomic Charges

     Atom                 Charge (a.u.)
  ----------------------------------------
      1 C                    -0.148376
      2 C                    -0.398301
      3 H                     0.247287
      4 C                     0.103552
      5 C                     0.075594
      6 C                    -0.390566
      7 H                     0.247991
      8 C                    -0.146303
      9 C                     0.180993
     10 C                    -0.388546
     11 H                     0.249712
     12 C                    -0.069159
     13 C                     0.222143
     14 C                     0.180980
     15 C                    -0.396965
     16 H                     0.250590
     17 C                    -0.231171
     18 H                     0.255472
     19 C                    -0.344064
     20 H                     0.252730
     21 C                    -0.347466
     22 H                     0.253055
     23 C                    -0.229089
     24 H                     0.254382
     25 B                     0.629706
     26 C                    -0.149668
     27 C                    -0.398190
     28 H                     0.247984
     29 C                     0.077714
     30 C                     0.102182
     31 C                    -0.403101
     32 H                     0.248353
     33 C                    -0.149937
     34 C                     0.178057
     35 C                    -0.386752
     36 H                     0.249861
     37 C                    -0.067795
     38 C                     0.223945
     39 C                     0.179628
     40 C                    -0.395372
     41 H                     0.250065
     42 C                    -0.231267
     43 H                     0.255682
     44 C                    -0.344077
     45 H                     0.252795
     46 C                    -0.228940
     47 H                     0.255052
     48 C                    -0.348269
     49 H                     0.253299
     50 B                     0.644152
     51 C                    -0.210893
     52 C                     0.067279
     53 C                    -0.343556
     54 H                     0.241167
     55 C                     0.252741
     56 C                    -0.334353
     57 H                     0.244116
     58 C                     0.048100
     59 N                    -0.667726
     60 C                     0.321594
     61 C                    -0.318003
     62 H                     0.261189
     63 C                    -0.237058
     64 H                     0.244810
     65 C                    -0.271081
     66 H                     0.240927
     67 C                    -0.235870
     68 H                     0.243975
     69 C                    -0.306472
     70 H                     0.257441
     71 C                     0.300162
     72 C                    -0.289277
     73 H                     0.261772
     74 C                    -0.241197
     75 H                     0.246543
     76 C                    -0.263272
     77 H                     0.243240
     78 C                    -0.240747
     79 H                     0.244746
     80 C                    -0.299910
     81 H                     0.259655
     82 C                    -0.546237
     83 H                     0.251548
     84 H                     0.243073
     85 C                    -0.554603
     86 H                     0.256140
     87 H                     0.244754
     88 C                    -0.658052
     89 H                     0.236874
     90 H                     0.228904
     91 H                     0.223257
     92 C                    -0.660362
     93 H                     0.242403
     94 H                     0.223098
     95 H                     0.227975
     96 C                    -0.248732
     97 C                     0.064668
     98 C                    -0.385704
     99 H                     0.252130
    100 C                     0.321482
    101 N                    -0.656457
    102 C                    -0.382865
    103 H                     0.250474
    104 C                     0.085426
    105 C                     0.268700
    106 C                    -0.279409
    107 H                     0.263297
    108 C                    -0.242335
    109 H                     0.247548
    110 C                    -0.260939
    111 H                     0.243482
    112 C                    -0.240781
    113 H                     0.247930
    114 C                    -0.288205
    115 H                     0.261489
    116 C                     0.261749
    117 C                    -0.283226
    118 H                     0.261501
    119 C                    -0.241954
    120 H                     0.248025
    121 C                    -0.259861
    122 H                     0.243825
    123 C                    -0.242362
    124 H                     0.248083
    125 C                    -0.276871
    126 H                     0.263038
    127 C                    -0.544013
    128 H                     0.247939
    129 H                     0.240600
    130 C                    -0.555359
    131 H                     0.258480
    132 H                     0.243264
    133 C                    -0.656377
    134 H                     0.235282
    135 H                     0.226858
    136 H                     0.222151
    137 C                    -0.656276
    138 H                     0.237604
    139 H                     0.225812
    140 H                     0.222491
  ----------------------------------------
  Sum of atomic charges =    -0.000000

 -----------------------------------------------------------------
                    Cartesian Multipole Moments
 -----------------------------------------------------------------
    Charge (ESU x 10^10)
                -0.0000
    Dipole Moment (Debye)
         X      -1.7951      Y       0.2003      Z      -0.8244
       Tot       1.9855
    Quadrupole Moments (Debye-Ang)
        XX    -410.8780     XY      -4.5020     YY    -460.4747
        XZ     -13.2299     YZ       2.2937     ZZ    -380.5725
    Octopole Moments (Debye-Ang^2)
       XXX      54.4251    XXY    -181.4391    XYY      -0.5236
       YYY    -722.6115    XXZ     445.4923    XYZ     -19.1368
       YYZ     579.6544    XZZ      79.0699    YZZ    -290.5426
       ZZZ    1494.4621
    Hexadecapole Moments (Debye-Ang^3)
      XXXX  -61880.0517   XXXY    1309.3683   XXYY  -11695.5524
      XYYY     645.5925   YYYY   -7899.3887   XXXZ   -9820.2797
      XXYZ     395.8436   XYYZ   -2552.5552   YYYZ     628.1172
      XXZZ  -17278.8935   XYZZ     452.3313   YYZZ  -10687.4796
      XZZZ   -9951.8922   YZZZ    1052.2247   ZZZZ  -45093.1262
 -----------------------------------------------------------------
 -----------------------------------------------------------------
               TDA Excited-State Multipoles, State  1
 -----------------------------------------------------------------
    Charge (ESU x 10^10)
                -0.0000
    Dipole Moment (Debye)
         X     -24.6528      Y       4.3790      Z     -12.4131
       Tot      27.9468
    Quadrupole Moments (Debye-Ang)
        XX    -300.3637     XY     -34.5283     YY    -443.0317
        XZ     115.5773     YZ     -13.0617     ZZ    -367.6379
    Octopole Moments (Debye-Ang^2)
       XXX   -1094.9078    XXY      26.1877    XYY    -174.5896
       YYY    -641.6364    XXZ    -276.6381    XYZ      80.4859
       YYZ     486.7687    XZZ    -593.3625    YZZ    -240.3590
       ZZZ    1291.0442
    Hexadecapole Moments (Debye-Ang^3)
      XXXX  -54388.3631   XXXY    -462.5094   XXYY  -10532.0021
      XYYY     -11.7319   YYYY   -7475.2820   XXXZ   -3688.1696
      XXYZ    -382.1452   XYYZ   -1846.3005   YYYZ     307.1090
      XXZZ  -13907.5063   XYZZ     112.6610   YYZZ  -10297.8414
      XZZZ   -5224.5439   YZZZ     894.6403   ZZZZ  -45704.3396
 -----------------------------------------------------------------
 -----------------------------------------------------------------
               TDA Excited-State Multipoles, State  2
 -----------------------------------------------------------------
    Charge (ESU x 10^10)
                -0.0000
    Dipole Moment (Debye)
         X      22.5775      Y       3.4852      Z      15.5400
       Tot      27.6294
    Quadrupole Moments (Debye-Ang)
        XX    -288.8530     XY      26.3739     YY    -455.1787
        XZ      68.6990     YZ       9.4398     ZZ    -412.6667
    Octopole Moments (Debye-Ang^2)
       XXX    1370.3571    XXY      48.9070    XYY     106.2468
       YYY    -703.6179    XXZ     931.3408    XYZ      23.8022
       YYZ     620.4790    XZZ     300.3439    YZZ    -271.7401
       ZZZ    2107.7065
    Hexadecapole Moments (Debye-Ang^3)
      XXXX  -52870.3076   XXXY    3602.8183   XXYY  -11083.5071
      XYYY     948.6303   YYYY   -7860.1264   XXXZ   -6820.6072
      XXYZ     826.0720   XYYZ   -2421.8555   YYYZ     708.4421
      XXZZ  -16744.2371   XYZZ     636.2582   YYZZ  -10721.2756
      XZZZ   -7326.3705   YZZZ    1129.8935   ZZZZ  -47498.9685
 -----------------------------------------------------------------
Archival summary:
1\1\ctcp002\SP\ProcedureUnspecified\BasisUnspecified\276260\mewes\SunNov415:42:342018SunNov415:42:342018\0\\#,ProcedureUnspecified,BasisUnspecified,\\0,1\C\C,1,1.41303\H,2,1.08499,1,119.306\C,2,1.37422,1,120.973,3,179.437,0\C,4,1.42612,2,119.463,1,-0.381028,0\C,5,1.36971,4,120.643,2,-0.585975,0\H,6,1.08615,5,119.298,4,-178.846,0\C,6,1.40976,5,120.727,4,0.744509,0\C,5,1.45806,4,108.433,2,-179.383,0\C,9,1.37372,5,135.065,4,179.844,0\H,10,1.08351,9,121.813,5,0.524709,0\C,9,1.40851,5,106.217,4,0.228246,0\C,12,1.39345,9,123.775,5,179.483,0\C,12,1.41139,9,111.427,5,-0.157123,0\C,14,1.37308,12,117.82,9,179.682,0\H,15,1.0831,14,121.789,12,179.997,0\C,10,1.41392,9,118.629,5,-179.491,0\H,17,1.08298,10,118.597,9,-179.962,0\C,17,1.37666,10,122.374,9,0.045555,0\H,19,1.0834,17,119.932,10,179.907,0\C,13,1.41556,12,116.043,9,-179.647,0\H,21,1.08334,13,120.132,12,179.981,0\C,21,1.37667,13,119.772,12,0.035044,0\H,23,1.08265,21,118.834,13,179.992,0\B,8,1.52919,6,120.789,5,-177.806,0\C,25,1.52882,8,120.078,6,-177.705,0\C,26,1.40992,25,120.997,8,178.502,0\H,27,1.08641,26,119.718,25,-0.575177,0\C,27,1.37086,26,120.716,25,179.412,0\C,29,1.42722,27,120.675,26,-0.605335,0\C,30,1.37583,29,119.476,27,-0.34984,0\H,31,1.0857,30,119.991,29,-179.002,0\C,31,1.4125,30,120.908,29,0.643615,0\C,29,1.45728,27,130.886,26,179.613,0\C,34,1.37332,29,134.896,27,-0.225677,0\H,35,1.08347,34,121.799,29,-0.003332,0\C,34,1.40831,29,106.269,27,179.821,0\C,37,1.39226,34,123.807,29,179.99,0\C,37,1.4115,34,111.313,29,-0.006152,0\C,39,1.37241,37,117.874,34,-179.998,0\H,40,1.08282,39,121.79,37,-179.978,0\C,35,1.41335,34,118.501,29,-179.968,0\H,42,1.08294,35,118.603,34,179.988,0\C,42,1.37711,35,122.387,34,0.004006,0\H,44,1.08333,42,119.866,35,179.98,0\C,40,1.41552,39,118.597,37,0.001788,0\H,46,1.08257,40,118.274,39,-179.986,0\C,46,1.3768,40,122.902,39,-0.0063,0\H,48,1.08319,46,120.048,40,-179.985,0\B,33,1.53697,31,120.741,30,-177.913,0\C,50,1.57889,33,121.747,31,6.70032,0\C,51,1.40324,50,121.671,33,-107.154,0\C,52,1.39037,51,120.335,50,-173.325,0\H,53,1.08468,52,120.063,51,179.069,0\C,53,1.38698,52,120.552,51,0.587911,0\C,55,1.38652,53,119.486,52,-2.19367,0\H,56,1.08502,55,119.48,53,-179.857,0\C,56,1.38998,55,120.738,53,1.6667,0\N,55,1.41751,53,119.892,52,174.579,0\C,59,1.39786,55,119.279,53,130.205,0\C,60,1.39707,59,121.742,55,141.828,0\H,61,1.08197,60,120.148,59,0.020467,0\C,61,1.38595,60,120.407,59,-179.235,0\H,63,1.08278,61,119.025,60,179.809,0\C,63,1.38737,61,120.893,60,0.939213,0\H,65,1.08186,63,120.598,61,179.421,0\C,65,1.38886,63,118.821,61,-0.315989,0\H,67,1.0827,65,120.087,63,-179.987,0\C,67,1.38455,65,120.817,63,-0.561795,0\H,69,1.08254,67,119.737,65,-179.556,0\C,59,1.40435,55,117.076,53,-63.8253,0\C,71,1.39539,59,120.745,55,146.035,0\H,72,1.08261,71,119.756,59,0.446662,0\C,72,1.3854,71,120.319,59,-179.249,0\H,74,1.08259,72,119.255,71,179.9,0\C,74,1.38883,72,120.687,71,1.00381,0\H,76,1.08197,74,120.435,72,179.35,0\C,76,1.3876,74,119.095,72,-0.368462,0\H,78,1.08293,76,120.152,74,-179.854,0\C,78,1.38596,76,120.648,74,-0.508647,0\H,80,1.08277,78,119.714,76,-179.426,0\C,52,1.50729,51,120.62,50,8.38801,0\H,82,1.09258,52,110.05,51,-40.3295,0\H,82,1.09292,52,109.585,51,-156.866,0\C,58,1.51022,56,118.137,55,176.437,0\H,85,1.09154,58,110.341,56,146.507,0\H,85,1.09319,58,109.175,56,30.1401,0\C,82,1.52721,52,112.352,51,81.3179,0\H,88,1.0903,82,111.118,52,-60.9125,0\H,88,1.0909,82,110.983,52,179.344,0\H,88,1.09094,82,111.139,52,59.1768,0\C,85,1.52852,58,112.859,56,-91.2791,0\H,92,1.09003,85,111.303,58,-60.9695,0\H,92,1.09114,85,111.224,58,59.2596,0\H,92,1.09136,85,110.784,58,179.213,0\C,25,1.58674,8,118.488,6,7.73923,0\C,96,1.4185,25,118.655,8,90.1765,0\C,97,1.37463,96,120.463,25,-177.436,0\H,98,1.08324,97,119.687,96,-177.28,0\C,98,1.40705,97,120.584,96,-0.055236,0\N,100,1.37034,98,119.92,97,179.548,0\C,100,1.40814,98,119.451,97,-0.276782,0\H,102,1.0833,100,119.669,98,177.087,0\C,102,1.37627,100,120.287,98,0.574917,0\C,101,1.40929,100,121.307,98,149.867,0\C,105,1.39433,101,119.737,100,-44.548,0\H,106,1.08231,105,120.267,101,-0.346935,0\C,106,1.38367,105,119.336,101,-178.418,0\H,108,1.0814,106,119.504,105,179.215,0\C,108,1.3889,106,120.265,105,0.186085,0\H,110,1.08169,108,119.979,106,179.819,0\C,110,1.38997,108,120.084,106,0.14389,0\H,112,1.08151,110,120.176,108,-179.664,0\C,112,1.38259,110,120.312,108,-0.02778,0\H,114,1.08224,112,120.325,110,-179.375,0\C,101,1.41052,100,120.627,98,-28.5787,0\C,116,1.39383,101,119.503,100,134.051,0\H,117,1.08218,116,120.316,101,-1.33318,0\C,117,1.38295,116,119.353,101,-179.853,0\H,119,1.08152,117,119.52,116,179.045,0\C,119,1.38987,117,120.298,116,-0.416077,0\H,121,1.08171,119,119.964,117,-179.875,0\C,121,1.3889,119,120.07,117,-0.048294,0\H,123,1.08147,121,120.232,119,-179.126,0\C,123,1.38396,121,120.272,119,0.192228,0\H,125,1.08237,123,120.37,121,-178.5,0\C,104,1.50314,102,118.588,100,-179.93,0\H,127,1.0914,104,110.027,102,-150.191,0\H,127,1.09266,104,109.414,102,-33.3992,0\C,97,1.50545,96,121.571,25,0.622264,0\H,130,1.09023,97,110.362,96,23.4441,0\H,130,1.09322,97,109.317,96,140.251,0\C,127,1.52696,104,111.546,102,87.8606,0\H,133,1.08964,127,111.114,104,60.8368,0\H,133,1.08981,127,110.662,104,-179.534,0\H,133,1.09121,127,111.116,104,-59.5669,0\C,130,1.5276,97,111.559,96,-98.6073,0\H,137,1.08985,130,111.093,97,59.4839,0\H,137,1.09002,130,110.543,97,179.105,0\H,137,1.09143,130,111.307,97,-61.0265,0\\\@

 Total job time:  19893.29s(wall), 54326.30s(cpu) 
 Sun Nov  4 15:42:34 2018

        *************************************************************
        *                                                           *
        *  Thank you very much for using Q-Chem.  Have a nice day.  *
        *                                                           *
        *************************************************************


0 sent ACK to 0 
now end server 0 ... 
 
*************************************************************
Job 2 of 2 
*************************************************************
 
mFile = /cm/shared/apps/q-chem/intel/QCHEM_5.1.0_Trunk/bin/mpi/machines
Process 0 of 1 is on ctcp002 - thread support 0
initial socket setup ...start
initial socket setup ...done 
now start server 0 ... 
Q-Chem Developer Version!
                  Welcome to Q-Chem
     A Quantum Leap Into The Future Of Chemistry


 Q-Chem 5.1, Q-Chem, Inc., Pleasanton, CA (2018)

 Yihan Shao,  Zhengting Gan,  E. Epifanovsky,  A. T. B. Gilbert,  M. Wormit,  
 J. Kussmann,  A. W. Lange,  A. Behn,  Jia Deng,  Xintian Feng,  D. Ghosh,  
 M. Goldey,  P. R. Horn,  L. D. Jacobson,  I. Kaliman,  T. Kus,  A. Landau,  
 Jie Liu,  E. I. Proynov,  R. M. Richard,  R. P. Steele,  E. J. Sundstrom,  
 H. L. Woodcock III,  P. M. Zimmerman,  D. Zuev,  B. Albrecht,  E. Alguire,  
 S. A. Baeppler,  D. Barton,  Z. Benda,  Y. A. Bernard,  E. J. Berquist,  
 K. B. Bravaya,  H. Burton,  D. Casanova,  Chun-Min Chang,  Yunqing Chen,  
 A. Chien,  K. D. Closser,  M. P. Coons,  S. Coriani,  S. Dasgupta,  
 A. L. Dempwolff,  M. Diedenhofen,  Hainam Do,  R. G. Edgar,  Po-Tung Fang,  
 S. Faraji,  S. Fatehi,  Qingguo Feng,  K. D. Fenk,  J. Fosso-Tande,  
 Qinghui Ge,  A. Ghysels,  G. Gidofalvi,  J. Gomes,  J. Gonthier,  A. Gunina,  
 D. Hait,  M. W. D. Hanson-Heine,  P. H. P. Harbach,  A. W. Hauser,  
 J. E. Herr,  E. G. Hohenstein,  Z. C. Holden,  Kerwin Hui,  B. C. Huynh,  
 T.-C. Jagau,  Hyunjun Ji,  B. Kaduk,  K. Khistyaev,  Jaehoon Kim,  
 P. Klunzinger,  K. Koh,  D. Kosenkov,  L. Koulias,  T. Kowalczyk,  
 C. M. Krauter,  A. Kunitsa,  Ka Un Lao,  A. Laurent,  K. V. Lawler,  
 Joonho Lee,  D. Lefrancois,  S. Lehtola,  D. S. Levine,  Yi-Pei Li,  
 You-Sheng Lin,  Fenglai Liu,  E. Livshits,  A. Luenser,  P. Manohar,  
 E. Mansoor,  S. F. Manzer,  Shan-Ping Mao,  Yuezhi Mao,  N. Mardirossian,  
 A. V. Marenich,  T. Markovich,  L. A. Martinez-Martinez,  S. A. Maurer,  
 N. J. Mayhall,  S. C. McKenzie,  J.-M. Mewes,  A. F. Morrison,  
 J. W. Mullinax,  K. Nanda,  T. S. Nguyen-Beck,  R. Olivares-Amaya,  
 J. A. Parkhill,  T. M. Perrine,  F. Plasser,  P. Pokhilko,  S. Prager,  
 A. Prociuk,  E. Ramos,  D. R. Rehn,  F. Rob,  M. Schneider,  N. Sergueev,  
 S. M. Sharada,  S. Sharma,  D. W. Small,  T. Stauch,  T. Stein,  
 Yu-Chuan Su,  A. J. W. Thom,  A. Tkatchenko,  T. Tsuchimochi,  N. M. Tubman,  
 L. Vogt,  M. L. Vidal,  O. Vydrov,  M. A. Watson,  J. Wenzel,  
 M. de Wergifosse,  T. A. Wesolowski,  A. White,  J. Witte,  A. Yamada,  
 Jun Yang,  K. Yao,  S. Yeganeh,  S. R. Yost,  Zhi-Qiang You,  A. Zech,  
 Igor Ying Zhang,  Xing Zhang,  Yan Zhao,  Ying Zhu,  B. R. Brooks,  
 G. K. L. Chan,  C. J. Cramer,  M. S. Gordon,  W. J. Hehre,  A. Klamt,  
 M. W. Schmidt,  C. D. Sherrill,  D. G. Truhlar,  A. Aspuru-Guzik,  R. Baer,  
 A. T. Bell,  N. A. Besley,  Jeng-Da Chai,  A. E. DePrince, III,  
 R. A. DiStasio Jr.,  A. Dreuw,  B. D. Dunietz,  T. R. Furlani,  
 Chao-Ping Hsu,  Yousung Jung,  Jing Kong,  D. S. Lambrecht,  WanZhen Liang,  
 C. Ochsenfeld,  V. A. Rassolov,  L. V. Slipchenko,  J. E. Subotnik,  
 T. Van Voorhis,  J. M. Herbert,  A. I. Krylov,  P. M. W. Gill,  M. Head-Gordon

 Contributors to earlier versions of Q-Chem not listed above: 
 R. D. Adamson,  B. Austin,  J. Baker,  G. J. O. Beran,  K. Brandhorst,  
 S. T. Brown,  E. F. C. Byrd,  A. K. Chakraborty,  C.-L. Cheng,  
 Siu Hung Chien,  D. M. Chipman,  D. L. Crittenden,  H. Dachsel,  
 R. J. Doerksen,  A. D. Dutoi,  L. Fusti-Molnar,  W. A. Goddard III,  
 A. Golubeva-Zadorozhnaya,  S. R. Gwaltney,  G. Hawkins,  A. Heyden,  
 S. Hirata,  G. Kedziora,  F. J. Keil,  C. Kelley,  Jihan Kim,  R. A. King,  
 R. Z. Khaliullin,  P. P. Korambath,  W. Kurlancheek,  A. M. Lee,  M. S. Lee,  
 S. V. Levchenko,  Ching Yeh Lin,  D. Liotard,  R. C. Lochan,  I. Lotan,  
 P. E. Maslen,  N. Nair,  D. P. O'Neill,  D. Neuhauser,  E. Neuscamman,  
 C. M. Oana,  R. Olson,  B. Peters,  R. Peverati,  P. A. Pieniazek,  
 Y. M. Rhee,  J. Ritchie,  M. A. Rohrdanz,  E. Rosta,  N. J. Russ,  
 H. F. Schaefer III,  N. E. Schultz,  N. Shenvi,  A. C. Simmonett,  A. Sodt,  
 D. Stuck,  K. S. Thanthiriwatte,  V. Vanovschi,  Tao Wang,  A. Warshel,  
 C. F. Williams,  Q. Wu,  X. Xu,  W. Zhang

 Please cite Q-Chem as follows:
 Y. Shao et al., Mol. Phys. 113, 184-215 (2015)
 DOI: 10.1080/00268976.2014.952696

 Q-Chem 5.1.1 for Intel X86 EM64T Linux

 Parts of Q-Chem use Armadillo 8.300.2 (Tropical Shenanigans).
 http://arma.sourceforge.net/

 Q-Chem begins on Sun Nov  4 15:42:37 2018  

Host: ctcp002
0

     Scratch files written to /scratch/mewes/139529/qchem23678//
 Parallel job on  1  processors
The previous job contains 0 fragments, simply inherited here
Symmetry turned off for PCM/SM12/SMD calculation
Input Ideriv = 2
Curr. Ideriv = -1
Max.  Ideriv = 2
Input Ideriv = 1
Curr. Ideriv = 2
Max.  Ideriv = 1

Checking the input file for inconsistencies... 	...done.

--------------------------------------------------------------
User input:
--------------------------------------------------------------
$rem
threads 8
jobtype sp
method PBEh-3c
basis def2-mSVP
mem_static      1024
mem_total       14000
sym_ignore      true
cis_n_roots             6
cis_singlets            true
cis_triplets            true
rpa                     false
calc_soc                true
cis_moments             true
cis_relaxed_density     true
solvent_method          pcm
$end

$molecule
read
$end

$pcm
statespecific           Marcus 
$end

$solvent
dielectric      4.33 
dielectric_infi 1.83
$end

--------------------------------------------------------------
 Adding empirical dispersion correction 
 ----------------------------------------------------------------
 Doing -D3(BJ) with
 s6 =   1.00000
 s8 =   0.00000
 a1 =   0.48600
 a2 =   4.50000
 -D3 energy including 3body term =     -0.1353875932 hartrees
 ----------------------------------------------------------------
 Adding gCP correction 
 ----------------------------------------------------------------
 gCP energy =      0.1918151626 hartrees
 ----------------------------------------------------------------
             Standard Nuclear Orientation (Angstroms)
    I     Atom           X                Y                Z
 ----------------------------------------------------------------
    1      C       0.0000000000     0.0000000000     0.0000000000
    2      C       0.0000000000     0.0000000000     1.4130270000
    3      H       0.9461334079     0.0000000000     1.9440965572
    4      C      -1.1782061779     0.0115858722     2.1202528005
    5      C      -2.4184998878     0.0320400859     1.4166376749
    6      C      -2.4440768447     0.0522408677     0.0473154952
    7      H      -3.4006737400     0.0866588405    -0.4659592035
    8      C      -1.2461648450     0.0375066690    -0.6957891699
    9      C      -3.5017295840     0.0557373038     2.3923378496
   10      C      -4.8733643097     0.0835991485     2.3220897320
   11      H      -5.3967979154     0.0842837403     1.3734030725
   12      C      -2.8889115692     0.0543965392     3.6605440904
   13      C      -3.5943922720     0.0840411082     4.8618415166
   14      C      -1.4818613956     0.0277015919     3.5532441593
   15      C      -0.7504103736     0.0301006542     4.7152755018
   16      H       0.3324832529     0.0105185842     4.7078673018
   17      C      -5.6129826864     0.1116833603     3.5268066583
   18      H      -6.6943053019     0.1330062189     3.4708193091
   19      C      -5.0079179009     0.1129887574     4.7633694981
   20      H      -5.6134246998     0.1365400074     5.6614540791
   21      C      -2.8125123321     0.0855506456     6.0418658548
   22      H      -3.2929756430     0.1081321104     7.0125754613
   23      C      -1.4390380261     0.0593383627     5.9518726194
   24      H      -0.8558911871     0.0610304744     6.8640513787
   25      B      -1.2714900474     0.1102810659    -2.2230345531
   26      C       0.0342097286     0.0403074267    -3.0152102769
   27      C       0.0310270582     0.0740972364    -4.4247187253
   28      H      -0.9121358894     0.1415183478    -4.9596912483
   29      C       1.2060234366     0.0230563104    -5.1290126914
   30      C       2.4591662328    -0.0524805623    -4.4501260321
   31      C       2.4841431290    -0.0667596442    -3.0745998795
   32      H       3.4335048020    -0.1076855162    -2.5494400621
   33      C       1.2867621736    -0.0213167743    -2.3266837622
   34      C       1.4592536646     0.0351994727    -6.5640708762
   35      C       0.6708981440     0.0943809453    -7.6870199765
   36      H      -0.4094226392     0.1476374891    -7.6240002493
   37      C       2.8573679945    -0.0336351281    -6.7185868123
   38      C       3.5006437823    -0.0451594104    -7.9532780682
   39      C       3.5096272449    -0.0887406240    -5.4680477851
   40      C       4.8802299305    -0.1589118303    -5.4618045647
   41      H       5.4448916652    -0.2041877022    -4.5389816987
   42      C       1.2988149642     0.0840317413    -8.9531785171
   43      H       0.6787234568     0.1304469973    -9.8397939120
   44      C       2.6666785362     0.0169012216    -9.0976592901
   45      H       3.1048745908     0.0111859884   -10.0883919026
   46      C       5.5636251930    -0.1722347260    -6.7013593025
   47      H       6.6447093590    -0.2279300599    -6.6903356322
   48      C       4.9140819207    -0.1180153295    -7.9141012572
   49      H       5.4835148538    -0.1313003854    -8.8354392620
   50      B       1.3207948405     0.0106149476    -0.7904224161
   51      C       2.6757962670     0.1510093289     0.0077890551
   52      C       3.2353887728    -0.9303360256     0.7053824627
   53      C       4.3529573305    -0.7434511222     1.5111422594
   54      H       4.7728395790    -1.5793285540     2.0602753912
   55      C       4.9222906190     0.5140390508     1.6463784154
   56      C       4.3964386050     1.5813986009     0.9345830504
   57      H       4.8433656932     2.5646031060     1.0386566274
   58      C       3.2861877046     1.4112487914     0.1157897425
   59      N       5.9887013700     0.7122670973     2.5589648616
   60      C       7.1475967742     1.3626310585     2.1253614454
   61      C       7.8397089701     2.2564341400     2.9462831964
   62      H       7.4837391978     2.4622711805     3.9470739871
   63      C       8.9772344268     2.8980932412     2.4824194152
   64      H       9.4944581476     3.5887803734     3.1365234579
   65      C       9.4404816189     2.6829523102     1.1924944615
   66      H      10.3236497206     3.1934823194     0.8322367501
   67      C       8.7471002417     1.8046470020     0.3698593081
   68      H       9.0906332575     1.6214058333    -0.6404093197
   69      C       7.6198193747     1.1439945426     0.8278523720
   70      H       7.0969087685     0.4576915996     0.1740624288
   71      C       5.7090874303     0.5162957199     3.9211696041
   72      C       6.6783653387    -0.0016510992     4.7810227728
   73      H       7.6599644454    -0.2492013578     4.3973358574
   74      C       6.3880632609    -0.2059223661     6.1201759056
   75      H       7.1524670790    -0.6101517153     6.7715487207
   76      C       5.1257797177     0.0806853916     6.6235153280
   77      H       4.9003602971    -0.0902612985     7.6678409013
   78      C       4.1562719145     0.5835801685     5.7675952973
   79      H       3.1670300115     0.8152363417     6.1423929222
   80      C       4.4423446547     0.8083783155     4.4302370200
   81      H       3.6771499748     1.2099728224     3.7778595807
   82      C       2.6597007355    -2.3160973104     0.5634070544
   83      H       1.5683775716    -2.2680253087     0.5426821742
   84      H       2.9236392632    -2.9139674125     1.4393965232
   85      C       2.7124451814     2.6292535689    -0.5683420034
   86      H       2.3083854047     2.3602306176    -1.5460012252
   87      H       3.5153694086     3.3467588340    -0.7569126355
   88      C       3.1502168338    -3.0222766736    -0.6987685538
   89      H       2.8575376103    -2.4740016401    -1.5945900607
   90      H       2.7296025810    -4.0260644763    -0.7732812634
   91      H       4.2374706490    -3.1118554439    -0.7021470887
   92      C       1.6175798733     3.3106574883     0.2522335716
   93      H       0.7764632061     2.6392572154     0.4251529353
   94      H       1.9943452213     3.6307521274     1.2249527105
   95      H       1.2372992260     4.1925655530    -0.2661272993
   96      C      -2.6567944301     0.3897355912    -2.9445363866
   97      C      -3.0304643265     1.7335895730    -3.2025416139
   98      C      -4.2454007912     2.0209349639    -3.7778507891
   99      H      -4.4996058536     3.0480411562    -4.0098746115
  100      C      -5.1371543046     0.9880992459    -4.1211060815
  101      N      -6.3486887261     1.2905485000    -4.6854903007
  102      C      -4.7739425407    -0.3501457544    -3.8760783080
  103      H      -5.4765000213    -1.1451503999    -4.0950082581
  104      C      -3.5618377846    -0.6450922728    -3.2947722662
  105      C      -6.9793700063     0.4063181077    -5.5835351192
  106      C      -6.2341802926    -0.2029354233    -6.5923299152
  107      H      -5.1766325672     0.0051541221    -6.6908048304
  108      C      -6.8681674894    -1.0439715311    -7.4896979949
  109      H      -6.2952320888    -1.5078739288    -8.2808723758
  110      C      -8.2339280969    -1.2749354322    -7.3876785816
  111      H      -8.7253718034    -1.9309779977    -8.0934782311
  112      C      -8.9716836745    -0.6587430289    -6.3836651302
  113      H     -10.0342709897    -0.8417789372    -6.2995179433
  114      C      -8.3525374522     0.1860592522    -5.4811501829
  115      H      -8.9248984756     0.6580269182    -4.6931854186
  116      C      -6.9855036380     2.5176136122    -4.4056093178
  117      C      -7.5291659402     3.2628399534    -5.4505191923
  118      H      -7.4449405420     2.9143000487    -6.4715653424
  119      C      -8.1501386828     4.4669559063    -5.1729483698
  120      H      -8.5592034570     5.0548484995    -5.9833381876
  121      C      -8.2386215266     4.9248406688    -3.8636564283
  122      H      -8.7273040439     5.8664818222    -3.6524794976
  123      C      -7.7034261143     4.1728921183    -2.8257770666
  124      H      -7.7832201277     4.5198354557    -1.8045813964
  125      C      -7.0765073618     2.9674305978    -3.0888097980
  126      H      -6.6802719185     2.3685367891    -2.2789637256
  127      C      -3.2123729077    -2.0867566492    -3.0520687867
  128      H      -2.5608765849    -2.1718126472    -2.1805918917
  129      H      -4.1212162240    -2.6463546894    -2.8180514666
  130      C      -2.1403696096     2.8862701505    -2.8211893476
  131      H      -1.1044299000     2.5557419821    -2.7425529603
  132      H      -2.1663508051     3.6403585223    -3.6122736788
  133      C      -2.5296097076    -2.7105036639    -4.2671316912
  134      H      -1.5991872249    -2.1945152522    -4.5024539703
  135      H      -2.2902018843    -3.7568672566    -4.0787070108
  136      H      -3.1740874432    -2.6652711789    -5.1465314394
  137      C      -2.5767744202     3.5197408956    -1.5014016233
  138      H      -2.5512206005     2.7926214074    -0.6899724677
  139      H      -1.9125021934     4.3413582664    -1.2333928078
  140      H      -3.5910495036     3.9171981774    -1.5685143909
 ----------------------------------------------------------------
 Nuclear Repulsion Energy = 12170.7994316490 hartrees
 There are      270 alpha and      270 beta electrons
 Requested basis set is def2-mSVP
 There are 680 shells and 1320 basis functions

 Total QAlloc Memory Limit  14000 MB
 Mega-Array Size      1001 MB
 MEM_STATIC part      1024 MB
 Discretize the solute cavity surface with Lebedev spheres
	Using 302 Lebedev grid points for each H atom
	Using 302 Lebedev grid points for other atoms
	Atomic van der Waals radii will be scaled by 1.20
 Remove points where switching function is < 1.0e-08
 Keep 14663 surface tesserae and discard 27617 interior tesserae
 Molecular Surface Area = 1076.703 Angst**2
 A cutoff of  1.0D-11 yielded  63131 shell pairs
 There are    245123 function pairs (    269514 Cartesian)
 
 -------------------------------------------------------
 OpenMP Integral Computing Module                       
 Release: version 1.0, May 2013, Q-Chem Inc. Pittsburgh 
 -------------------------------------------------------
 Integral Job Info:
 Integral job number is                      11
 Integral operator is                         1
 short-range coefficients                     0
 long-range coefficients              100000000
 Omega coefficients                           0
 if combine SR and LR in K                    0
 Integral screening is                        0
 Integral computing path is                   2
 max size of driver memory is            800000
 size of driver memory is                593474
 size of scratch memory is              1809772
 max col of scratch BK array               1296
 max len of scratch array in speh3          155
 max len of scratch index in speh4           18
 max int batch size is                      520
 min int batch size is                       52
 fixed nKL is                                52
 max L of basis functions is                  2
 order of int derivative is                   0
 number of shells is                        680
 number of basis is                        1400
 number of cartesian basis is              1400
 number of contracted shell pairs         63131
 number of primitive shell pairs         130312
 maxK2 (contraction) of shell pair           25
 max number of K2 of shell pair               1
 max number of CS2 of shell pair          15620
 max number of PS2 of shell pair          22875
 mem total for path MDJ                 1134764
 -------------------------------------------------------
 Smallest overlap matrix eigenvalue = 1.95E-04

 Scale SEOQF with 1.000000e-02/1.000000e-02/1.000000e-02

 Standard Electronic Orientation quadrupole field applied
 Nucleus-field energy     =    -0.0000000552 hartrees
 Guess from superposition of atomic densities
 Warning:  Energy on first SCF cycle will be non-variational
 SAD guess density has 540.000001 electrons

 -----------------------------------------------------------------------
  General SCF calculation program by
  Eric Jon Sundstrom, Paul Horn, Yuezhi Mao, Dmitri Zuev, Alec White,
  David Stuck, Shaama M.S., Shane Yost, Joonho Lee, David Small,
  Daniel Levine, Susi Lehtola, Hugh Burton, Evgeny Epifanovsky
 -----------------------------------------------------------------------
 Exchange:     0.4200 Hartree-Fock + 0.5800 PBEh-3c
 Correlation:  1.0000 PBEh-3c
 Using SG-1 standard quadrature grid
 Dispersion:   Grimme D3
 using 8 threads for integral computing
 -------------------------------------------------------
 OpenMP Integral computing Module                
 Release: version 2.0, May 2017, Q-Chem Inc. Pleasanton 
 -------------------------------------------------------
 -------------------------------------------------------
 OpenMP BLAS3 based DFT computing Module                
 Release: version 1.0, May 2013, Q-Chem Inc. Pittsburgh 
 -------------------------------------------------------
 A restricted SCF calculation will be
 performed using DIIS
 SCF converges when DIIS error is below 1.0e-08
 ---------------------------------------
  Cycle       Energy         DIIS error
 ---------------------------------------
    1   -3111.1403582296      2.35e-02  
    2   -3084.1662807857      1.58e-03  
    3   -3084.3671761176      1.37e-03  
    4   -3084.7416093871      4.81e-04  
    5   -3084.7919501728      1.57e-04  
    6   -3084.7975741132      4.39e-05  
    7   -3084.7979778638      1.38e-05  
    8   -3084.7980201921      4.31e-06  
    9   -3084.7980246355      1.29e-06  
   10   -3084.7980251748      4.23e-07  
   11   -3084.7980252456      1.56e-07  
   12   -3084.7980252404      6.88e-08  
   13   -3084.7980251621      2.60e-08  
   14   -3084.7980252131      1.14e-08  
   15   -3084.7980252285      6.34e-09  Convergence criterion met
 ---------------------------------------
 SCF time:   CPU 25506.07s  wall 3531.00s 

************** Final PCM Free Energy Summary **************
 G_electrostatic  =      -0.02781377 hartree =     -17.45340319 kcal/mol
 G_cavitation     =       0.00000000 hartree =       0.00000000 kcal/mol
 G_dispersion     =       0.00000000 hartree =       0.00000000 kcal/mol
 G_repulsion      =       0.00000000 hartree =       0.00000000 kcal/mol
 --------------------------------------------------
 Non-electrostatic Free Energy =       0.00000000 hartree =       0.00000000 kcal/mol
 Total                         =      -0.02781377 hartree =     -17.45340319 kcal/mol
 --------------------------------------------------
 SCF Energy (H0 + V/2)                       =   -3084.79802523 
 Solute Internal Energy (H0)                 =   -3084.77021146 
 Total Free Energy (H0 + V/2 + non-elec)     =   -3084.79802523 hartree
                                             = -1935739.97695298 kcal/mol
***********************************************************

 SCF   energy in the final basis set =    -3084.7980252285
 Total energy in the final basis set =    -3084.7980252285
 
 Direct TDDFT/TDA calculation will be performed
 Exchange:     0.4200 Hartree-Fock + 0.5800 PBEh-3c
 Correlation:  1.0000 PBEh-3c
 Using SG-1 standard quadrature grid
 Dispersion:   Grimme D3
 Triplet excitation energies requested
 Singlet excitation energies requested
 Adding PCM contribution to the XC response
 CIS energy converged when residual is below 10e- 6
 ---------------------------------------------------
 Iter    Rts Conv    Rts Left    Ttl Dev     Max Dev
 ---------------------------------------------------
   1         0           6      0.000179    0.000044
   2         0           6      0.000079    0.000022
   3         0           6      0.000041    0.000013
   4         1           5      0.000067    0.000042
   5         2           4      0.000061    0.000030
   6         3           3      0.000030    0.000015
   7         3           3      0.000017    0.000009
   8         4           2      0.000007    0.000003
   9         5           1      0.000003    0.000001
  10         6           0      0.000003    0.000001    Roots Converged
 ---------------------------------------------------
 Triplets done: starting singlet calculation
 ---------------------------------------------------
 Iter    Rts Conv    Rts Left    Ttl Dev     Max Dev
 ---------------------------------------------------
  11         0           6      0.000276    0.000119
  12         0           6      0.000126    0.000032
  13         0           6      0.000053    0.000016
  14         0           6      0.000020    0.000005
  15         3           3      0.000011    0.000003
  16         3           3      0.000009    0.000004
  17         4           2      0.000028    0.000024
  18         5           1      0.000017    0.000014
  19         5           1      0.000009    0.000007
  20         5           1      0.000006    0.000004
  21         5           1      0.000004    0.000002
  22         6           0      0.000003    0.000001    Roots Converged
 ---------------------------------------------------
 
 ---------------------------------------------------
         TDDFT/TDA Excitation Energies              
 ---------------------------------------------------

 Excited state   1: excitation energy (eV) =    1.7411
 Total energy for state  1:                 -3084.73404018 au
    Multiplicity: Triplet
    Trans. Mom.:  0.0000 X   0.0000 Y   0.0000 Z
    Strength   :     0.0000000000
    D(270) --> V(  1) amplitude =  0.9723

 Excited state   2: excitation energy (eV) =    1.7615
 Total energy for state  2:                 -3084.73328995 au
    Multiplicity: Singlet
    Trans. Mom.:  0.1976 X  -0.0431 Y   0.2400 Z
    Strength   :     0.0042507901
    D(270) --> V(  1) amplitude =  0.9769

 Excited state   3: excitation energy (eV) =    2.2399
 Total energy for state  3:                 -3084.71571073 au
    Multiplicity: Triplet
    Trans. Mom.:  0.0000 X   0.0000 Y   0.0000 Z
    Strength   :     0.0000000000
    D(267) --> V(  1) amplitude =  0.8898

 Excited state   4: excitation energy (eV) =    2.4287
 Total energy for state  4:                 -3084.70877375 au
    Multiplicity: Triplet
    Trans. Mom.:  0.0000 X   0.0000 Y   0.0000 Z
    Strength   :     0.0000000000
    D(265) --> V(  2) amplitude = -0.4564
    D(268) --> V(  1) amplitude =  0.7653

 Excited state   5: excitation energy (eV) =    2.4796
 Total energy for state  5:                 -3084.70690258 au
    Multiplicity: Triplet
    Trans. Mom.:  0.0000 X   0.0000 Y   0.0000 Z
    Strength   :     0.0000000000
    D(265) --> V(  1) amplitude = -0.7029
    D(268) --> V(  2) amplitude =  0.4980
    D(269) --> V(  1) amplitude =  0.2916

 Excited state   6: excitation energy (eV) =    2.5768
 Total energy for state  6:                 -3084.70332891 au
    Multiplicity: Triplet
    Trans. Mom.:  0.0000 X   0.0000 Y   0.0000 Z
    Strength   :     0.0000000000
    D(260) --> V(  1) amplitude =  0.2296
    D(269) --> V(  1) amplitude =  0.8899

 Excited state   7: excitation energy (eV) =    2.5986
 Total energy for state  7:                 -3084.70253016 au
    Multiplicity: Singlet
    Trans. Mom.:  0.5833 X   0.0515 Y   0.2361 Z
    Strength   :     0.0253777909
    D(269) --> V(  1) amplitude =  0.9727

 Excited state   8: excitation energy (eV) =    2.7503
 Total energy for state  8:                 -3084.69695357 au
    Multiplicity: Triplet
    Trans. Mom.:  0.0000 X   0.0000 Y   0.0000 Z
    Strength   :     0.0000000000
    D(259) --> V(  1) amplitude = -0.3628
    D(260) --> V(  1) amplitude =  0.5682
    D(267) --> V(  2) amplitude =  0.5334

 Excited state   9: excitation energy (eV) =    2.9063
 Total energy for state  9:                 -3084.69122124 au
    Multiplicity: Singlet
    Trans. Mom.: -0.1570 X  -0.0155 Y   0.2963 Z
    Strength   :     0.0080214134
    D(267) --> V(  1) amplitude =  0.9429

 Excited state  10: excitation energy (eV) =    2.9865
 Total energy for state 10:                 -3084.68827376 au
    Multiplicity: Singlet
    Trans. Mom.: -0.0780 X  -0.0038 Y  -0.2366 Z
    Strength   :     0.0045436676
    D(270) --> V(  2) amplitude =  0.9943

 Excited state  11: excitation energy (eV) =    3.1246
 Total energy for state 11:                 -3084.68319670 au
    Multiplicity: Singlet
    Trans. Mom.: -1.8542 X   0.0319 Y   3.3616 Z
[...]
    Charge (ESU x 10^10)
                -0.0000
    Dipole Moment (Debye)
         X     -25.1690      Y       4.4814      Z     -12.6725
       Tot      28.5334
    Quadrupole Moments (Debye-Ang)
        XX    -296.6894     XY     -35.5215     YY    -442.5862
        XZ     118.8963     YZ     -13.4652     ZZ    -366.8193
    Octopole Moments (Debye-Ang^2)
       XXX   -1133.7135    XXY      33.7676    XYY    -180.2268
       YYY    -638.8415    XXZ    -301.9416    XYZ      83.6977
       YYZ     484.2058    XZZ    -613.5263    YZZ    -239.1701
       ZZZ    1282.0259
    Hexadecapole Moments (Debye-Ang^3)
      XXXX  -54101.1754   XXXY    -530.5413   XXYY  -10487.9860
      XYYY     -36.8663   YYYY   -7462.4522   XXXZ   -3476.8635
      XXYZ    -409.2674   XYYZ   -1822.5627   YYYZ     295.2282
      XXZZ  -13772.5438   XYZZ     102.5898   YYZZ  -10285.8021
      XZZZ   -5079.1083   YZZZ     892.4087   ZZZZ  -45675.8719
 -----------------------------------------------------------------
 -----------------------------------------------------------------
               TDA Excited-State Multipoles, State  2
 -----------------------------------------------------------------
    Charge (ESU x 10^10)
                -0.0000
    Dipole Moment (Debye)
         X     -25.4163      Y       4.5310      Z     -12.7279
       Tot      28.7840
    Quadrupole Moments (Debye-Ang)
        XX    -295.2381     XY     -35.9368     YY    -442.3597
        XZ     120.3568     YZ     -13.6530     ZZ    -366.7742
    Octopole Moments (Debye-Ang^2)
       XXX   -1149.4250    XXY      36.8946    XYY    -182.6008
       YYY    -637.6351    XXZ    -311.0638    XYZ      85.0608
       YYZ     483.0822    XZZ    -622.7269    YZZ    -238.5819
       ZZZ    1281.7510
    Hexadecapole Moments (Debye-Ang^3)
      XXXX  -53989.7608   XXXY    -557.4420   XXYY  -10470.1182
      XYYY     -47.0031   YYYY   -7456.6903   XXXZ   -3392.0836
      XXYZ    -420.5337   XYYZ   -1812.5816   YYYZ     290.2796
      XXZZ  -13723.8339   XYZZ      98.1398   YYZZ  -10280.7230
      XZZZ   -5014.4805   YZZZ     891.0288   ZZZZ  -45689.4254
 -----------------------------------------------------------------
 -----------------------------------------------------------------
               TDA Excited-State Multipoles, State  3
 -----------------------------------------------------------------
    Charge (ESU x 10^10)
                -0.0000
    Dipole Moment (Debye)
         X      -3.3178      Y       0.4305      Z      -1.5189
       Tot       3.6743
    Quadrupole Moments (Debye-Ang)
        XX    -407.0182     XY      -5.0406     YY    -461.7733
        XZ     -12.5739     YZ       1.2025     ZZ    -373.6122
    Octopole Moments (Debye-Ang^2)
       XXX      17.9108    XXY    -175.2385    XYY       1.1285
       YYY    -723.5316    XXZ     440.6186    XYZ     -13.3070
       YYZ     581.1576    XZZ      69.6076    YZZ    -283.2251
       ZZZ    1450.1713
    Hexadecapole Moments (Debye-Ang^3)
      XXXX  -61660.0393   XXXY    1320.0676   XXYY  -11715.0520
      XYYY     664.4281   YYYY   -7926.3261   XXXZ   -9703.6260
      XXYZ     367.6075   XYYZ   -2557.8874   YYYZ     629.1752
      XXZZ  -17178.9499   XYZZ     417.5256   YYZZ  -10688.8938
      XZZZ   -9949.0151   YZZZ    1008.1732   ZZZZ  -44755.9032
 -----------------------------------------------------------------
 -----------------------------------------------------------------
               TDA Excited-State Multipoles, State  4
 -----------------------------------------------------------------
    Charge (ESU x 10^10)
                -0.0000
    Dipole Moment (Debye)
         X      -3.3524      Y       0.4616      Z      -0.9910
       Tot       3.5262
    Quadrupole Moments (Debye-Ang)
        XX    -401.5374     XY      -5.0836     YY    -461.4598
        XZ     -14.8735     YZ       1.2488     ZZ    -366.9879
    Octopole Moments (Debye-Ang^2)
       XXX      25.9909    XXY    -173.9815    XYY       0.9436
       YYY    -723.4239    XXZ     434.6623    XYZ     -12.7881
       YYZ     580.8805    XZZ      73.8924    YZZ    -283.0532
       ZZZ    1445.4576
    Hexadecapole Moments (Debye-Ang^3)
      XXXX  -61476.2715   XXXY    1328.5462   XXYY  -11704.0667
      XYYY     663.9343   YYYY   -7922.6756   XXXZ   -9805.7884
      XXYZ     371.7737   XYYZ   -2558.5655   YYYZ     628.7069
      XXZZ  -17018.9837   XYZZ     413.7487   YYZZ  -10678.2048
      XZZZ  -10133.3144   YZZZ    1012.5180   ZZZZ  -44309.7116
 -----------------------------------------------------------------
 -----------------------------------------------------------------
               TDA Excited-State Multipoles, State  5
 -----------------------------------------------------------------
    Charge (ESU x 10^10)
                -0.0000
    Dipole Moment (Debye)
         X      -1.3134      Y       0.6835      Z      -1.0286
       Tot       1.8028
    Quadrupole Moments (Debye-Ang)
        XX    -394.6832     XY      -2.9140     YY    -460.7020
        XZ      -7.5945     YZ       1.6826     ZZ    -368.3130
    Octopole Moments (Debye-Ang^2)
       XXX     115.4347    XXY    -158.2816    XYY       9.1755
       YYY    -722.0235    XXZ     465.4368    XYZ     -10.2496
       YYZ     582.5215    XZZ      99.4159    YZZ    -281.7139
       ZZZ    1432.5702
    Hexadecapole Moments (Debye-Ang^3)
      XXXX  -60910.0569   XXXY    1487.5475   XXYY  -11660.0639
      XYYY     685.4407   YYYY   -7914.7204   XXXZ   -9550.2102
      XXYZ     400.7035   XYYZ   -2548.3408   YYYZ     634.6702
      XXZZ  -17029.9575   XYZZ     429.8696   YYZZ  -10678.7946
      XZZZ   -9942.3747   YZZZ    1013.9610   ZZZZ  -44239.6065
 -----------------------------------------------------------------
 -----------------------------------------------------------------
               TDA Excited-State Multipoles, State  6
 -----------------------------------------------------------------
    Charge (ESU x 10^10)
                -0.0000
    Dipole Moment (Debye)
         X      16.3513      Y       3.1090      Z      11.7488
       Tot      20.3732
    Quadrupole Moments (Debye-Ang)
        XX    -307.1515     XY      20.8703     YY    -456.5570
        XZ      59.4171     YZ       7.0045     ZZ    -404.4602
    Octopole Moments (Debye-Ang^2)
       XXX    1113.3136    XXY      16.0728    XYY      91.7220
       YYY    -709.2493    XXZ     842.1404    XYZ      20.7337
       YYZ     613.6921    XZZ     241.1695    YZZ    -268.1666
       ZZZ    1989.4782
    Hexadecapole Moments (Debye-Ang^3)
      XXXX  -54253.6047   XXXY    3286.5269   XXYY  -11214.9885
      XYYY     929.6152   YYYY   -7889.3524   XXXZ   -7262.7425
      XXYZ     729.1975   XYYZ   -2455.9171   YYYZ     700.0373
      XXZZ  -16834.8900   XYZZ     570.7114   YYZZ  -10720.5954
      XZZZ   -7632.6153   YZZZ    1072.1671   ZZZZ  -46983.9510
 -----------------------------------------------------------------
 -----------------------------------------------------------------
               TDA Excited-State Multipoles, State  7
 -----------------------------------------------------------------
    Charge (ESU x 10^10)
                -0.0000
    Dipole Moment (Debye)
         X      19.7766      Y       3.5825      Z      14.0212
       Tot      24.5060
    Quadrupole Moments (Debye-Ang)
        XX    -289.4772     XY      25.6171     YY    -455.8313
        XZ      72.0312     YZ       8.0781     ZZ    -409.6637
    Octopole Moments (Debye-Ang^2)
       XXX    1308.6222    XXY      50.8976    XYY     108.3016
       YYY    -706.9110    XXZ     920.2278    XYZ      26.8410
       YYZ     619.8463    XZZ     273.4603    YZZ    -265.2453
       ZZZ    2074.8768
    Hexadecapole Moments (Debye-Ang^3)
      XXXX  -52911.1393   XXXY    3647.9631   XXYY  -11127.0541
      XYYY     978.8630   YYYY   -7886.2106   XXXZ   -6822.1187
      XXYZ     795.8258   XYYZ   -2438.9920   YYYZ     713.5322
      XXZZ  -16789.2442   XYZZ     599.5089   YYZZ  -10727.9430
      XZZZ   -7210.3974   YZZZ    1082.1233   ZZZZ  -47335.7288
 -----------------------------------------------------------------
 -----------------------------------------------------------------
               TDA Excited-State Multipoles, State  8
 -----------------------------------------------------------------
    Charge (ESU x 10^10)
                -0.0000
    Dipole Moment (Debye)
         X      -2.0435      Y       0.6943      Z      -0.5777
       Tot       2.2342
    Quadrupole Moments (Debye-Ang)
        XX    -399.9212     XY      -3.4493     YY    -460.2570
        XZ      -1.6543     YZ       1.3984     ZZ    -382.4825
    Octopole Moments (Debye-Ang^2)
       XXX      89.9205    XXY    -158.0375    XYY       5.4205
       YYY    -720.4305    XXZ     459.2577    XYZ      -9.6875
       YYZ     581.0150    XZZ      63.6902    YZZ    -281.9399
       ZZZ    1526.7397
    Hexadecapole Moments (Debye-Ang^3)
      XXXX  -61069.7681   XXXY    1448.5456   XXYY  -11653.2855
      XYYY     673.6856   YYYY   -7905.1138   XXXZ   -9351.4193
      XXYZ     383.7747   XYYZ   -2532.9682   YYYZ     628.5666
      XXZZ  -17173.9508   XYZZ     426.9070   YYZZ  -10685.5013
      XZZZ   -9575.6179   YZZZ    1013.5840   ZZZZ  -45384.8820
 -----------------------------------------------------------------
 -----------------------------------------------------------------
               TDA Excited-State Multipoles, State  9
 -----------------------------------------------------------------
    Charge (ESU x 10^10)
                -0.0000
    Dipole Moment (Debye)
         X      -3.4009      Y       0.3785      Z      -1.4902
       Tot       3.7323
    Quadrupole Moments (Debye-Ang)
        XX    -407.1369     XY      -4.9892     YY    -462.9463
        XZ     -18.7731     YZ       1.3311     ZZ    -365.9274
    Octopole Moments (Debye-Ang^2)
       XXX      18.4117    XXY    -178.7484    XYY       1.7297
       YYY    -725.1907    XXZ     442.2660    XYZ     -14.1989
       YYZ     583.0615    XZZ      85.8273    YZZ    -283.4157
       ZZZ    1414.6458
    Hexadecapole Moments (Debye-Ang^3)
      XXXX  -61735.1347   XXXY    1319.4809   XXYY  -11739.6844
      XYYY     670.4347   YYYY   -7944.0143   XXXZ   -9873.1957
      XXYZ     373.3933   XYYZ   -2572.7725   YYYZ     632.7847
      XXZZ  -17129.6863   XYZZ     416.7147   YYZZ  -10692.4557
      XZZZ  -10185.2762   YZZZ    1008.4198   ZZZZ  -44271.8926
 -----------------------------------------------------------------
 -----------------------------------------------------------------
               TDA Excited-State Multipoles, State 10
 -----------------------------------------------------------------
    Charge (ESU x 10^10)
                -0.0000
    Dipole Moment (Debye)
         X     -26.5321      Y       5.0989      Z     -13.3875
       Tot      30.1525
    Quadrupole Moments (Debye-Ang)
        XX    -289.4996     XY     -38.5078     YY    -436.8975
        XZ     159.5908     YZ     -15.3500     ZZ    -405.6423
    Octopole Moments (Debye-Ang^2)
       XXX   -1247.9987    XXY      72.8976    XYY    -200.8748
       YYY    -622.1770    XXZ    -374.9391    XYZ      97.3168
       YYZ     469.0578    XZZ    -757.2951    YZZ    -234.5584
       ZZZ    1454.8120
    Hexadecapole Moments (Debye-Ang^3)
      XXXX  -53035.2368   XXXY    -719.6930   XXYY  -10254.6372
      XYYY    -137.4825   YYYY   -7347.0251   XXXZ   -1983.6236
      XXYZ    -517.5341   XYYZ   -1675.9353   YYYZ     242.8145
      XXZZ  -13744.5369   XYZZ      79.3147   YYZZ  -10250.9301
      XZZZ   -3383.0584   YZZZ     882.0885   ZZZZ  -48317.1895
 -----------------------------------------------------------------
 -----------------------------------------------------------------
               TDA Excited-State Multipoles, State 11
 -----------------------------------------------------------------
    Charge (ESU x 10^10)
                -0.0000
    Dipole Moment (Debye)
         X      -4.3936      Y       0.5144      Z      -1.1451
       Tot       4.5694
    Quadrupole Moments (Debye-Ang)
        XX    -399.2959     XY      -5.9791     YY    -462.2594
        XZ     -20.5900     YZ       0.9157     ZZ    -355.8852
    Octopole Moments (Debye-Ang^2)
       XXX      -8.2341    XXY    -176.0279    XYY      -3.7535
       YYY    -723.4377    XXZ     420.5357    XYZ     -11.9220
       YYZ     580.0558    XZZ      75.2768    YZZ    -281.8531
       ZZZ    1397.2845
    Hexadecapole Moments (Debye-Ang^3)
      XXXX  -61480.5319   XXXY    1276.8801   XXYY  -11715.2809
      XYYY     654.3037   YYYY   -7933.4134   XXXZ   -9952.7861
      XXYZ     361.0355   XYYZ   -2560.9133   YYYZ     624.6340
      XXZZ  -16883.4858   XYZZ     402.6460   YYZZ  -10671.7477
      XZZZ  -10387.4535   YZZZ    1007.6743   ZZZZ  -43635.5009
 -----------------------------------------------------------------
 -----------------------------------------------------------------
               TDA Excited-State Multipoles, State 12
 -----------------------------------------------------------------
    Charge (ESU x 10^10)
                -0.0000
    Dipole Moment (Debye)
         X     -18.9502      Y       3.1810      Z      -9.6703
       Tot      21.5114
    Quadrupole Moments (Debye-Ang)
        XX    -357.2749     XY     -20.3930     YY    -444.7231
        XZ      75.3337     YZ      -7.4763     ZZ    -387.4437
    Octopole Moments (Debye-Ang^2)
       XXX    -544.9086    XXY     -94.0678    XYY    -112.5555
       YYY    -672.7293    XXZ      70.7828    XYZ      30.0465
       YYZ     506.5837    XZZ    -325.0565    YZZ    -260.2517
       ZZZ    1471.8536
    Hexadecapole Moments (Debye-Ang^3)
      XXXX  -58916.5913   XXXY     538.3684   XXYY  -11142.2493
      XYYY     318.5908   YYYY   -7611.2372   XXXZ   -6740.9859
      XXYZ      35.1503   XYYZ   -2140.0088   YYYZ     455.3727
      XXZZ  -16004.6758   XYZZ     277.3854   YYZZ  -10423.6140
      XZZZ   -7156.4695   YZZZ     943.7283   ZZZZ  -46868.6931
 -----------------------------------------------------------------
Archival summary:
1\1\ctcp002\SP\ProcedureUnspecified\BasisUnspecified\276260\mewes\MonNov503:03:552018MonNov503:03:552018\0\\#,ProcedureUnspecified,BasisUnspecified,\\0,1\C\C,1,1.41303\H,2,1.08499,1,119.306\C,2,1.37422,1,120.973,3,179.437,0\C,4,1.42612,2,119.463,1,-0.381028,0\C,5,1.36971,4,120.643,2,-0.585975,0\H,6,1.08615,5,119.298,4,-178.846,0\C,6,1.40976,5,120.727,4,0.744509,0\C,5,1.45806,4,108.433,2,-179.383,0\C,9,1.37372,5,135.065,4,179.844,0\H,10,1.08351,9,121.813,5,0.524709,0\C,9,1.40851,5,106.217,4,0.228246,0\C,12,1.39345,9,123.775,5,179.483,0\C,12,1.41139,9,111.427,5,-0.157123,0\C,14,1.37308,12,117.82,9,179.682,0\H,15,1.0831,14,121.789,12,179.997,0\C,10,1.41392,9,118.629,5,-179.491,0\H,17,1.08298,10,118.597,9,-179.962,0\C,17,1.37666,10,122.374,9,0.045555,0\H,19,1.0834,17,119.932,10,179.907,0\C,13,1.41556,12,116.043,9,-179.647,0\H,21,1.08334,13,120.132,12,179.981,0\C,21,1.37667,13,119.772,12,0.035044,0\H,23,1.08265,21,118.834,13,179.992,0\B,8,1.52919,6,120.789,5,-177.806,0\C,25,1.52882,8,120.078,6,-177.705,0\C,26,1.40992,25,120.997,8,178.502,0\H,27,1.08641,26,119.718,25,-0.575177,0\C,27,1.37086,26,120.716,25,179.412,0\C,29,1.42722,27,120.675,26,-0.605335,0\C,30,1.37583,29,119.476,27,-0.34984,0\H,31,1.0857,30,119.991,29,-179.002,0\C,31,1.4125,30,120.908,29,0.643615,0\C,29,1.45728,27,130.886,26,179.613,0\C,34,1.37332,29,134.896,27,-0.225677,0\H,35,1.08347,34,121.799,29,-0.003332,0\C,34,1.40831,29,106.269,27,179.821,0\C,37,1.39226,34,123.807,29,179.99,0\C,37,1.4115,34,111.313,29,-0.006152,0\C,39,1.37241,37,117.874,34,-179.998,0\H,40,1.08282,39,121.79,37,-179.978,0\C,35,1.41335,34,118.501,29,-179.968,0\H,42,1.08294,35,118.603,34,179.988,0\C,42,1.37711,35,122.387,34,0.004006,0\H,44,1.08333,42,119.866,35,179.98,0\C,40,1.41552,39,118.597,37,0.001788,0\H,46,1.08257,40,118.274,39,-179.986,0\C,46,1.3768,40,122.902,39,-0.0063,0\H,48,1.08319,46,120.048,40,-179.985,0\B,33,1.53697,31,120.741,30,-177.913,0\C,50,1.57889,33,121.747,31,6.70032,0\C,51,1.40324,50,121.671,33,-107.154,0\C,52,1.39037,51,120.335,50,-173.325,0\H,53,1.08468,52,120.063,51,179.069,0\C,53,1.38698,52,120.552,51,0.587911,0\C,55,1.38652,53,119.486,52,-2.19367,0\H,56,1.08502,55,119.48,53,-179.857,0\C,56,1.38998,55,120.738,53,1.6667,0\N,55,1.41751,53,119.892,52,174.579,0\C,59,1.39786,55,119.279,53,130.205,0\C,60,1.39707,59,121.742,55,141.828,0\H,61,1.08197,60,120.148,59,0.020467,0\C,61,1.38595,60,120.407,59,-179.235,0\H,63,1.08278,61,119.025,60,179.809,0\C,63,1.38737,61,120.893,60,0.939213,0\H,65,1.08186,63,120.598,61,179.421,0\C,65,1.38886,63,118.821,61,-0.315989,0\H,67,1.0827,65,120.087,63,-179.987,0\C,67,1.38455,65,120.817,63,-0.561795,0\H,69,1.08254,67,119.737,65,-179.556,0\C,59,1.40435,55,117.076,53,-63.8253,0\C,71,1.39539,59,120.745,55,146.035,0\H,72,1.08261,71,119.756,59,0.446662,0\C,72,1.3854,71,120.319,59,-179.249,0\H,74,1.08259,72,119.255,71,179.9,0\C,74,1.38883,72,120.687,71,1.00381,0\H,76,1.08197,74,120.435,72,179.35,0\C,76,1.3876,74,119.095,72,-0.368462,0\H,78,1.08293,76,120.152,74,-179.854,0\C,78,1.38596,76,120.648,74,-0.508647,0\H,80,1.08277,78,119.714,76,-179.426,0\C,52,1.50729,51,120.62,50,8.38801,0\H,82,1.09258,52,110.05,51,-40.3295,0\H,82,1.09292,52,109.585,51,-156.866,0\C,58,1.51022,56,118.137,55,176.437,0\H,85,1.09154,58,110.341,56,146.507,0\H,85,1.09319,58,109.175,56,30.1401,0\C,82,1.52721,52,112.352,51,81.3179,0\H,88,1.0903,82,111.118,52,-60.9125,0\H,88,1.0909,82,110.983,52,179.344,0\H,88,1.09094,82,111.139,52,59.1768,0\C,85,1.52852,58,112.859,56,-91.2791,0\H,92,1.09003,85,111.303,58,-60.9695,0\H,92,1.09114,85,111.224,58,59.2596,0\H,92,1.09136,85,110.784,58,179.213,0\C,25,1.58674,8,118.488,6,7.73923,0\C,96,1.4185,25,118.655,8,90.1765,0\C,97,1.37463,96,120.463,25,-177.436,0\H,98,1.08324,97,119.687,96,-177.28,0\C,98,1.40705,97,120.584,96,-0.055236,0\N,100,1.37034,98,119.92,97,179.548,0\C,100,1.40814,98,119.451,97,-0.276782,0\H,102,1.0833,100,119.669,98,177.087,0\C,102,1.37627,100,120.287,98,0.574917,0\C,101,1.40929,100,121.307,98,149.867,0\C,105,1.39433,101,119.737,100,-44.548,0\H,106,1.08231,105,120.267,101,-0.346935,0\C,106,1.38367,105,119.336,101,-178.418,0\H,108,1.0814,106,119.504,105,179.215,0\C,108,1.3889,106,120.265,105,0.186085,0\H,110,1.08169,108,119.979,106,179.819,0\C,110,1.38997,108,120.084,106,0.14389,0\H,112,1.08151,110,120.176,108,-179.664,0\C,112,1.38259,110,120.312,108,-0.02778,0\H,114,1.08224,112,120.325,110,-179.375,0\C,101,1.41052,100,120.627,98,-28.5787,0\C,116,1.39383,101,119.503,100,134.051,0\H,117,1.08218,116,120.316,101,-1.33318,0\C,117,1.38295,116,119.353,101,-179.853,0\H,119,1.08152,117,119.52,116,179.045,0\C,119,1.38987,117,120.298,116,-0.416077,0\H,121,1.08171,119,119.964,117,-179.875,0\C,121,1.3889,119,120.07,117,-0.048294,0\H,123,1.08147,121,120.232,119,-179.126,0\C,123,1.38396,121,120.272,119,0.192228,0\H,125,1.08237,123,120.37,121,-178.5,0\C,104,1.50314,102,118.588,100,-179.93,0\H,127,1.0914,104,110.027,102,-150.191,0\H,127,1.09266,104,109.414,102,-33.3992,0\C,97,1.50545,96,121.571,25,0.622264,0\H,130,1.09023,97,110.362,96,23.4441,0\H,130,1.09322,97,109.317,96,140.251,0\C,127,1.52696,104,111.546,102,87.8606,0\H,133,1.08964,127,111.114,104,60.8368,0\H,133,1.08981,127,110.662,104,-179.534,0\H,133,1.09121,127,111.116,104,-59.5669,0\C,130,1.5276,97,111.559,96,-98.6073,0\H,137,1.08985,130,111.093,97,59.4839,0\H,137,1.09002,130,110.543,97,179.105,0\H,137,1.09143,130,111.307,97,-61.0265,0\\\@

 Total job time:  40878.16s(wall), 113091.52s(cpu) 
 Mon Nov  5 03:03:55 2018

        *************************************************************
        *                                                           *
        *  Thank you very much for using Q-Chem.  Have a nice day.  *
        *                                                           *
        *************************************************************


0 sent ACK to 0 
now end server 0 ... 
