mFile = /cm/shared/apps/q-chem/intel/QCHEM_5.1.0_Trunk/bin/mpi/machines
Process 0 of 1 is on ctcp043 - thread support 0
initial socket setup ...start
initial socket setup ...done 
now start server 0 ... 
Q-Chem Developer Version!
                  Welcome to Q-Chem
     A Quantum Leap Into The Future Of Chemistry


 Q-Chem 5.1, Q-Chem, Inc., Pleasanton, CA (2018)

 Yihan Shao,  Zhengting Gan,  E. Epifanovsky,  A. T. B. Gilbert,  M. Wormit,  
 J. Kussmann,  A. W. Lange,  A. Behn,  Jia Deng,  Xintian Feng,  D. Ghosh,  
 M. Goldey,  P. R. Horn,  L. D. Jacobson,  I. Kaliman,  T. Kus,  A. Landau,  
 Jie Liu,  E. I. Proynov,  R. M. Richard,  R. P. Steele,  E. J. Sundstrom,  
 H. L. Woodcock III,  P. M. Zimmerman,  D. Zuev,  B. Albrecht,  E. Alguire,  
 S. A. Baeppler,  D. Barton,  Z. Benda,  Y. A. Bernard,  E. J. Berquist,  
 K. B. Bravaya,  H. Burton,  D. Casanova,  Chun-Min Chang,  Yunqing Chen,  
 A. Chien,  K. D. Closser,  M. P. Coons,  S. Coriani,  S. Dasgupta,  
 A. L. Dempwolff,  M. Diedenhofen,  Hainam Do,  R. G. Edgar,  Po-Tung Fang,  
 S. Faraji,  S. Fatehi,  Qingguo Feng,  K. D. Fenk,  J. Fosso-Tande,  
 Qinghui Ge,  A. Ghysels,  G. Gidofalvi,  J. Gomes,  J. Gonthier,  A. Gunina,  
 D. Hait,  M. W. D. Hanson-Heine,  P. H. P. Harbach,  A. W. Hauser,  
 J. E. Herr,  E. G. Hohenstein,  Z. C. Holden,  Kerwin Hui,  B. C. Huynh,  
 T.-C. Jagau,  Hyunjun Ji,  B. Kaduk,  K. Khistyaev,  Jaehoon Kim,  
 P. Klunzinger,  K. Koh,  D. Kosenkov,  L. Koulias,  T. Kowalczyk,  
 C. M. Krauter,  A. Kunitsa,  Ka Un Lao,  A. Laurent,  K. V. Lawler,  
 Joonho Lee,  D. Lefrancois,  S. Lehtola,  D. S. Levine,  Yi-Pei Li,  
 You-Sheng Lin,  Fenglai Liu,  E. Livshits,  A. Luenser,  P. Manohar,  
 E. Mansoor,  S. F. Manzer,  Shan-Ping Mao,  Yuezhi Mao,  N. Mardirossian,  
 A. V. Marenich,  T. Markovich,  L. A. Martinez-Martinez,  S. A. Maurer,  
 N. J. Mayhall,  S. C. McKenzie,  J.-M. Mewes,  A. F. Morrison,  
 J. W. Mullinax,  K. Nanda,  T. S. Nguyen-Beck,  R. Olivares-Amaya,  
 J. A. Parkhill,  T. M. Perrine,  F. Plasser,  P. Pokhilko,  S. Prager,  
 A. Prociuk,  E. Ramos,  D. R. Rehn,  F. Rob,  M. Schneider,  N. Sergueev,  
 S. M. Sharada,  S. Sharma,  D. W. Small,  T. Stauch,  T. Stein,  
 Yu-Chuan Su,  A. J. W. Thom,  A. Tkatchenko,  T. Tsuchimochi,  N. M. Tubman,  
 L. Vogt,  M. L. Vidal,  O. Vydrov,  M. A. Watson,  J. Wenzel,  
 M. de Wergifosse,  T. A. Wesolowski,  A. White,  J. Witte,  A. Yamada,  
 Jun Yang,  K. Yao,  S. Yeganeh,  S. R. Yost,  Zhi-Qiang You,  A. Zech,  
 Igor Ying Zhang,  Xing Zhang,  Yan Zhao,  Ying Zhu,  B. R. Brooks,  
 G. K. L. Chan,  C. J. Cramer,  M. S. Gordon,  W. J. Hehre,  A. Klamt,  
 M. W. Schmidt,  C. D. Sherrill,  D. G. Truhlar,  A. Aspuru-Guzik,  R. Baer,  
 A. T. Bell,  N. A. Besley,  Jeng-Da Chai,  A. E. DePrince, III,  
 R. A. DiStasio Jr.,  A. Dreuw,  B. D. Dunietz,  T. R. Furlani,  
 Chao-Ping Hsu,  Yousung Jung,  Jing Kong,  D. S. Lambrecht,  WanZhen Liang,  
 C. Ochsenfeld,  V. A. Rassolov,  L. V. Slipchenko,  J. E. Subotnik,  
 T. Van Voorhis,  J. M. Herbert,  A. I. Krylov,  P. M. W. Gill,  M. Head-Gordon

 Contributors to earlier versions of Q-Chem not listed above: 
 R. D. Adamson,  B. Austin,  J. Baker,  G. J. O. Beran,  K. Brandhorst,  
 S. T. Brown,  E. F. C. Byrd,  A. K. Chakraborty,  C.-L. Cheng,  
 Siu Hung Chien,  D. M. Chipman,  D. L. Crittenden,  H. Dachsel,  
 R. J. Doerksen,  A. D. Dutoi,  L. Fusti-Molnar,  W. A. Goddard III,  
 A. Golubeva-Zadorozhnaya,  S. R. Gwaltney,  G. Hawkins,  A. Heyden,  
 S. Hirata,  G. Kedziora,  F. J. Keil,  C. Kelley,  Jihan Kim,  R. A. King,  
 R. Z. Khaliullin,  P. P. Korambath,  W. Kurlancheek,  A. M. Lee,  M. S. Lee,  
 S. V. Levchenko,  Ching Yeh Lin,  D. Liotard,  R. C. Lochan,  I. Lotan,  
 P. E. Maslen,  N. Nair,  D. P. O'Neill,  D. Neuhauser,  E. Neuscamman,  
 C. M. Oana,  R. Olson,  B. Peters,  R. Peverati,  P. A. Pieniazek,  
 Y. M. Rhee,  J. Ritchie,  M. A. Rohrdanz,  E. Rosta,  N. J. Russ,  
 H. F. Schaefer III,  N. E. Schultz,  N. Shenvi,  A. C. Simmonett,  A. Sodt,  
 D. Stuck,  K. S. Thanthiriwatte,  V. Vanovschi,  Tao Wang,  A. Warshel,  
 C. F. Williams,  Q. Wu,  X. Xu,  W. Zhang

 Please cite Q-Chem as follows:
 Y. Shao et al., Mol. Phys. 113, 184-215 (2015)
 DOI: 10.1080/00268976.2014.952696

 Q-Chem 5.1.1 for Intel X86 EM64T Linux

 Parts of Q-Chem use Armadillo 8.300.2 (Tropical Shenanigans).
 http://arma.sourceforge.net/

 Q-Chem begins on Tue Nov 13 11:24:36 2018  

Host: ctcp043
0

     Scratch files written to /scratch/mewes1/140204/qchem27132//
 Parallel job on  1  processors
The previous job contains 0 fragments, simply inherited here
Symmetry turned off for PCM/SM12/SMD calculation
Input Ideriv = 2
Curr. Ideriv = -1
Max.  Ideriv = 2
Input Ideriv = 1
Curr. Ideriv = 2
Max.  Ideriv = 1

Checking the input file for inconsistencies... 	...done.

--------------------------------------------------------------
User input:
--------------------------------------------------------------
$solvent
dielectric      1.0001
dielectric_infi 1.00009
$end

$rem
threads 8
jobtype	sp
method PBEh-3c
basis def2-mSVP
mem_static	1024
mem_total	14000
sym_ignore	true
cis_n_roots             2
cis_singlets            false
cis_triplets		true 
rpa                     false
calc_soc 		true
cis_moments             true
cis_relaxed_density	true
solvent_method		pcm
$end

$pcm
StateSpecific   1
ChargeSeparation Excited
$end


$molecule
read ut1opt_vac.mol
$end


--------------------------------------------------------------
 Adding empirical dispersion correction 
 ----------------------------------------------------------------
 Doing -D3(BJ) with
 s6 =   1.00000
 s8 =   0.00000
 a1 =   0.48600
 a2 =   4.50000
 -D3 energy including 3body term =     -0.1349703843 hartrees
 ----------------------------------------------------------------
 Adding gCP correction 
 ----------------------------------------------------------------
 gCP energy =      0.1920778014 hartrees
 ----------------------------------------------------------------
             Standard Nuclear Orientation (Angstroms)
    I     Atom           X                Y                Z
 ----------------------------------------------------------------
    1      C       0.0000000000     0.0000000000     0.0000000000
    2      C       0.0000000000     0.0000000000     1.4050340000
    3      H       0.9485016003     0.0000000000     1.9323193110
    4      C      -1.1782009195     0.0018687289     2.1090349313
    5      C      -2.4305233235     0.0077389336     1.4293166474
    6      C      -2.4539470621     0.0214459795     0.0568899615
    7      H      -3.4091148098     0.0291744738    -0.4613646134
    8      C      -1.2500197825     0.0169757334    -0.6891990177
    9      C      -1.4303099063    -0.0043806494     3.5418000719
   10      C      -0.6404983965    -0.0081459173     4.6638143792
   11      H       0.4408113733    -0.0037454643     4.5997983295
   12      C      -2.8306117836    -0.0081212216     3.6968161291
   13      C      -3.4727650763    -0.0204595237     4.9306667639
   14      C      -3.4857679123    -0.0029305059     2.4472610255
   15      C      -4.8567109581    -0.0135925185     2.4418966284
   16      H      -5.4235901878    -0.0170048042     1.5189404802
   17      C      -1.2684672025    -0.0178293073     5.9295036507
   18      H      -0.6463288501    -0.0205323415     6.8156821193
   19      C      -2.6363848149    -0.0247884179     6.0747142288
   20      H      -3.0733155726    -0.0339228216     7.0657471137
   21      C      -4.8866629665    -0.0291071591     4.8910942112
   22      H      -5.4557039438    -0.0401840269     5.8126506454
   23      C      -5.5399711685    -0.0267330895     3.6804570022
   24      H      -6.6225037304    -0.0377555961     3.6719627883
   25      B      -1.2464823644     0.0531593597    -2.2178057348
   26      C       0.0524445439    -0.0148053576    -3.0143488816
   27      C       0.0607674415    -0.0157078851    -4.4316271566
   28      H      -0.8782710897     0.0205178811    -4.9772344698
   29      C       1.2417351734    -0.0617076521    -5.1259692455
   30      C       2.4771748310    -0.0946680067    -4.4134434427
   31      C       2.4927766611    -0.0760457783    -3.0411414676
   32      H       3.4385033730    -0.0889835119    -2.5085489010
   33      C       1.2949985665    -0.0364962739    -2.3089529509
   34      C       3.5652984412    -0.1389674757    -5.3789993137
   35      C       4.9357118572    -0.1859245343    -5.2986118577
   36      H       5.4511677676    -0.1946248392    -4.3460818281
   37      C       2.9625994541    -0.1325698593    -6.6526852293
   38      C       3.6765757893    -0.1726409472    -7.8476643991
   39      C       1.5560869407    -0.0868791262    -6.5582272815
   40      C       0.8349770605    -0.0817986109    -7.7251064303
   41      H      -0.2476208287    -0.0506438367    -7.7265187126
   42      C       5.6826885689    -0.2253195818    -6.4972859480
   43      H       6.7629091996    -0.2623598572    -6.4324059625
   44      C       5.0884709212    -0.2200838239    -7.7378711087
   45      H       5.7010233716    -0.2530089866    -8.6306720351
   46      C       2.9041922135    -0.1648360567    -9.0322150699
   47      H       3.3922440778    -0.1951196633    -9.9988671986
   48      C       1.5314447999    -0.1205721831    -8.9556556187
   49      H       0.9574623392    -0.1164978798    -9.8736152563
   50      B       1.3315062342     0.0080093526    -0.7735776438
   51      C      -2.6012236871     0.3003298529    -2.9793961526
   52      C      -3.3036724294    -0.7489500182    -3.6409219364
   53      C      -4.5091274298    -0.5005421977    -4.2466197647
   54      H      -5.0614303833    -1.3126693012    -4.7027457763
   55      C      -5.0737637033     0.7948934857    -4.2096727451
   56      N      -6.2970991334     1.0427214765    -4.7620965710
   57      C      -6.7924795948     0.2744008450    -5.8382611007
   58      C      -8.1149886597    -0.1584143650    -5.8274823502
   59      H      -8.7571643974     0.0794551484    -4.9896930470
   60      C      -8.5928769210    -0.9093527271    -6.8864463766
   61      H      -9.6170788651    -1.2561289875    -6.8738458896
   62      C      -7.7622917653    -1.2278714584    -7.9525950602
   63      H      -8.1404531181    -1.8179969837    -8.7761358289
   64      C      -6.4478017987    -0.7836371765    -7.9628850769
   65      H      -5.8005803257    -1.0165794414    -8.7973780556
   66      C      -5.9591798284    -0.0268376814    -6.9126094123
   67      H      -4.9408182365     0.3398184892    -6.9280978550
   68      C      -4.3668038667     1.8439835816    -3.5817850597
   69      H      -4.7708440584     2.8479726123    -3.6049292772
   70      C      -3.1503570367     1.6172863863    -2.9948883201
   71      C      -7.1039939464     2.0895446937    -4.2541938595
   72      C      -7.6633958976     3.0203886779    -5.1227274553
   73      H      -7.4805911551     2.9483305747    -6.1870481297
   74      C      -8.4328403825     4.0500997434    -4.6097723750
   75      H      -8.8568267107     4.7841680848    -5.2813021947
   76      C      -8.6481152215     4.1508399960    -3.2418902105
   77      H      -9.2464306050     4.9605546407    -2.8469281524
   78      C      -8.0956853841     3.2126099227    -2.3818051829
   79      H      -8.2668337427     3.2823772711    -1.3162949129
   80      C      -7.3260656340     2.1775548681    -2.8829200117
   81      H      -6.8997001576     1.4393196190    -2.2158324630
   82      C      -2.7561436015    -2.1480389048    -3.6173803977
   83      H      -1.6762904824    -2.1171285606    -3.7746355967
   84      H      -3.1791565883    -2.7155199409    -4.4499509624
   85      C      -2.3912061750     2.7777364414    -2.4118522713
   86      H      -1.8986056674     2.4683934853    -1.4891729857
   87      H      -3.0968450949     3.5666104629    -2.1396131410
   88      C      -3.0514374939    -2.8694978102    -2.3030894599
   89      H      -2.5952916543    -2.3584904058    -1.4564917031
   90      H      -2.6486900187    -3.8815625520    -2.3305508350
   91      H      -4.1245057621    -2.9394263696    -2.1203610154
   92      C      -1.3492285940     3.3406958568    -3.3789762835
   93      H      -0.5946273660     2.5969823139    -3.6291584948
   94      H      -0.8361351007     4.1888722643    -2.9259709205
   95      H      -1.8101911572     3.6842032681    -4.3060969888
   96      C       2.7070322535     0.1115302347     0.0046493183
   97      C       3.4806305373    -1.0199194185     0.3020065327
   98      C       4.6681130547    -0.8986773435     1.0136548881
   99      H       5.2579148974    -1.7826633987     1.2307720506
  100      C       5.0998269421     0.3381599557     1.4720194187
  101      C       4.3453327053     1.4644413346     1.1771995069
  102      H       4.6744109725     2.4358141798     1.5305358158
  103      C       3.1732674110     1.3623375098     0.4390483870
  104      N       6.2769855208     0.4379290363     2.2478847731
  105      C       7.1746792470     1.4922529397     2.0357578151
  106      C       7.7735643590     2.1526778733     3.1098080555
  107      H       7.5398939220     1.8546534436     4.1235280310
  108      C       8.6624007967     3.1912231835     2.8877410886
  109      H       9.1149977902     3.6890632427     3.7358537129
  110      C       8.9573794269     3.6081741115     1.5986321465
  111      H       9.6455524154     4.4254718110     1.4291987221
  112      C       8.3535303486     2.9625471895     0.5290194188
  113      H       8.5739187655     3.2718946858    -0.4846674028
  114      C       7.4789236462     1.9103897188     0.7389494880
  115      H       7.0214349342     1.4097613694    -0.1042834067
  116      C       6.4389851105    -0.4176322989     3.3485276618
  117      C       5.3539578641    -0.7468086410     4.1595598723
  118      H       4.3777306216    -0.3363517617     3.9373366282
  119      C       5.5217136468    -1.5940569003     5.2420962422
  120      H       4.6676493924    -1.8388035914     5.8603494986
  121      C       6.7712265924    -2.1139492128     5.5461854456
  122      H       6.8999412309    -2.7701982548     6.3964911957
  123      C       7.8538262399    -1.7837026608     4.7435099667
  124      H       8.8339175595    -2.1884934521     4.9613343148
  125      C       7.6919563718    -0.9525764024     3.6484805021
  126      H       8.5400008302    -0.7118138040     3.0202296062
  127      C       3.0269193532    -2.4021755797    -0.0872452293
  128      H       2.4032730811    -2.3605062374    -0.9829266035
  129      H       3.8958337308    -3.0122830044    -0.3495526526
  130      C       2.4475856347     2.6352526156     0.0871453149
  131      H       1.3795324347     2.4431687569    -0.0368819769
  132      H       2.5333742920     3.3475694554     0.9125967257
  133      C       2.2553346577    -3.0818245039     1.0415570800
  134      H       1.3591890734    -2.5158901513     1.2962744219
  135      H       1.9444406954    -4.0881679467     0.7576673850
  136      H       2.8670368393    -3.1607500447     1.9416485231
  137      C       3.0021056668     3.2685430864    -1.1868750130
  138      H       2.9087633834     2.5873404210    -2.0327914968
  139      H       4.0582307087     3.5185909058    -1.0747553029
  140      H       2.4666254073     4.1862154296    -1.4355569540
 ----------------------------------------------------------------
 Nuclear Repulsion Energy = 12145.1726856125 hartrees
 There are      271 alpha and      269 beta electrons
 Requested basis set is def2-mSVP
 There are 680 shells and 1320 basis functions

 Total QAlloc Memory Limit  14000 MB
 Mega-Array Size      1001 MB
 MEM_STATIC part      1024 MB
 Discretize the solute cavity surface with Lebedev spheres
	Using 302 Lebedev grid points for each H atom
	Using 302 Lebedev grid points for other atoms
	Atomic van der Waals radii will be scaled by 1.20
 Remove points where switching function is < 1.0e-08
 Keep 14626 surface tesserae and discard 27654 interior tesserae
 Molecular Surface Area = 1075.977 Angst**2
 A cutoff of  1.0D-11 yielded  62924 shell pairs
 There are    244164 function pairs (    268444 Cartesian)
 
 -------------------------------------------------------
 OpenMP Integral Computing Module                       
 Release: version 1.0, May 2013, Q-Chem Inc. Pittsburgh 
 -------------------------------------------------------
 Integral Job Info:
 Integral job number is                      11
 Integral operator is                         1
 short-range coefficients                     0
 long-range coefficients              100000000
 Omega coefficients                           0
 if combine SR and LR in K                    0
 Integral screening is                        0
 Integral computing path is                   2
 max size of driver memory is            800000
 size of driver memory is                593474
 size of scratch memory is              1809772
 max col of scratch BK array               1296
 max len of scratch array in speh3          155
 max len of scratch index in speh4           18
 max int batch size is                      520
 min int batch size is                       52
 fixed nKL is                                52
 max L of basis functions is                  2
 order of int derivative is                   0
 number of shells is                        680
 number of basis is                        1400
 number of cartesian basis is              1400
 number of contracted shell pairs         62924
 number of primitive shell pairs         129878
 maxK2 (contraction) of shell pair           25
 max number of K2 of shell pair               1
 max number of CS2 of shell pair          15585
 max number of PS2 of shell pair          22790
 mem total for path MDJ                 1128524
 -------------------------------------------------------
 Smallest overlap matrix eigenvalue = 1.95E-04

 Scale SEOQF with 1.000000e-02/1.000000e-01/1.000000e-02

 Standard Electronic Orientation quadrupole field applied
 Nucleus-field energy     =     0.0000000492 hartrees
 Guess from superposition of atomic densities
 Warning:  Energy on first SCF cycle will be non-variational
 SAD guess density has 540.000001 electrons

 -----------------------------------------------------------------------
  General SCF calculation program by
  Eric Jon Sundstrom, Paul Horn, Yuezhi Mao, Dmitri Zuev, Alec White,
  David Stuck, Shaama M.S., Shane Yost, Joonho Lee, David Small,
  Daniel Levine, Susi Lehtola, Hugh Burton, Evgeny Epifanovsky
 -----------------------------------------------------------------------
 Exchange:     0.4200 Hartree-Fock + 0.5800 PBEh-3c
 Correlation:  1.0000 PBEh-3c
 Using SG-1 standard quadrature grid
 Dispersion:   Grimme D3
 using 8 threads for integral computing
 -------------------------------------------------------
 OpenMP Integral computing Module                
 Release: version 2.0, May 2017, Q-Chem Inc. Pleasanton 
 -------------------------------------------------------
 -------------------------------------------------------
 OpenMP BLAS3 based DFT computing Module                
 Release: version 1.0, May 2013, Q-Chem Inc. Pittsburgh 
 -------------------------------------------------------
 A unrestricted SCF calculation will be
 performed using DIIS
 SCF converges when DIIS error is below 1.0e-08
 ---------------------------------------
  Cycle       Energy         DIIS error
 ---------------------------------------
    1   -3111.2213737398      1.17e-02  
    2   -3083.9204070467      8.63e-04  
    3   -3082.8412949020      1.27e-03  
    4   -3084.3372472846      5.66e-04  
    5   -3084.6796002680      1.06e-04  
    6   -3084.6875122774      9.18e-05  
    7   -3084.6962191250      3.01e-05  
    8   -3084.6973679485      1.29e-05  
    9   -3084.6978525605      7.08e-06  
   10   -3084.6980592001      4.70e-06  
   11   -3084.6981681877      2.29e-06  
   12   -3084.6982029103      1.60e-06  
   13   -3084.6982189124      1.04e-06  
   14   -3084.6982271496      7.23e-07  
   15   -3084.6982301504      4.37e-07  
   16   -3084.6982321714      2.88e-07  
   17   -3084.6982328278      1.81e-07  
   18   -3084.6982330137      1.02e-07  
   19   -3084.6982330469      5.06e-08  
   20   -3084.6982330680      3.18e-08  
   21   -3084.6982330705      2.58e-08  
   22   -3084.6982330826      1.83e-08  
   23   -3084.6982330831      1.23e-08  
   24   -3084.6982330882      8.68e-09  Convergence criterion met
 ---------------------------------------
 SCF time:   CPU 37279.61s  wall 4946.00s 
<S^2> =          2.061456666

************** Final PCM Free Energy Summary **************
 G_electrostatic  =      -0.00000503 hartree =      -0.00315945 kcal/mol
 G_cavitation     =       0.00000000 hartree =       0.00000000 kcal/mol
 G_dispersion     =       0.00000000 hartree =       0.00000000 kcal/mol
 G_repulsion      =       0.00000000 hartree =       0.00000000 kcal/mol
 --------------------------------------------------
 Non-electrostatic Free Energy =       0.00000000 hartree =       0.00000000 kcal/mol
 Total                         =      -0.00000503 hartree =      -0.00315945 kcal/mol
 --------------------------------------------------
 SCF Energy (H0 + V/2)                       =   -3084.69823309 
 Solute Internal Energy (H0)                 =   -3084.69822805 
 Total Free Energy (H0 + V/2 + non-elec)     =   -3084.69823309 hartree
                                             = -1935677.35643980 kcal/mol
***********************************************************

 SCF   energy in the final basis set =    -3084.6982330882
 Total energy in the final basis set =    -3084.6982330882
 
 Direct TDDFT/TDA calculation will be performed
 Exchange:     0.4200 Hartree-Fock + 0.5800 PBEh-3c
 Correlation:  1.0000 PBEh-3c
 Using SG-1 standard quadrature grid
 Dispersion:   Grimme D3
 Adding PCM contribution to the XC response
 CIS energy converged when residual is below 10e- 6
 ---------------------------------------------------
 Iter    Rts Conv    Rts Left    Ttl Dev     Max Dev
 ---------------------------------------------------
   1         0           2      0.000065    0.000043
   2         0           2      0.000025    0.000016
   3         0           2      0.000008    0.000005
   4         1           1      0.000002    0.000002
   5         2           0      0.000002    0.000001    Roots Converged
 ---------------------------------------------------
 
 ---------------------------------------------------
         TDDFT/TDA Excitation Energies              
 ---------------------------------------------------

 Excited state   1: excitation energy (eV) =    0.2811
 Total energy for state  1:                 -3084.68790322 au
    <S**2>     :  2.0687
    Trans. Mom.: -0.7992 X   0.0132 Y  -0.5063 Z
    Strength   :     0.0061654922
    D(268) --> S(  1) amplitude = -0.2059 beta
    D(269) --> S(  1) amplitude =  0.9751 beta

 Excited state   2: excitation energy (eV) =    0.3425
 Total energy for state  2:                 -3084.68564470 au
    <S**2>     :  2.0653
    Trans. Mom.: -0.9645 X   0.1205 Y  -0.2981 Z
    Strength   :     0.0086752828
    D(268) --> S(  1) amplitude =  0.9720 beta
    D(269) --> S(  1) amplitude =  0.2061 beta
 
 ---------------------------------------------------
 Calculating Relaxed Density
 ---------------------------------------------------
 Iter    Rts Conv    Rts Left    Ttl Dev     Max Dev
 ---------------------------------------------------
   1         0           2      0.000448    0.000253
   2         0           2      0.000236    0.000122
   3         0           2      0.000128    0.000067
   4         0           2      0.000077    0.000040
   5         0           2      0.000055    0.000028
   6         0           2      0.000035    0.000020
   7         0           2      0.000021    0.000010
   8         0           2      0.000013    0.000007
   9         0           2      0.000008    0.000005
  10         0           2      0.000005    0.000003
  11         1           1      0.000002    0.000002
  12         2           0      0.000000    0.000000    Roots Converged
 ---------------------------------------------------
  SETman timing summary (seconds)
  CPU time             30746.83s
  System time              0.01s
  Wall time             6876.40s



*********SPIN-ORBIT COUPLING JOB BEGINS HERE*********


=======================================================================================
    SPIN-ORBIT COUPLING BETWEEN THE SINGLET GROUND STATE AND EXCITED TRIPLET STATE
=======================================================================================

SOC between the singlet ground state and excited triplet states (ms=0):
T1(ms=0)      0.000000  +  -0.023223i    cm-1
T2(ms=0)      0.000000  +  0.042819i    cm-1
SOC between the singlet ground state and excited triplet states (ms=1):
T1(ms=1)      0.007981  + (-0.034138i)    cm-1
T2(ms=1)      -0.017822  + (-0.116366i)    cm-1
SOC between the singlet ground state and excited triplet states (ms=-1):
T1(ms=-1)     0.007981  - (-0.034138i)    cm-1
T2(ms=-1)     -0.017822  - (-0.116366i)    cm-1
Total SOC between the singlet ground state and excited triplet states:
T1      0.054749    cm-1
T2      0.171903    cm-1




=======================================================================================
                     SPIN-ORBIT COUPLING BETWEEN EXCITED TRIPLET STATES
=======================================================================================

SOC between the T1 (ms=0) state and excited triplet states (ms=1):
T2(ms=1)      -0.001153  + (-0.000811i)    cm-1
SOC between the T1 (ms=0) state and excited triplet states (ms=-1):
T2(ms=-1)     0.001153  + (-0.000811i)    cm-1
SOC between the T1 (ms=1) state and excited triplet states (ms=0):
T2(ms=0)      0.001153  + (-0.000811i)    cm-1
SOC between the T1 (ms=1) state and excited triplet states (ms=1):
T2(ms=1)      0.000000  + (0.002240i)    cm-1
SOC between the T1 (ms=-1) state and excited triplet states (ms=0):
T2(ms=0)      -0.001153  + (-0.000811i)    cm-1
SOC between the T1 (ms=-1) state and excited triplet states (ms=-1):
T2(ms=-1)     0.000000  + (-0.002240i)    cm-1
Total SOC between the T1 state and excited triplet states:
T2      0.004240    cm-1







=======================================================================================
         SPIN-ORBIT COUPLING BETWEEN EXCITED SINGLET STATES AND TRIPLET STATES
=======================================================================================

SOC between the S1 state and excited triplet states (ms=0):
T1(ms=0)      0.000000  +  0.021929i    cm-1
T2(ms=0)      0.000000  +  0.018862i    cm-1
SOC between the S1 state and excited triplet states (ms=1):
T1(ms=1)      (0.001179)  + (-0.008324i)    cm-1
T2(ms=1)      (-0.018186)  + (0.025545i)    cm-1
SOC between the S1 state and excited triplet states (ms=-1):
T1(ms=-1)    -(0.001179)  + (-0.008324i)    cm-1
T2(ms=-1)    -(-0.018186)  + (0.025545i)    cm-1
Total SOC between the S1 state and excited triplet states:
T1      0.024945    cm-1
T2      0.048190    cm-1



SOC between the S2 state and excited triplet states (ms=0):
T1(ms=0)      0.000000  +  4.338965i    cm-1
T2(ms=0)      0.000000  +  -3.759798i    cm-1
SOC between the S2 state and excited triplet states (ms=1):
T1(ms=1)      (2.291315)  + (4.143348i)    cm-1
T2(ms=1)      (2.901420)  + (-3.744368i)    cm-1
SOC between the S2 state and excited triplet states (ms=-1):
T1(ms=-1)    -(2.291315)  + (4.143348i)    cm-1
T2(ms=-1)    -(2.901420)  + (-3.744368i)    cm-1
Total SOC between the S2 state and excited triplet states:
T1      7.978818    cm-1
T2      7.682000    cm-1






            *********SOC CODE ENDS HERE*********



 
 --------------------------------------------------------------
 
                    Orbital Energies (a.u.)
 --------------------------------------------------------------
 
 Alpha MOs
 -- Occupied --
-14.775 -14.649 -10.558 -10.548 -10.547 -10.504 -10.504 -10.504
-10.504 -10.498 -10.498 -10.498 -10.497 -10.497 -10.497 -10.492
-10.491 -10.490 -10.489 -10.478 -10.473 -10.472 -10.458 -10.449
-10.445 -10.443 -10.442 -10.442 -10.442 -10.441 -10.440 -10.440
-10.440 -10.440 -10.439 -10.437 -10.437 -10.437 -10.437 -10.436
-10.436 -10.434 -10.434 -10.433 -10.432 -10.431 -10.431 -10.431
-10.431 -10.428 -10.428 -10.428 -10.427 -10.427 -10.426 -10.426
-10.426 -10.425 -10.425 -10.424 -10.424 -10.424 -10.423 -10.421
-10.421 -10.419 -10.418 -10.410 -10.409 -10.408 -10.407 -10.404
-10.403 -10.397 -10.396 -10.394 -10.394 -10.392  -6.895  -6.889
 -1.169  -1.059  -1.018  -1.014  -0.993  -0.989  -0.989  -0.943
 -0.938  -0.932  -0.930  -0.922  -0.919  -0.915  -0.910  -0.910
 -0.907  -0.894  -0.893  -0.879  -0.870  -0.863  -0.860  -0.843
 -0.834  -0.834  -0.833  -0.827  -0.826  -0.825  -0.824  -0.822
 -0.820  -0.799  -0.794  -0.789  -0.786  -0.775  -0.774  -0.768
 -0.767  -0.765  -0.741  -0.735  -0.731  -0.717  -0.708  -0.706
 -0.703  -0.695  -0.694  -0.688  -0.688  -0.679  -0.676  -0.670
 -0.665  -0.664  -0.657  -0.655  -0.651  -0.649  -0.638  -0.635
 -0.623  -0.619  -0.616  -0.615  -0.606  -0.605  -0.600  -0.590
 -0.587  -0.575  -0.572  -0.571  -0.567  -0.567  -0.564  -0.559
 -0.556  -0.551  -0.551  -0.547  -0.546  -0.543  -0.539  -0.536
 -0.532  -0.524  -0.523  -0.520  -0.517  -0.515  -0.505  -0.504
 -0.503  -0.503  -0.498  -0.495  -0.492  -0.492  -0.483  -0.483
 -0.481  -0.481  -0.481  -0.477  -0.475  -0.473  -0.470  -0.468
 -0.467  -0.467  -0.465  -0.465  -0.464  -0.461  -0.460  -0.460
 -0.459  -0.459  -0.456  -0.455  -0.453  -0.453  -0.449  -0.443
 -0.442  -0.441  -0.440  -0.431  -0.427  -0.421  -0.418  -0.417
 -0.415  -0.413  -0.410  -0.409  -0.407  -0.405  -0.403  -0.402
 -0.401  -0.397  -0.396  -0.394  -0.391  -0.389  -0.386  -0.382
 -0.378  -0.376  -0.376  -0.374  -0.373  -0.372  -0.369  -0.366
 -0.366  -0.360  -0.359  -0.352  -0.352  -0.346  -0.346  -0.344
 -0.342  -0.338  -0.332  -0.323  -0.322  -0.313  -0.310  -0.296
 -0.290  -0.286  -0.283  -0.282  -0.276  -0.276  -0.274  -0.261
 -0.258  -0.248  -0.242  -0.232  -0.227  -0.200  -0.141
 -- Virtual --
 -0.049  -0.048  -0.044  -0.042  -0.025  -0.021  -0.010  -0.009
 -0.000   0.018   0.023   0.025   0.028   0.034   0.041   0.046
  0.055   0.065   0.078   0.090   0.094   0.101   0.107   0.110
  0.112   0.120   0.129   0.134   0.142   0.144   0.150   0.154
  0.155   0.159   0.160   0.160   0.162   0.163   0.164   0.166
  0.167   0.175   0.176   0.177   0.181   0.184   0.186   0.186
  0.188   0.190   0.192   0.193   0.194   0.199   0.200   0.201
  0.203   0.204   0.205   0.208   0.208   0.211   0.212   0.213
  0.215   0.218   0.218   0.220   0.223   0.224   0.225   0.226
  0.229   0.230   0.232   0.234   0.235   0.238   0.238   0.240
  0.240   0.242   0.246   0.247   0.248   0.250   0.251   0.253
  0.254   0.255   0.256   0.257   0.260   0.264   0.264   0.267
  0.269   0.270   0.270   0.271   0.275   0.276   0.277   0.281
  0.281   0.284   0.286   0.289   0.289   0.290   0.293   0.295
  0.298   0.302   0.303   0.304   0.306   0.310   0.311   0.313
  0.315   0.321   0.322   0.323   0.327   0.328   0.329   0.334
  0.335   0.336   0.340   0.342   0.343   0.346   0.348   0.352
  0.354   0.359   0.363   0.365   0.367   0.374   0.376   0.377
  0.387   0.389   0.393   0.401   0.403   0.404   0.407   0.408
  0.419   0.423   0.425   0.426   0.429   0.434   0.438   0.445
  0.449   0.455   0.458   0.461   0.464   0.467   0.471   0.475
  0.475   0.477   0.477   0.480   0.484   0.485   0.488   0.491
  0.493   0.499   0.504   0.508   0.512   0.514   0.515   0.518
  0.519   0.520   0.522   0.526   0.529   0.532   0.533   0.535
  0.539   0.542   0.543   0.544   0.548   0.549   0.549   0.550
  0.552   0.552   0.557   0.558   0.560   0.561   0.562   0.564
  0.565   0.566   0.568   0.569   0.571   0.572   0.573   0.574
  0.577   0.578   0.580   0.581   0.581   0.583   0.585   0.586
  0.586   0.589   0.590   0.595   0.597   0.599   0.600   0.603
  0.605   0.606   0.607   0.608   0.609   0.611   0.611   0.612
  0.613   0.614   0.615   0.616   0.618   0.619   0.622   0.623
  0.626   0.627   0.630   0.630   0.632   0.632   0.636   0.637
  0.639   0.641   0.641   0.643   0.643   0.644   0.645   0.646
  0.647   0.648   0.649   0.650   0.651   0.653   0.654   0.655
  0.659   0.661   0.662   0.665   0.667   0.668   0.671   0.673
  0.674   0.675   0.677   0.679   0.681   0.681   0.683   0.686
  0.688   0.691   0.691   0.695   0.700   0.701   0.703   0.706
  0.710   0.711   0.716   0.717   0.719   0.723   0.726   0.727
  0.728   0.729   0.731   0.732   0.736   0.739   0.740   0.745
  0.745   0.754   0.756   0.759   0.761   0.764   0.766   0.769
  0.772   0.774   0.777   0.779   0.783   0.786   0.789   0.791
  0.795   0.797   0.800   0.801   0.804   0.806   0.811   0.814
  0.817   0.824   0.826   0.828   0.833   0.835   0.841   0.844
  0.847   0.856   0.857   0.861   0.865   0.869   0.877   0.878
  0.881   0.887   0.888   0.894   0.896   0.898   0.902   0.907
  0.908   0.912   0.913   0.914   0.917   0.923   0.924   0.926
  0.929   0.931   0.933   0.937   0.938   0.939   0.942   0.943
  0.946   0.953   0.956   0.957   0.961   0.962   0.967   0.968
  0.971   0.972   0.973   0.975   0.976   0.978   0.981   0.982
  0.983   0.987   0.988   0.992   0.994   1.001   1.001   1.002
  1.004   1.005   1.007   1.008   1.010   1.011   1.013   1.016
  1.018   1.021   1.023   1.026   1.027   1.028   1.029   1.031
  1.033   1.035   1.038   1.041   1.043   1.044   1.048   1.050
  1.054   1.056   1.058   1.061   1.063   1.064   1.066   1.067
  1.071   1.074   1.075   1.075   1.078   1.081   1.083   1.085
  1.090   1.092   1.094   1.098   1.099   1.100   1.101   1.103
  1.107   1.109   1.110   1.110   1.115   1.119   1.127   1.132
  1.135   1.136   1.137   1.138   1.141   1.144   1.146   1.149
  1.151   1.153   1.160   1.162   1.166   1.168   1.171   1.173
  1.177   1.179   1.182   1.188   1.190   1.190   1.198   1.199
  1.203   1.209   1.210   1.213   1.214   1.221   1.222   1.227
  1.230   1.235   1.239   1.243   1.246   1.248   1.252   1.256
  1.261   1.267   1.269   1.276   1.278   1.281   1.283   1.285
  1.285   1.290   1.291   1.292   1.300   1.300   1.304   1.306
  1.315   1.316   1.320   1.322   1.322   1.327   1.329   1.334
  1.336   1.340   1.341   1.347   1.347   1.352   1.357   1.360
  1.363   1.370   1.370   1.372   1.380   1.383   1.392   1.394
  1.399   1.400   1.403   1.405   1.407   1.411   1.418   1.420
  1.423   1.430   1.431   1.433   1.439   1.442   1.445   1.450
  1.457   1.460   1.463   1.463   1.464   1.464   1.472   1.474
  1.475   1.487   1.489   1.494   1.497   1.498   1.499   1.503
  1.507   1.510   1.512   1.522   1.522   1.526   1.531   1.533
  1.534   1.539   1.539   1.540   1.543   1.546   1.550   1.553
  1.554   1.554   1.555   1.559   1.564   1.566   1.566   1.571
  1.574   1.579   1.582   1.586   1.587   1.588   1.591   1.594
  1.598   1.600   1.602   1.609   1.613   1.618   1.619   1.624
  1.625   1.637   1.639   1.643   1.651   1.660   1.666   1.673
  1.678   1.683   1.694   1.699   1.703   1.715   1.716   1.724
  1.736   1.742   1.754   1.756   1.760   1.764   1.768   1.776
  1.779   1.782   1.786   1.794   1.797   1.800   1.805   1.806
  1.809   1.812   1.817   1.822   1.824   1.833   1.833   1.835
  1.836   1.837   1.842   1.844   1.846   1.847   1.849   1.850
  1.851   1.860   1.874   1.876   1.880   1.892   1.894   1.905
  1.905   1.908   1.913   1.914   1.918   1.923   1.930   1.935
  1.938   1.941   1.942   1.945   1.947   1.951   1.956   1.963
  1.968   1.969   1.970   1.972   1.977   1.986   1.992   1.995
  2.002   2.005   2.005   2.007   2.014   2.017   2.020   2.021
  2.028   2.031   2.033   2.041   2.042   2.052   2.054   2.055
  2.057   2.065   2.068   2.075   2.087   2.089   2.092   2.093
  2.094   2.096   2.098   2.099   2.101   2.107   2.112   2.112
  2.122   2.129   2.132   2.133   2.134   2.135   2.140   2.150
  2.151   2.154   2.156   2.162   2.162   2.168   2.168   2.169
  2.170   2.175   2.176   2.183   2.184   2.188   2.192   2.198
  2.200   2.208   2.210   2.211   2.216   2.219   2.223   2.226
  2.227   2.229   2.230   2.231   2.234   2.242   2.245   2.253
  2.254   2.255   2.257   2.262   2.267   2.273   2.276   2.278
  2.285   2.287   2.291   2.295   2.296   2.300   2.302   2.307
  2.309   2.312   2.315   2.317   2.319   2.323   2.327   2.331
  2.333   2.336   2.340   2.345   2.346   2.351   2.355   2.359
  2.361   2.365   2.367   2.370   2.375   2.377   2.380   2.383
  2.383   2.385   2.386   2.388   2.389   2.403   2.403   2.405
  2.409   2.411   2.415   2.416   2.420   2.428   2.429   2.432
  2.433   2.434   2.438   2.441   2.446   2.448   2.453   2.457
  2.459   2.464   2.471   2.474   2.490   2.494   2.496   2.500
  2.502   2.507   2.518   2.523   2.526   2.526   2.531   2.537
  2.548   2.557   2.558   2.564   2.569   2.584   2.593   2.598
  2.602   2.607   2.617   2.624   2.630   2.635   2.638   2.649
  2.660   2.662   2.666   2.668   2.668   2.673   2.676   2.682
  2.685   2.689   2.695   2.697   2.700   2.704   2.707   2.708
  2.714   2.715   2.716   2.734   2.735   2.737   2.745   2.749
  2.750   2.754   2.755   2.757   2.757   2.761   2.767   2.775
  2.776   2.779   2.784   2.787   2.788   2.804   2.805   2.807
  2.809   2.811   2.812   2.814   2.815   2.816   2.831   2.832
  2.832   2.833   2.836   2.838   2.846   2.848   2.849   2.862
  2.867   2.868   2.869   2.876   2.880   2.889   2.892   2.898
  2.906   2.914   2.926   2.930   2.936   2.944   2.952   2.957
  2.961   2.964   2.971   2.983   2.994   3.006   3.021   3.027
  3.031   3.046   3.047   3.052   3.064   3.092   3.098   3.104
  3.106   3.119   3.164   3.177   3.237   3.271   3.283   3.285
  3.298   3.339   3.356   3.427   3.432   3.461   3.467   3.473
  3.499   3.508   3.515   3.517   3.521   3.530   3.578   3.693
  3.704   9.650   9.805  13.168  13.195  13.203  13.234  13.264
 13.294  13.400  13.519  13.527  13.534  13.547  13.578  13.618
 13.629  13.654  13.663  13.673  13.689  13.696  13.708  13.724
 13.731  13.746  13.779  13.789  13.814  13.824  13.826  13.843
 13.887  13.899  13.912  13.951  13.995  14.028  14.032  14.040
 14.059  14.061  14.067  14.074  14.077  14.102  14.104  14.125
 14.132  14.170  14.170  14.180  14.187  14.187  14.192  14.199
 14.203  14.222  14.230  14.264  14.271  14.308  14.316  14.341
 14.344  14.372  14.375  14.515  14.529  14.536  14.537  14.540
 14.594  14.600  14.601  14.603  14.605  14.606  14.635  19.585
 19.708
 
 Beta MOs
 -- Occupied --
-14.767 -14.649 -10.556 -10.549 -10.548 -10.503 -10.503 -10.503
-10.503 -10.499 -10.498 -10.498 -10.497 -10.497 -10.496 -10.492
-10.490 -10.490 -10.488 -10.473 -10.473 -10.472 -10.457 -10.448
-10.445 -10.443 -10.442 -10.442 -10.442 -10.441 -10.441 -10.441
-10.440 -10.439 -10.439 -10.438 -10.438 -10.436 -10.436 -10.436
-10.435 -10.435 -10.435 -10.433 -10.432 -10.431 -10.431 -10.431
-10.431 -10.428 -10.428 -10.427 -10.427 -10.427 -10.426 -10.426
-10.426 -10.425 -10.424 -10.424 -10.423 -10.423 -10.423 -10.421
-10.421 -10.420 -10.419 -10.410 -10.410 -10.407 -10.407 -10.403
-10.403 -10.397 -10.396 -10.393 -10.393 -10.392  -6.892  -6.887
 -1.156  -1.059  -1.017  -1.010  -0.989  -0.988  -0.987  -0.943
 -0.937  -0.931  -0.929  -0.921  -0.919  -0.910  -0.910  -0.909
 -0.906  -0.892  -0.891  -0.877  -0.870  -0.862  -0.857  -0.843
 -0.834  -0.832  -0.828  -0.826  -0.824  -0.823  -0.823  -0.822
 -0.820  -0.799  -0.791  -0.787  -0.785  -0.774  -0.773  -0.768
 -0.764  -0.760  -0.739  -0.733  -0.729  -0.716  -0.707  -0.704
 -0.702  -0.694  -0.694  -0.688  -0.686  -0.679  -0.675  -0.669
 -0.664  -0.664  -0.656  -0.654  -0.648  -0.646  -0.636  -0.633
 -0.622  -0.618  -0.616  -0.613  -0.605  -0.603  -0.590  -0.587
 -0.586  -0.573  -0.571  -0.570  -0.567  -0.566  -0.562  -0.559
 -0.555  -0.550  -0.550  -0.545  -0.544  -0.542  -0.538  -0.536
 -0.532  -0.523  -0.520  -0.518  -0.516  -0.514  -0.504  -0.503
 -0.502  -0.497  -0.494  -0.494  -0.491  -0.486  -0.481  -0.481
 -0.480  -0.480  -0.477  -0.476  -0.474  -0.472  -0.469  -0.467
 -0.467  -0.465  -0.465  -0.464  -0.463  -0.460  -0.459  -0.458
 -0.457  -0.456  -0.454  -0.453  -0.452  -0.451  -0.449  -0.443
 -0.442  -0.440  -0.433  -0.430  -0.426  -0.420  -0.417  -0.417
 -0.413  -0.413  -0.408  -0.407  -0.405  -0.404  -0.402  -0.401
 -0.396  -0.396  -0.392  -0.389  -0.388  -0.386  -0.385  -0.382
 -0.378  -0.376  -0.375  -0.372  -0.371  -0.371  -0.368  -0.365
 -0.364  -0.359  -0.356  -0.349  -0.346  -0.344  -0.343  -0.340
 -0.336  -0.332  -0.321  -0.320  -0.318  -0.308  -0.304  -0.289
 -0.286  -0.285  -0.281  -0.276  -0.272  -0.272  -0.260  -0.248
 -0.248  -0.234  -0.229  -0.220  -0.200
 -- Virtual --
 -0.170  -0.055  -0.046  -0.041  -0.034  -0.031  -0.022  -0.006
  0.002   0.003   0.020   0.022   0.023   0.025   0.029   0.034
  0.043   0.046   0.056   0.076   0.079   0.096   0.098   0.102
  0.108   0.118   0.120   0.124   0.135   0.136   0.145   0.148
  0.151   0.155   0.155   0.160   0.161   0.162   0.163   0.165
  0.166   0.167   0.171   0.176   0.177   0.178   0.182   0.186
  0.187   0.189   0.190   0.191   0.193   0.194   0.196   0.199
  0.200   0.202   0.205   0.205   0.206   0.208   0.209   0.212
  0.213   0.213   0.216   0.218   0.218   0.220   0.224   0.225
  0.226   0.226   0.230   0.230   0.233   0.235   0.235   0.238
  0.239   0.240   0.241   0.243   0.248   0.248   0.249   0.251
  0.253   0.254   0.254   0.255   0.257   0.259   0.261   0.265
  0.266   0.269   0.270   0.271   0.272   0.273   0.276   0.277
  0.278   0.281   0.282   0.285   0.287   0.290   0.290   0.291
  0.295   0.296   0.299   0.303   0.304   0.306   0.307   0.311
  0.312   0.315   0.316   0.322   0.324   0.325   0.328   0.329
  0.331   0.335   0.336   0.338   0.340   0.343   0.344   0.347
  0.349   0.353   0.355   0.363   0.366   0.368   0.370   0.375
  0.377   0.378   0.389   0.392   0.394   0.403   0.405   0.408
  0.409   0.413   0.421   0.425   0.427   0.430   0.431   0.435
  0.440   0.447   0.451   0.457   0.460   0.465   0.466   0.468
  0.473   0.477   0.477   0.478   0.480   0.482   0.485   0.486
  0.488   0.493   0.495   0.500   0.507   0.511   0.514   0.515
  0.516   0.520   0.521   0.522   0.523   0.528   0.530   0.534
  0.535   0.537   0.541   0.543   0.544   0.546   0.549   0.550
  0.551   0.552   0.553   0.554   0.558   0.559   0.561   0.562
  0.563   0.565   0.566   0.567   0.569   0.571   0.572   0.574
  0.574   0.576   0.578   0.580   0.581   0.582   0.582   0.584
  0.586   0.587   0.588   0.590   0.591   0.596   0.598   0.599
  0.601   0.605   0.606   0.608   0.609   0.610   0.611   0.613
  0.613   0.614   0.615   0.615   0.616   0.617   0.618   0.620
  0.624   0.624   0.626   0.628   0.630   0.631   0.633   0.634
  0.637   0.638   0.640   0.641   0.642   0.644   0.644   0.645
  0.646   0.647   0.648   0.648   0.650   0.651   0.652   0.654
  0.656   0.657   0.661   0.662   0.663   0.666   0.668   0.669
  0.673   0.674   0.675   0.677   0.679   0.681   0.681   0.682
  0.684   0.686   0.690   0.692   0.693   0.697   0.700   0.702
  0.704   0.707   0.711   0.713   0.716   0.718   0.720   0.723
  0.726   0.727   0.729   0.729   0.732   0.733   0.738   0.740
  0.741   0.746   0.747   0.755   0.758   0.760   0.761   0.765
  0.768   0.771   0.774   0.775   0.778   0.781   0.785   0.787
  0.792   0.792   0.795   0.798   0.801   0.803   0.804   0.806
  0.813   0.817   0.819   0.825   0.826   0.830   0.834   0.836
  0.842   0.846   0.848   0.857   0.860   0.862   0.865   0.870
  0.878   0.879   0.882   0.888   0.890   0.896   0.898   0.899
  0.902   0.909   0.910   0.912   0.914   0.915   0.918   0.924
  0.926   0.927   0.930   0.932   0.934   0.938   0.939   0.940
  0.944   0.944   0.946   0.954   0.957   0.958   0.962   0.963
  0.967   0.968   0.971   0.973   0.974   0.975   0.976   0.978
  0.981   0.983   0.984   0.988   0.989   0.993   0.995   1.002
  1.002   1.002   1.004   1.005   1.008   1.009   1.011   1.012
  1.014   1.017   1.018   1.022   1.023   1.026   1.027   1.028
  1.030   1.032   1.034   1.036   1.039   1.041   1.043   1.045
  1.048   1.050   1.054   1.057   1.059   1.062   1.063   1.065
  1.066   1.068   1.071   1.075   1.075   1.076   1.080   1.082
  1.084   1.086   1.090   1.092   1.094   1.098   1.100   1.100
  1.101   1.104   1.108   1.109   1.110   1.110   1.116   1.120
  1.128   1.133   1.135   1.137   1.138   1.139   1.141   1.146
  1.147   1.150   1.152   1.154   1.161   1.164   1.166   1.169
  1.171   1.174   1.178   1.180   1.183   1.189   1.191   1.191
  1.199   1.200   1.204   1.211   1.213   1.214   1.215   1.223
  1.223   1.227   1.233   1.236   1.240   1.245   1.247   1.248
  1.254   1.258   1.262   1.268   1.271   1.276   1.279   1.282
  1.285   1.286   1.287   1.291   1.294   1.294   1.301   1.302
  1.305   1.308   1.317   1.318   1.321   1.323   1.324   1.328
  1.331   1.335   1.338   1.340   1.344   1.348   1.349   1.354
  1.358   1.363   1.365   1.370   1.372   1.373   1.381   1.385
  1.395   1.397   1.400   1.403   1.405   1.408   1.410   1.412
  1.420   1.422   1.425   1.430   1.432   1.434   1.440   1.442
  1.447   1.452   1.459   1.462   1.465   1.465   1.465   1.466
  1.473   1.475   1.476   1.489   1.490   1.497   1.500   1.501
  1.502   1.506   1.510   1.512   1.516   1.522   1.524   1.526
  1.532   1.534   1.534   1.540   1.541   1.542   1.544   1.547
  1.551   1.554   1.555   1.555   1.557   1.560   1.565   1.566
  1.567   1.572   1.575   1.580   1.583   1.586   1.587   1.589
  1.593   1.595   1.599   1.602   1.603   1.610   1.613   1.620
  1.621   1.624   1.626   1.638   1.640   1.644   1.653   1.662
  1.668   1.675   1.682   1.685   1.698   1.702   1.708   1.717
  1.719   1.728   1.738   1.744   1.757   1.758   1.760   1.766
  1.768   1.777   1.780   1.784   1.788   1.795   1.797   1.801
  1.806   1.808   1.812   1.814   1.821   1.823   1.825   1.833
  1.835   1.835   1.837   1.838   1.843   1.844   1.847   1.848
  1.850   1.852   1.853   1.861   1.876   1.876   1.883   1.892
  1.897   1.906   1.907   1.911   1.915   1.916   1.918   1.926
  1.932   1.936   1.943   1.944   1.944   1.947   1.949   1.955
  1.958   1.964   1.969   1.970   1.972   1.976   1.981   1.988
  1.995   1.997   2.002   2.005   2.006   2.008   2.015   2.018
  2.021   2.022   2.029   2.033   2.035   2.042   2.043   2.053
  2.056   2.057   2.059   2.068   2.072   2.077   2.088   2.089
  2.092   2.094   2.095   2.097   2.099   2.100   2.103   2.107
  2.112   2.114   2.123   2.129   2.133   2.134   2.135   2.137
  2.141   2.151   2.152   2.155   2.157   2.162   2.164   2.169
  2.170   2.170   2.172   2.176   2.178   2.184   2.186   2.190
  2.193   2.199   2.201   2.210   2.211   2.212   2.217   2.220
  2.224   2.226   2.227   2.229   2.231   2.232   2.237   2.242
  2.247   2.254   2.255   2.257   2.257   2.264   2.269   2.274
  2.277   2.280   2.287   2.289   2.292   2.297   2.300   2.303
  2.304   2.307   2.311   2.314   2.318   2.319   2.323   2.325
  2.328   2.333   2.334   2.337   2.342   2.346   2.347   2.352
  2.356   2.360   2.363   2.366   2.368   2.371   2.376   2.378
  2.382   2.384   2.384   2.386   2.386   2.388   2.392   2.403
  2.405   2.407   2.409   2.413   2.416   2.417   2.423   2.429
  2.430   2.434   2.435   2.436   2.439   2.442   2.448   2.450
  2.455   2.459   2.461   2.468   2.474   2.476   2.491   2.495
  2.497   2.501   2.503   2.509   2.521   2.525   2.527   2.527
  2.531   2.538   2.549   2.559   2.561   2.566   2.572   2.586
  2.595   2.599   2.606   2.610   2.619   2.627   2.630   2.637
  2.640   2.649   2.661   2.663   2.667   2.668   2.669   2.674
  2.676   2.685   2.687   2.690   2.696   2.698   2.701   2.706
  2.708   2.709   2.715   2.716   2.718   2.736   2.738   2.739
  2.745   2.750   2.751   2.755   2.755   2.758   2.758   2.762
  2.769   2.776   2.776   2.779   2.785   2.787   2.788   2.804
  2.807   2.808   2.810   2.811   2.813   2.814   2.816   2.817
  2.831   2.832   2.833   2.834   2.837   2.839   2.846   2.848
  2.849   2.864   2.868   2.870   2.870   2.877   2.881   2.890
  2.893   2.898   2.908   2.916   2.929   2.932   2.937   2.946
  2.953   2.957   2.962   2.966   2.972   2.983   2.995   3.007
  3.023   3.027   3.032   3.047   3.048   3.053   3.067   3.095
  3.100   3.104   3.106   3.120   3.165   3.178   3.239   3.272
  3.283   3.286   3.300   3.339   3.356   3.427   3.433   3.461
  3.468   3.474   3.499   3.508   3.515   3.517   3.522   3.530
  3.579   3.693   3.704   9.654   9.809  13.168  13.195  13.203
 13.235  13.264  13.294  13.401  13.519  13.528  13.534  13.548
 13.578  13.618  13.629  13.655  13.663  13.673  13.689  13.696
 13.708  13.724  13.731  13.746  13.779  13.790  13.814  13.824
 13.827  13.844  13.888  13.901  13.912  13.952  13.996  14.028
 14.032  14.040  14.060  14.061  14.068  14.074  14.077  14.103
 14.105  14.125  14.132  14.170  14.170  14.182  14.187  14.188
 14.193  14.199  14.203  14.223  14.230  14.264  14.272  14.309
 14.316  14.341  14.344  14.373  14.376  14.517  14.529  14.536
 14.537  14.540  14.595  14.600  14.601  14.603  14.605  14.606
 14.635  19.595  19.708
 --------------------------------------------------------------
 
          Ground-State Mulliken Net Atomic Charges

     Atom                 Charge (a.u.)    Spin (a.u.)
  --------------------------------------------------------
      1 C                    -0.142489       0.074605
      2 C                    -0.393047      -0.067280
      3 H                     0.222124       0.002860
      4 C                     0.075828       0.108253
      5 C                     0.103490       0.007981
      6 C                    -0.405215       0.015648
      7 H                     0.177216      -0.003000
      8 C                    -0.130950      -0.005452
      9 C                     0.196146      -0.058959
     10 C                    -0.385169       0.084983
     11 H                     0.211220      -0.005049
     12 C                    -0.075886       0.021442
     13 C                     0.254175      -0.034067
     14 C                     0.199757      -0.032969
     15 C                    -0.395981       0.053595
     16 H                     0.188613      -0.003242
     17 C                    -0.202078      -0.051619
     18 H                     0.216851       0.002524
     19 C                    -0.343007       0.077160
     20 H                     0.208663      -0.004652
     21 C                    -0.346302       0.050602
     22 H                     0.209580      -0.002978
     23 C                    -0.199538      -0.037626
     24 H                     0.208376       0.001927
     25 B                     0.494740       0.374867
     26 C                    -0.120637       0.006926
     27 C                    -0.406931       0.018952
     28 H                     0.180632      -0.002757
     29 C                     0.100185       0.005951
     30 C                     0.076320       0.123990
     31 C                    -0.396112      -0.072499
     32 H                     0.222585       0.003070
     33 C                    -0.139053       0.083630
     34 C                     0.198480      -0.065113
     35 C                    -0.387131       0.095673
     36 H                     0.213449      -0.005689
     37 C                    -0.076278       0.025185
     38 C                     0.252378      -0.038481
     39 C                     0.200452      -0.035987
     40 C                    -0.395814       0.058367
     41 H                     0.190333      -0.003528
     42 C                    -0.202029      -0.057953
     43 H                     0.217258       0.002817
     44 C                    -0.342312       0.088087
     45 H                     0.209018      -0.005299
     46 C                    -0.345162       0.055356
     47 H                     0.209506      -0.003254
     48 C                    -0.199403      -0.041433
     49 H                     0.208944       0.002126
     50 B                     0.561456       0.260393
     51 C                    -0.123811       0.375321
     52 C                     0.095902      -0.073999
     53 C                    -0.354696       0.112911
     54 H                     0.264884      -0.006236
     55 C                     0.339940       0.099528
     56 N                    -0.600520       0.288515
     57 C                     0.268641      -0.064148
     58 C                    -0.256715       0.075987
     59 H                     0.260494      -0.004076
     60 C                    -0.216756      -0.050764
     61 H                     0.244886       0.002601
     62 C                    -0.216960       0.085305
     63 H                     0.244847      -0.004762
     64 C                    -0.217825      -0.054944
     65 H                     0.247788       0.003107
     66 C                    -0.259650       0.079662
     67 H                     0.270558      -0.004201
     68 C                    -0.359818       0.105869
     69 H                     0.265896      -0.005906
     70 C                     0.078976      -0.076702
     71 C                     0.240452      -0.057904
     72 C                    -0.247236       0.066481
     73 H                     0.257762      -0.003620
     74 C                    -0.218706      -0.043575
     75 H                     0.245088       0.002295
     76 C                    -0.215445       0.074036
     77 H                     0.245469      -0.004138
     78 C                    -0.218340      -0.048039
     79 H                     0.249843       0.002790
     80 C                    -0.247070       0.070249
     81 H                     0.267963      -0.003718
     82 C                    -0.541836       0.006898
     83 H                     0.288280      -0.001809
     84 H                     0.223051      -0.000142
     85 C                    -0.549500       0.007633
     86 H                     0.299349      -0.002537
     87 H                     0.225044       0.000513
     88 C                    -0.655959       0.000459
     89 H                     0.279371      -0.001052
     90 H                     0.232458      -0.000174
     91 H                     0.204226       0.000073
     92 C                    -0.652403      -0.001053
     93 H                     0.278962      -0.000748
     94 H                     0.230580      -0.000467
     95 H                     0.202447      -0.000140
     96 C                    -0.202345      -0.025259
     97 C                     0.069322       0.004148
     98 C                    -0.340086      -0.001419
     99 H                     0.222034       0.000373
    100 C                     0.287139       0.001974
    101 C                    -0.349328      -0.001476
    102 H                     0.225518       0.000350
    103 C                     0.060096       0.004402
    104 N                    -0.672283       0.000898
    105 C                     0.306607      -0.000223
    106 C                    -0.290105       0.000365
    107 H                     0.244846      -0.000020
    108 C                    -0.212514      -0.000255
    109 H                     0.214683       0.000013
    110 C                    -0.241659       0.000447
    111 H                     0.211567      -0.000025
    112 C                    -0.212586      -0.000273
    113 H                     0.215693       0.000015
    114 C                    -0.279877       0.000380
    115 H                     0.245062      -0.000021
    116 C                     0.290418      -0.000200
    117 C                    -0.274672       0.000352
    118 H                     0.244228      -0.000021
    119 C                    -0.214196      -0.000249
    120 H                     0.216172       0.000015
    121 C                    -0.238259       0.000404
    122 H                     0.213084      -0.000023
    123 C                    -0.215141      -0.000234
    124 H                     0.215679       0.000011
    125 C                    -0.273403       0.000331
    126 H                     0.242559      -0.000017
    127 C                    -0.540014       0.002735
    128 H                     0.255503      -0.001709
    129 H                     0.220140       0.000317
    130 C                    -0.543287       0.003465
    131 H                     0.257938      -0.002440
    132 H                     0.221147       0.000321
    133 C                    -0.646032      -0.000195
    134 H                     0.245180      -0.000197
    135 H                     0.209584       0.000006
    136 H                     0.213009      -0.000059
    137 C                    -0.643299      -0.000229
    138 H                     0.247146      -0.000208
    139 H                     0.212972      -0.000047
    140 H                     0.204593       0.000011
  --------------------------------------------------------
  Sum of atomic charges =    -0.000000
  Sum of spin   charges =     2.000000

 -----------------------------------------------------------------
                    Cartesian Multipole Moments
 -----------------------------------------------------------------
    Charge (ESU x 10^10)
                -0.0000
    Dipole Moment (Debye)
         X     -18.8725      Y       2.7085      Z      -9.7899
       Tot      21.4324
    Quadrupole Moments (Debye-Ang)
        XX    -338.7495     XY     -24.0656     YY    -452.8097
        XZ      91.2224     YZ      -7.0198     ZZ    -391.4991
    Octopole Moments (Debye-Ang^2)
       XXX   -1041.1800    XXY      40.8237    XYY    -145.3098
       YYY    -424.9843    XXZ     -36.6130    XYZ      21.3617
       YYZ     568.5471    XZZ    -543.7023    YZZ    -217.3590
       ZZZ    1403.7374
    Hexadecapole Moments (Debye-Ang^3)
      XXXX  -59727.4042   XXXY    -421.7078   XXYY  -11307.0965
      XYYY     504.2085   YYYY   -7861.7835   XXXZ   -4964.9138
      XXYZ       1.1697   XYYZ   -2143.0735   YYYZ     976.0524
      XXZZ  -15572.7763   XYZZ     357.4363   YYZZ  -10188.5960
      XZZZ   -5744.6661   YZZZ    1548.1827   ZZZZ  -46284.3780
 -----------------------------------------------------------------
 -----------------------------------------------------------------
               TDA Excited-State Multipoles, State  1
 -----------------------------------------------------------------
    Charge (ESU x 10^10)
                -0.0000
    Dipole Moment (Debye)
         X      17.1563      Y       1.8442      Z      10.8617
       Tot      20.3891
    Quadrupole Moments (Debye-Ang)
        XX    -309.7320     XY      13.2113     YY    -451.5433
        XZ      69.5119     YZ      -2.8535     ZZ    -437.1294
    Octopole Moments (Debye-Ang^2)
       XXX     925.1253    XXY      59.0184    XYY     107.3429
       YYY    -439.1287    XXZ     967.5359    XYZ     -38.9276
       YYZ     676.9521    XZZ     124.7823    YZZ    -257.8525
       ZZZ    1990.4956
    Hexadecapole Moments (Debye-Ang^3)
      XXXX  -57464.1014   XXXY    2510.0682   XXYY  -11087.8638
      XYYY    1197.4927   YYYY   -7894.0313   XXXZ   -6173.9317
      XXYZ     412.0281   XYYZ   -2272.9134   YYYZ    1147.3590
      XXZZ  -17581.4967   XYZZ     266.3389   YYZZ  -10322.3897
      XZZZ   -7436.7995   YZZZ    1241.1701   ZZZZ  -48721.8361
 -----------------------------------------------------------------
 -----------------------------------------------------------------
               TDA Excited-State Multipoles, State  2
 -----------------------------------------------------------------
    Charge (ESU x 10^10)
                -0.0000
    Dipole Moment (Debye)
         X      -2.1534      Y       0.2940      Z      -0.5295
       Tot       2.2369
    Quadrupole Moments (Debye-Ang)
        XX    -409.7481     XY      -5.0680     YY    -463.0986
        XZ      -4.3964     YZ       0.0270     ZZ    -394.9025
    Octopole Moments (Debye-Ang^2)
       XXX    -158.4359    XXY     -85.9548    XYY     -29.1740
       YYY    -461.4468    XXZ     505.1551    XYZ     -22.3699
       YYZ     626.2861    XZZ     -20.7018    YZZ    -235.9071
       ZZZ    1570.5081
    Hexadecapole Moments (Debye-Ang^3)
      XXXX  -64543.2419   XXXY     901.0681   XXYY  -11944.4695
      XYYY     868.4750   YYYY   -8054.8613   XXXZ   -9144.9245
      XXYZ     375.0074   XYYZ   -2518.2547   YYYZ    1111.9365
      XXZZ  -17868.6885   XYZZ     388.8673   YYZZ  -10377.8161
      XZZZ   -9568.9007   YZZZ    1496.0861   ZZZZ  -45823.1846
 -----------------------------------------------------------------
Archival summary:
1\1\ctcp043\SP\ProcedureUnspecified\BasisUnspecified\276260(3)\mewes1\TueNov1317:50:482018TueNov1317:50:482018\0\\#,ProcedureUnspecified,BasisUnspecified,\\0,3\C\C,1,1.40503\H,2,1.08521,1,119.07\C,2,1.37251,1,120.859,3,179.909,0\C,4,1.42491,2,120.649,1,-0.181532,0\C,5,1.37269,4,119.47,2,-0.474592,0\H,6,1.08674,5,119.463,4,-179.803,0\C,6,1.41637,5,120.805,4,0.603882,0\C,4,1.45479,2,130.838,1,179.654,0\C,9,1.37213,4,134.878,2,0.339054,0\H,10,1.08321,9,121.753,4,0.180261,0\C,9,1.40886,4,106.297,2,-179.598,0\C,12,1.39101,9,123.812,4,179.702,0\C,12,1.4109,9,111.351,4,-0.073835,0\C,14,1.371,12,117.89,9,179.63,0\H,15,1.08315,14,121.783,12,-179.589,0\C,10,1.41294,9,118.47,4,-179.829,0\H,17,1.08276,10,118.541,9,-179.983,0\C,17,1.37562,10,122.449,9,0.059741,0\H,19,1.08311,17,119.853,10,179.89,0\C,13,1.41448,12,115.893,9,-179.7,0\H,21,1.08314,13,120.093,12,179.921,0\C,21,1.37567,13,119.955,12,0.0789,0\H,23,1.08262,21,118.8,13,179.741,0\B,8,1.52904,6,121.904,5,-179.064,0\C,25,1.52523,8,121.535,6,-177.226,0\C,26,1.4173,25,121.821,8,178.381,0\H,27,1.08664,26,119.802,25,-0.760799,0\C,27,1.37073,26,120.772,25,179.233,0\C,29,1.42657,27,119.597,26,-0.672596,0\C,30,1.37252,29,120.592,27,-0.226522,0\H,31,1.08546,30,120.022,29,-179.24,0\C,31,1.4044,30,120.794,29,0.582732,0\C,30,1.45543,29,108.47,27,-179.937,0\C,34,1.37357,30,135.083,29,-179.788,0\H,35,1.08309,34,121.773,30,-0.166443,0\C,34,1.4091,30,106.245,29,-0.034103,0\C,37,1.3926,34,123.794,30,-179.734,0\C,37,1.41042,34,111.478,30,-0,0\C,39,1.37173,37,117.865,34,-179.709,0\H,40,1.08305,39,121.782,37,179.82,0\C,35,1.41292,34,118.605,30,179.754,0\H,42,1.0828,35,118.525,34,-179.997,0\C,42,1.37556,35,122.455,34,-0.085506,0\H,44,1.08324,42,119.929,35,-179.897,0\C,38,1.41414,37,116.014,34,179.74,0\H,46,1.08329,38,120.081,37,-179.955,0\C,46,1.37559,38,119.908,37,-0.043839,0\H,48,1.08265,46,118.816,38,-179.928,0\B,33,1.53645,31,120.102,30,-178.96,0\C,25,1.57367,8,119.048,6,8.53096,0\C,51,1.4255,25,122.222,8,-104.605,0\C,52,1.37175,51,120.308,25,177.335,0\H,53,1.08289,52,119.893,51,-176.841,0\C,53,1.41362,52,120.359,51,-0.638793,0\N,55,1.36497,53,120.916,52,-177.363,0\C,56,1.41204,55,121.606,53,-27.5716,0\C,57,1.39157,56,119.785,55,136.012,0\H,58,1.08206,57,120.109,56,-0.983921,0\C,58,1.38336,57,119.421,56,179.923,0\H,60,1.08139,58,119.495,57,179.287,0\C,60,1.38852,58,120.375,57,-0.090268,0\H,62,1.08142,60,120.048,58,179.797,0\C,62,1.38756,60,119.929,58,-0.460987,0\H,64,1.08145,62,120.246,60,-179.112,0\C,64,1.38368,62,120.266,60,0.176433,0\H,66,1.08247,64,120.439,62,-178.629,0\C,55,1.41231,53,119.498,52,2.06953,0\H,68,1.08249,55,119.512,53,176.354,0\C,68,1.36952,55,120.809,53,-0.816938,0\C,56,1.41594,55,119.986,53,152.265,0\C,71,1.39059,56,120.006,55,130.277,0\H,72,1.08231,71,120.112,56,-0.197991,0\C,72,1.38401,71,119.353,56,-179.004,0\H,74,1.08147,72,119.527,71,179.077,0\C,74,1.38838,72,120.354,71,-0.208009,0\H,76,1.08149,74,119.995,72,179.707,0\C,76,1.38752,74,119.995,72,-0.297334,0\H,78,1.08142,76,120.273,74,-179.525,0\C,78,1.38375,76,120.182,74,0.209156,0\H,80,1.08249,78,120.399,76,-179.528,0\C,52,1.50259,51,119.904,25,0.367604,0\H,82,1.09168,52,109.379,51,-42.089,0\H,82,1.09277,52,109.302,51,-158.609,0\C,70,1.50429,68,119.121,55,176.248,0\H,85,1.09073,70,109.694,68,141.828,0\H,85,1.09287,70,109.12,68,25.3953,0\C,82,1.52809,52,112.499,51,79.4117,0\H,88,1.089,82,111.478,52,-61.3484,0\H,88,1.0896,82,110.208,52,179.372,0\H,88,1.09076,82,111.375,52,59.5793,0\C,85,1.52904,70,112.506,68,-96.1893,0\H,92,1.08863,85,111.481,70,-61.7845,0\H,92,1.0899,85,110.148,70,178.957,0\H,92,1.09089,85,111.44,70,59.2514,0\C,50,1.5838,33,120.901,31,4.27786,0\C,96,1.40252,50,122.039,33,-84.4118,0\C,97,1.3897,96,120.631,50,-178.499,0\H,98,1.08464,97,119.739,96,-179.653,0\C,98,1.38789,97,120.842,96,1.47609,0\C,100,1.38733,98,118.955,97,-1.77924,0\H,101,1.08476,100,119.523,98,-179.977,0\C,101,1.3889,100,120.811,98,0.200506,0\N,100,1.41337,98,120.217,97,177.037,0\C,104,1.40087,100,120.246,98,139.368,0\C,105,1.39585,104,120.965,100,138.403,0\H,106,1.08215,105,119.858,104,-0.408723,0\C,106,1.38489,105,120.45,104,179.819,0\H,108,1.08258,106,119.18,105,-179.996,0\C,108,1.3866,106,120.738,105,1.04246,0\H,110,1.08179,108,120.539,106,179.462,0\C,110,1.38764,108,118.956,106,-0.391018,0\H,112,1.08251,110,120.017,108,-179.801,0\C,112,1.38421,110,120.778,108,-0.576578,0\H,114,1.08211,112,120.04,110,-179.462,0\C,104,1.40344,100,118.922,98,-49.4467,0\C,116,1.39406,104,120.688,100,-38.096,0\H,117,1.08207,116,119.547,104,-0.081979,0\C,117,1.38487,116,120.328,104,179.862,0\H,119,1.08239,117,119.291,116,-179.971,0\C,119,1.3871,117,120.65,116,0.815055,0\H,121,1.08178,119,120.456,117,179.587,0\C,121,1.38758,119,119.13,117,-0.558266,0\H,123,1.08254,121,120.065,119,-179.411,0\C,123,1.38422,121,120.616,119,-0.351367,0\H,125,1.08252,123,120.069,121,-179.145,0\C,97,1.50599,96,121.297,50,-1.0235,0\H,127,1.09221,97,110.424,96,28.9252,0\H,127,1.09364,97,109.552,96,145.498,0\C,103,1.5069,101,117.931,100,-176.472,0\H,130,1.09225,103,110.418,101,-152.591,0\H,130,1.09368,103,109.642,101,-36.0629,0\C,127,1.52691,97,111.697,96,-93.2526,0\H,133,1.09006,127,110.921,97,60.9628,0\H,133,1.09086,127,111.239,97,-179.075,0\H,133,1.09113,127,111.023,97,-58.8724,0\C,130,1.52698,103,111.734,101,85.3197,0\H,137,1.0901,130,110.927,103,59.7055,0\H,137,1.0911,130,111.15,103,-60.23,0\H,137,1.09119,130,111.144,103,179.7,0\\\@

 Total job time:  23172.27s(wall), 79398.05s(cpu) 
 Tue Nov 13 17:50:48 2018

        *************************************************************
        *                                                           *
        *  Thank you very much for using Q-Chem.  Have a nice day.  *
        *                                                           *
        *************************************************************


0 sent ACK to 0 
now end server 0 ... 
 
*************************************************************
Job 2 of 2 
*************************************************************
 
mFile = /cm/shared/apps/q-chem/intel/QCHEM_5.1.0_Trunk/bin/mpi/machines
Process 0 of 1 is on ctcp043 - thread support 0
initial socket setup ...start
initial socket setup ...done 
now start server 0 ... 
Q-Chem Developer Version!
                  Welcome to Q-Chem
     A Quantum Leap Into The Future Of Chemistry


 Q-Chem 5.1, Q-Chem, Inc., Pleasanton, CA (2018)

 Yihan Shao,  Zhengting Gan,  E. Epifanovsky,  A. T. B. Gilbert,  M. Wormit,  
 J. Kussmann,  A. W. Lange,  A. Behn,  Jia Deng,  Xintian Feng,  D. Ghosh,  
 M. Goldey,  P. R. Horn,  L. D. Jacobson,  I. Kaliman,  T. Kus,  A. Landau,  
 Jie Liu,  E. I. Proynov,  R. M. Richard,  R. P. Steele,  E. J. Sundstrom,  
 H. L. Woodcock III,  P. M. Zimmerman,  D. Zuev,  B. Albrecht,  E. Alguire,  
 S. A. Baeppler,  D. Barton,  Z. Benda,  Y. A. Bernard,  E. J. Berquist,  
 K. B. Bravaya,  H. Burton,  D. Casanova,  Chun-Min Chang,  Yunqing Chen,  
 A. Chien,  K. D. Closser,  M. P. Coons,  S. Coriani,  S. Dasgupta,  
 A. L. Dempwolff,  M. Diedenhofen,  Hainam Do,  R. G. Edgar,  Po-Tung Fang,  
 S. Faraji,  S. Fatehi,  Qingguo Feng,  K. D. Fenk,  J. Fosso-Tande,  
 Qinghui Ge,  A. Ghysels,  G. Gidofalvi,  J. Gomes,  J. Gonthier,  A. Gunina,  
 D. Hait,  M. W. D. Hanson-Heine,  P. H. P. Harbach,  A. W. Hauser,  
 J. E. Herr,  E. G. Hohenstein,  Z. C. Holden,  Kerwin Hui,  B. C. Huynh,  
 T.-C. Jagau,  Hyunjun Ji,  B. Kaduk,  K. Khistyaev,  Jaehoon Kim,  
 P. Klunzinger,  K. Koh,  D. Kosenkov,  L. Koulias,  T. Kowalczyk,  
 C. M. Krauter,  A. Kunitsa,  Ka Un Lao,  A. Laurent,  K. V. Lawler,  
 Joonho Lee,  D. Lefrancois,  S. Lehtola,  D. S. Levine,  Yi-Pei Li,  
 You-Sheng Lin,  Fenglai Liu,  E. Livshits,  A. Luenser,  P. Manohar,  
 E. Mansoor,  S. F. Manzer,  Shan-Ping Mao,  Yuezhi Mao,  N. Mardirossian,  
 A. V. Marenich,  T. Markovich,  L. A. Martinez-Martinez,  S. A. Maurer,  
 N. J. Mayhall,  S. C. McKenzie,  J.-M. Mewes,  A. F. Morrison,  
 J. W. Mullinax,  K. Nanda,  T. S. Nguyen-Beck,  R. Olivares-Amaya,  
 J. A. Parkhill,  T. M. Perrine,  F. Plasser,  P. Pokhilko,  S. Prager,  
 A. Prociuk,  E. Ramos,  D. R. Rehn,  F. Rob,  M. Schneider,  N. Sergueev,  
 S. M. Sharada,  S. Sharma,  D. W. Small,  T. Stauch,  T. Stein,  
 Yu-Chuan Su,  A. J. W. Thom,  A. Tkatchenko,  T. Tsuchimochi,  N. M. Tubman,  
 L. Vogt,  M. L. Vidal,  O. Vydrov,  M. A. Watson,  J. Wenzel,  
 M. de Wergifosse,  T. A. Wesolowski,  A. White,  J. Witte,  A. Yamada,  
 Jun Yang,  K. Yao,  S. Yeganeh,  S. R. Yost,  Zhi-Qiang You,  A. Zech,  
 Igor Ying Zhang,  Xing Zhang,  Yan Zhao,  Ying Zhu,  B. R. Brooks,  
 G. K. L. Chan,  C. J. Cramer,  M. S. Gordon,  W. J. Hehre,  A. Klamt,  
 M. W. Schmidt,  C. D. Sherrill,  D. G. Truhlar,  A. Aspuru-Guzik,  R. Baer,  
 A. T. Bell,  N. A. Besley,  Jeng-Da Chai,  A. E. DePrince, III,  
 R. A. DiStasio Jr.,  A. Dreuw,  B. D. Dunietz,  T. R. Furlani,  
 Chao-Ping Hsu,  Yousung Jung,  Jing Kong,  D. S. Lambrecht,  WanZhen Liang,  
 C. Ochsenfeld,  V. A. Rassolov,  L. V. Slipchenko,  J. E. Subotnik,  
 T. Van Voorhis,  J. M. Herbert,  A. I. Krylov,  P. M. W. Gill,  M. Head-Gordon

 Contributors to earlier versions of Q-Chem not listed above: 
 R. D. Adamson,  B. Austin,  J. Baker,  G. J. O. Beran,  K. Brandhorst,  
 S. T. Brown,  E. F. C. Byrd,  A. K. Chakraborty,  C.-L. Cheng,  
 Siu Hung Chien,  D. M. Chipman,  D. L. Crittenden,  H. Dachsel,  
 R. J. Doerksen,  A. D. Dutoi,  L. Fusti-Molnar,  W. A. Goddard III,  
 A. Golubeva-Zadorozhnaya,  S. R. Gwaltney,  G. Hawkins,  A. Heyden,  
 S. Hirata,  G. Kedziora,  F. J. Keil,  C. Kelley,  Jihan Kim,  R. A. King,  
 R. Z. Khaliullin,  P. P. Korambath,  W. Kurlancheek,  A. M. Lee,  M. S. Lee,  
 S. V. Levchenko,  Ching Yeh Lin,  D. Liotard,  R. C. Lochan,  I. Lotan,  
 P. E. Maslen,  N. Nair,  D. P. O'Neill,  D. Neuhauser,  E. Neuscamman,  
 C. M. Oana,  R. Olson,  B. Peters,  R. Peverati,  P. A. Pieniazek,  
 Y. M. Rhee,  J. Ritchie,  M. A. Rohrdanz,  E. Rosta,  N. J. Russ,  
 H. F. Schaefer III,  N. E. Schultz,  N. Shenvi,  A. C. Simmonett,  A. Sodt,  
 D. Stuck,  K. S. Thanthiriwatte,  V. Vanovschi,  Tao Wang,  A. Warshel,  
 C. F. Williams,  Q. Wu,  X. Xu,  W. Zhang

 Please cite Q-Chem as follows:
 Y. Shao et al., Mol. Phys. 113, 184-215 (2015)
 DOI: 10.1080/00268976.2014.952696

 Q-Chem 5.1.1 for Intel X86 EM64T Linux

 Parts of Q-Chem use Armadillo 8.300.2 (Tropical Shenanigans).
 http://arma.sourceforge.net/

 Q-Chem begins on Tue Nov 13 17:50:51 2018  

Host: ctcp043
0

     Scratch files written to /scratch/mewes1/140204/qchem27132//
 Parallel job on  1  processors
The previous job contains 0 fragments, simply inherited here
Symmetry turned off for PCM/SM12/SMD calculation
Input Ideriv = 2
Curr. Ideriv = -1
Max.  Ideriv = 2
Input Ideriv = 1
Curr. Ideriv = 2
Max.  Ideriv = 1

Checking the input file for inconsistencies... 	...done.

--------------------------------------------------------------
User input:
--------------------------------------------------------------
$rem
threads 8
jobtype sp
method PBEh-3c
basis def2-mSVP
mem_static      1024
mem_total       14000
sym_ignore      true
cis_n_roots             6
cis_singlets            true
cis_triplets            true
rpa                     false
calc_soc                true
cis_moments             true
cis_relaxed_density     true
solvent_method          pcm
$end

$molecule
read
$end

$pcm
statespecific           Marcus 
$end

$solvent
dielectric      1.0001 
dielectric_infi 1.00009
$end

--------------------------------------------------------------
 Adding empirical dispersion correction 
 ----------------------------------------------------------------
 Doing -D3(BJ) with
 s6 =   1.00000
 s8 =   0.00000
 a1 =   0.48600
 a2 =   4.50000
 -D3 energy including 3body term =     -0.1349703843 hartrees
 ----------------------------------------------------------------
 Adding gCP correction 
 ----------------------------------------------------------------
 gCP energy =      0.1920778014 hartrees
 ----------------------------------------------------------------
             Standard Nuclear Orientation (Angstroms)
    I     Atom           X                Y                Z
 ----------------------------------------------------------------
    1      C       0.0000000000     0.0000000000     0.0000000000
    2      C       0.0000000000     0.0000000000     1.4050340000
    3      H       0.9485016003     0.0000000000     1.9323193110
    4      C      -1.1782009195     0.0018687289     2.1090349313
    5      C      -2.4305233235     0.0077389336     1.4293166474
    6      C      -2.4539470621     0.0214459795     0.0568899615
    7      H      -3.4091148098     0.0291744738    -0.4613646134
    8      C      -1.2500197825     0.0169757334    -0.6891990177
    9      C      -1.4303099063    -0.0043806494     3.5418000719
   10      C      -0.6404983965    -0.0081459173     4.6638143792
   11      H       0.4408113733    -0.0037454643     4.5997983295
   12      C      -2.8306117836    -0.0081212216     3.6968161291
   13      C      -3.4727650763    -0.0204595237     4.9306667639
   14      C      -3.4857679123    -0.0029305059     2.4472610255
   15      C      -4.8567109581    -0.0135925185     2.4418966284
   16      H      -5.4235901878    -0.0170048042     1.5189404802
   17      C      -1.2684672025    -0.0178293073     5.9295036507
   18      H      -0.6463288501    -0.0205323415     6.8156821193
   19      C      -2.6363848149    -0.0247884179     6.0747142288
   20      H      -3.0733155726    -0.0339228216     7.0657471137
   21      C      -4.8866629665    -0.0291071591     4.8910942112
   22      H      -5.4557039438    -0.0401840269     5.8126506454
   23      C      -5.5399711685    -0.0267330895     3.6804570022
   24      H      -6.6225037304    -0.0377555961     3.6719627883
   25      B      -1.2464823644     0.0531593597    -2.2178057348
   26      C       0.0524445439    -0.0148053576    -3.0143488816
   27      C       0.0607674415    -0.0157078851    -4.4316271566
   28      H      -0.8782710897     0.0205178811    -4.9772344698
   29      C       1.2417351734    -0.0617076521    -5.1259692455
   30      C       2.4771748310    -0.0946680067    -4.4134434427
   31      C       2.4927766611    -0.0760457783    -3.0411414676
   32      H       3.4385033730    -0.0889835119    -2.5085489010
   33      C       1.2949985665    -0.0364962739    -2.3089529509
   34      C       3.5652984412    -0.1389674757    -5.3789993137
   35      C       4.9357118572    -0.1859245343    -5.2986118577
   36      H       5.4511677676    -0.1946248392    -4.3460818281
   37      C       2.9625994541    -0.1325698593    -6.6526852293
   38      C       3.6765757893    -0.1726409472    -7.8476643991
   39      C       1.5560869407    -0.0868791262    -6.5582272815
   40      C       0.8349770605    -0.0817986109    -7.7251064303
   41      H      -0.2476208287    -0.0506438367    -7.7265187126
   42      C       5.6826885689    -0.2253195818    -6.4972859480
   43      H       6.7629091996    -0.2623598572    -6.4324059625
   44      C       5.0884709212    -0.2200838239    -7.7378711087
   45      H       5.7010233716    -0.2530089866    -8.6306720351
   46      C       2.9041922135    -0.1648360567    -9.0322150699
   47      H       3.3922440778    -0.1951196633    -9.9988671986
   48      C       1.5314447999    -0.1205721831    -8.9556556187
   49      H       0.9574623392    -0.1164978798    -9.8736152563
   50      B       1.3315062342     0.0080093526    -0.7735776438
   51      C      -2.6012236871     0.3003298529    -2.9793961526
   52      C      -3.3036724294    -0.7489500182    -3.6409219364
   53      C      -4.5091274298    -0.5005421977    -4.2466197647
   54      H      -5.0614303833    -1.3126693012    -4.7027457763
   55      C      -5.0737637033     0.7948934857    -4.2096727451
   56      N      -6.2970991334     1.0427214765    -4.7620965710
   57      C      -6.7924795948     0.2744008450    -5.8382611007
   58      C      -8.1149886597    -0.1584143650    -5.8274823502
   59      H      -8.7571643974     0.0794551484    -4.9896930470
   60      C      -8.5928769210    -0.9093527271    -6.8864463766
   61      H      -9.6170788651    -1.2561289875    -6.8738458896
   62      C      -7.7622917653    -1.2278714584    -7.9525950602
   63      H      -8.1404531181    -1.8179969837    -8.7761358289
   64      C      -6.4478017987    -0.7836371765    -7.9628850769
   65      H      -5.8005803257    -1.0165794414    -8.7973780556
   66      C      -5.9591798284    -0.0268376814    -6.9126094123
   67      H      -4.9408182365     0.3398184892    -6.9280978550
   68      C      -4.3668038667     1.8439835816    -3.5817850597
   69      H      -4.7708440584     2.8479726123    -3.6049292772
   70      C      -3.1503570367     1.6172863863    -2.9948883201
   71      C      -7.1039939464     2.0895446937    -4.2541938595
   72      C      -7.6633958976     3.0203886779    -5.1227274553
   73      H      -7.4805911551     2.9483305747    -6.1870481297
   74      C      -8.4328403825     4.0500997434    -4.6097723750
   75      H      -8.8568267107     4.7841680848    -5.2813021947
   76      C      -8.6481152215     4.1508399960    -3.2418902105
   77      H      -9.2464306050     4.9605546407    -2.8469281524
   78      C      -8.0956853841     3.2126099227    -2.3818051829
   79      H      -8.2668337427     3.2823772711    -1.3162949129
   80      C      -7.3260656340     2.1775548681    -2.8829200117
   81      H      -6.8997001576     1.4393196190    -2.2158324630
   82      C      -2.7561436015    -2.1480389048    -3.6173803977
   83      H      -1.6762904824    -2.1171285606    -3.7746355967
   84      H      -3.1791565883    -2.7155199409    -4.4499509624
   85      C      -2.3912061750     2.7777364414    -2.4118522713
   86      H      -1.8986056674     2.4683934853    -1.4891729857
   87      H      -3.0968450949     3.5666104629    -2.1396131410
   88      C      -3.0514374939    -2.8694978102    -2.3030894599
   89      H      -2.5952916543    -2.3584904058    -1.4564917031
   90      H      -2.6486900187    -3.8815625520    -2.3305508350
   91      H      -4.1245057621    -2.9394263696    -2.1203610154
   92      C      -1.3492285940     3.3406958568    -3.3789762835
   93      H      -0.5946273660     2.5969823139    -3.6291584948
   94      H      -0.8361351007     4.1888722643    -2.9259709205
   95      H      -1.8101911572     3.6842032681    -4.3060969888
   96      C       2.7070322535     0.1115302347     0.0046493183
   97      C       3.4806305373    -1.0199194185     0.3020065327
   98      C       4.6681130547    -0.8986773435     1.0136548881
   99      H       5.2579148974    -1.7826633987     1.2307720506
  100      C       5.0998269421     0.3381599557     1.4720194187
  101      C       4.3453327053     1.4644413346     1.1771995069
  102      H       4.6744109725     2.4358141798     1.5305358158
  103      C       3.1732674110     1.3623375098     0.4390483870
  104      N       6.2769855208     0.4379290363     2.2478847731
  105      C       7.1746792470     1.4922529397     2.0357578151
  106      C       7.7735643590     2.1526778733     3.1098080555
  107      H       7.5398939220     1.8546534436     4.1235280310
  108      C       8.6624007967     3.1912231835     2.8877410886
  109      H       9.1149977902     3.6890632427     3.7358537129
  110      C       8.9573794269     3.6081741115     1.5986321465
  111      H       9.6455524154     4.4254718110     1.4291987221
  112      C       8.3535303486     2.9625471895     0.5290194188
  113      H       8.5739187655     3.2718946858    -0.4846674028
  114      C       7.4789236462     1.9103897188     0.7389494880
  115      H       7.0214349342     1.4097613694    -0.1042834067
  116      C       6.4389851105    -0.4176322989     3.3485276618
  117      C       5.3539578641    -0.7468086410     4.1595598723
  118      H       4.3777306216    -0.3363517617     3.9373366282
  119      C       5.5217136468    -1.5940569003     5.2420962422
  120      H       4.6676493924    -1.8388035914     5.8603494986
  121      C       6.7712265924    -2.1139492128     5.5461854456
  122      H       6.8999412309    -2.7701982548     6.3964911957
  123      C       7.8538262399    -1.7837026608     4.7435099667
  124      H       8.8339175595    -2.1884934521     4.9613343148
  125      C       7.6919563718    -0.9525764024     3.6484805021
  126      H       8.5400008302    -0.7118138040     3.0202296062
  127      C       3.0269193532    -2.4021755797    -0.0872452293
  128      H       2.4032730811    -2.3605062374    -0.9829266035
  129      H       3.8958337308    -3.0122830044    -0.3495526526
  130      C       2.4475856347     2.6352526156     0.0871453149
  131      H       1.3795324347     2.4431687569    -0.0368819769
  132      H       2.5333742920     3.3475694554     0.9125967257
  133      C       2.2553346577    -3.0818245039     1.0415570800
  134      H       1.3591890734    -2.5158901513     1.2962744219
  135      H       1.9444406954    -4.0881679467     0.7576673850
  136      H       2.8670368393    -3.1607500447     1.9416485231
  137      C       3.0021056668     3.2685430864    -1.1868750130
  138      H       2.9087633834     2.5873404210    -2.0327914968
  139      H       4.0582307087     3.5185909058    -1.0747553029
  140      H       2.4666254073     4.1862154296    -1.4355569540
 ----------------------------------------------------------------
 Nuclear Repulsion Energy = 12145.1726856125 hartrees
 There are      271 alpha and      269 beta electrons
 Requested basis set is def2-mSVP
 There are 680 shells and 1320 basis functions

 Total QAlloc Memory Limit  14000 MB
 Mega-Array Size      1001 MB
 MEM_STATIC part      1024 MB
 Discretize the solute cavity surface with Lebedev spheres
	Using 302 Lebedev grid points for each H atom
	Using 302 Lebedev grid points for other atoms
	Atomic van der Waals radii will be scaled by 1.20
 Remove points where switching function is < 1.0e-08
 Keep 14626 surface tesserae and discard 27654 interior tesserae
 Molecular Surface Area = 1075.977 Angst**2
 A cutoff of  1.0D-11 yielded  62924 shell pairs
 There are    244164 function pairs (    268444 Cartesian)
 
 -------------------------------------------------------
 OpenMP Integral Computing Module                       
 Release: version 1.0, May 2013, Q-Chem Inc. Pittsburgh 
 -------------------------------------------------------
 Integral Job Info:
 Integral job number is                      11
 Integral operator is                         1
 short-range coefficients                     0
 long-range coefficients              100000000
 Omega coefficients                           0
 if combine SR and LR in K                    0
 Integral screening is                        0
 Integral computing path is                   2
 max size of driver memory is            800000
 size of driver memory is                593474
 size of scratch memory is              1809772
 max col of scratch BK array               1296
 max len of scratch array in speh3          155
 max len of scratch index in speh4           18
 max int batch size is                      520
 min int batch size is                       52
 fixed nKL is                                52
 max L of basis functions is                  2
 order of int derivative is                   0
 number of shells is                        680
 number of basis is                        1400
 number of cartesian basis is              1400
 number of contracted shell pairs         62924
 number of primitive shell pairs         129878
 maxK2 (contraction) of shell pair           25
 max number of K2 of shell pair               1
 max number of CS2 of shell pair          15585
 max number of PS2 of shell pair          22790
 mem total for path MDJ                 1128524
 -------------------------------------------------------
 Smallest overlap matrix eigenvalue = 1.95E-04

 Scale SEOQF with 1.000000e-02/1.000000e-01/1.000000e-02

 Standard Electronic Orientation quadrupole field applied
 Nucleus-field energy     =     0.0000000492 hartrees
 Guess from superposition of atomic densities
 Warning:  Energy on first SCF cycle will be non-variational
 SAD guess density has 540.000001 electrons

 -----------------------------------------------------------------------
  General SCF calculation program by
  Eric Jon Sundstrom, Paul Horn, Yuezhi Mao, Dmitri Zuev, Alec White,
  David Stuck, Shaama M.S., Shane Yost, Joonho Lee, David Small,
  Daniel Levine, Susi Lehtola, Hugh Burton, Evgeny Epifanovsky
 -----------------------------------------------------------------------
 Exchange:     0.4200 Hartree-Fock + 0.5800 PBEh-3c
 Correlation:  1.0000 PBEh-3c
 Using SG-1 standard quadrature grid
 Dispersion:   Grimme D3
 using 8 threads for integral computing
 -------------------------------------------------------
 OpenMP Integral computing Module                
 Release: version 2.0, May 2017, Q-Chem Inc. Pleasanton 
 -------------------------------------------------------
 -------------------------------------------------------
 OpenMP BLAS3 based DFT computing Module                
 Release: version 1.0, May 2013, Q-Chem Inc. Pittsburgh 
 -------------------------------------------------------
 A unrestricted SCF calculation will be
 performed using DIIS
 SCF converges when DIIS error is below 1.0e-08
 ---------------------------------------
  Cycle       Energy         DIIS error
 ---------------------------------------
    1   -3111.2213737398      1.17e-02  
    2               -nan          -nan  
solve(c,A,vect) failed Check on this
The B Matrix
           0.  -1.0000e+00  -1.0000e+00  -1.0000e+00
  -1.0000e+00   4.8083e+02          nan          nan
  -1.0000e+00          nan          nan          nan
  -1.0000e+00          nan          nan          nan
    3               -nan     1.80e+308  
    4               -nan           nan  
    5               -nan           nan  
solve(c,A,vect) failed Check on this
The B Matrix
       0.  -1.0000  -1.0000  -1.0000
  -1.0000      nan      nan      nan
  -1.0000      nan      nan      nan
  -1.0000      nan      nan      nan
    6               -nan     1.80e+308  
    7               -nan           nan  
    8               -nan           nan  
solve(c,A,vect) failed Check on this
The B Matrix
       0.  -1.0000  -1.0000  -1.0000
  -1.0000      nan      nan      nan
  -1.0000      nan      nan      nan
  -1.0000      nan      nan      nan
    9               -nan     1.80e+308  
   10               -nan           nan  
   11               -nan           nan  
solve(c,A,vect) failed Check on this
The B Matrix
       0.  -1.0000  -1.0000  -1.0000
  -1.0000      nan      nan      nan
  -1.0000      nan      nan      nan
  -1.0000      nan      nan      nan
   12               -nan     1.80e+308  
   13               -nan           nan  
   14               -nan           nan  
solve(c,A,vect) failed Check on this
The B Matrix
       0.  -1.0000  -1.0000  -1.0000
  -1.0000      nan      nan      nan
  -1.0000      nan      nan      nan
  -1.0000      nan      nan      nan
   15               -nan     1.80e+308  
   16               -nan           nan  
   17               -nan           nan  
solve(c,A,vect) failed Check on this
The B Matrix
       0.  -1.0000  -1.0000  -1.0000
  -1.0000      nan      nan      nan
  -1.0000      nan      nan      nan
  -1.0000      nan      nan      nan
   18               -nan     1.80e+308  
   19               -nan           nan  
   20               -nan           nan  
solve(c,A,vect) failed Check on this
The B Matrix
       0.  -1.0000  -1.0000  -1.0000
  -1.0000      nan      nan      nan
  -1.0000      nan      nan      nan
  -1.0000      nan      nan      nan
   21               -nan     1.80e+308  
   22               -nan           nan  
   23               -nan           nan  
solve(c,A,vect) failed Check on this
The B Matrix
       0.  -1.0000  -1.0000  -1.0000
  -1.0000      nan      nan      nan
  -1.0000      nan      nan      nan
  -1.0000      nan      nan      nan
   24               -nan     1.80e+308  
   25               -nan           nan  
   26               -nan           nan  
solve(c,A,vect) failed Check on this
The B Matrix
       0.  -1.0000  -1.0000  -1.0000
  -1.0000      nan      nan      nan
  -1.0000      nan      nan      nan
  -1.0000      nan      nan      nan
   27               -nan     1.80e+308  
   28               -nan           nan  
   29               -nan           nan  
solve(c,A,vect) failed Check on this
The B Matrix
       0.  -1.0000  -1.0000  -1.0000
  -1.0000      nan      nan      nan
  -1.0000      nan      nan      nan
  -1.0000      nan      nan      nan
   30               -nan     1.80e+308  
   31               -nan           nan  
   32               -nan           nan  
solve(c,A,vect) failed Check on this
The B Matrix
       0.  -1.0000  -1.0000  -1.0000
  -1.0000      nan      nan      nan
  -1.0000      nan      nan      nan
  -1.0000      nan      nan      nan
   33               -nan     1.80e+308  
   34               -nan           nan  
   35               -nan           nan  
solve(c,A,vect) failed Check on this
The B Matrix
       0.  -1.0000  -1.0000  -1.0000
  -1.0000      nan      nan      nan
  -1.0000      nan      nan      nan
  -1.0000      nan      nan      nan
   36               -nan     1.80e+308  
   37               -nan           nan  
   38               -nan           nan  
solve(c,A,vect) failed Check on this
The B Matrix
       0.  -1.0000  -1.0000  -1.0000
  -1.0000      nan      nan      nan
  -1.0000      nan      nan      nan
  -1.0000      nan      nan      nan
   39               -nan     1.80e+308  
   40               -nan           nan  
   41               -nan           nan  
solve(c,A,vect) failed Check on this
The B Matrix
       0.  -1.0000  -1.0000  -1.0000
  -1.0000      nan      nan      nan
  -1.0000      nan      nan      nan
  -1.0000      nan      nan      nan
   42               -nan     1.80e+308  
   43               -nan           nan  
   44               -nan           nan  
solve(c,A,vect) failed Check on this
The B Matrix
       0.  -1.0000  -1.0000  -1.0000
  -1.0000      nan      nan      nan
  -1.0000      nan      nan      nan
  -1.0000      nan      nan      nan
   45               -nan     1.80e+308  
   46               -nan           nan  
   47               -nan           nan  
solve(c,A,vect) failed Check on this
The B Matrix
       0.  -1.0000  -1.0000  -1.0000
  -1.0000      nan      nan      nan
  -1.0000      nan      nan      nan
  -1.0000      nan      nan      nan
   48               -nan     1.80e+308  
   49               -nan           nan  
   50               -nan           nan  
gen_scfman_exception: eig_sym(): decomposition failed

 Q-Chem fatal error occurred in module libgscf/gen_scfman/gen_scfman_main.C, line 144:

 Error in gen_scfman


 Please submit a crash report at q-chem.com/reporter 
 
 
[ctcp043:15025] *** Process received signal ***
[ctcp043:15025] Signal: Aborted (6)
[ctcp043:15025] Signal code:  (-6)
[ctcp043:15025] [ 0] /lib64/libpthread.so.0(+0xf100)[0x2aaaaaee2100]
[ctcp043:15025] [ 1] /lib64/libc.so.6(gsignal+0x37)[0x2aaaac37e5f7]
[ctcp043:15025] [ 2] /lib64/libc.so.6(abort+0x148)[0x2aaaac37fce8]
[ctcp043:15025] [ 3] /cm/shared/apps/q-chem/intel/QCHEM_5.1.0_Trunk/exe/qcprog.exe[0x10a2c76b]
[ctcp043:15025] [ 4] /cm/shared/apps/q-chem/intel/QCHEM_5.1.0_Trunk/exe/qcprog.exe[0xab5521]
[ctcp043:15025] [ 5] /cm/shared/apps/q-chem/intel/QCHEM_5.1.0_Trunk/exe/qcprog.exe[0x43fe3d]
[ctcp043:15025] [ 6] /cm/shared/apps/q-chem/intel/QCHEM_5.1.0_Trunk/exe/qcprog.exe[0x43d36e]
[ctcp043:15025] [ 7] /cm/shared/apps/q-chem/intel/QCHEM_5.1.0_Trunk/exe/qcprog.exe[0x43c2b0]
[ctcp043:15025] [ 8] /lib64/libc.so.6(__libc_start_main+0xf5)[0x2aaaac36ab15]
[ctcp043:15025] [ 9] /cm/shared/apps/q-chem/intel/QCHEM_5.1.0_Trunk/exe/qcprog.exe[0x416029]
[ctcp043:15025] *** End of error message ***
