mFile = /cm/shared/apps/q-chem/intel/QCHEM_5.1.0_Trunk/bin/mpi/machines
Process 0 of 1 is on ctcp007 - thread support 0
initial socket setup ...start
initial socket setup ...done 
now start server 0 ... 
Q-Chem Developer Version!
                  Welcome to Q-Chem
     A Quantum Leap Into The Future Of Chemistry


 Q-Chem 5.1, Q-Chem, Inc., Pleasanton, CA (2018)

 Yihan Shao,  Zhengting Gan,  E. Epifanovsky,  A. T. B. Gilbert,  M. Wormit,  
 J. Kussmann,  A. W. Lange,  A. Behn,  Jia Deng,  Xintian Feng,  D. Ghosh,  
 M. Goldey,  P. R. Horn,  L. D. Jacobson,  I. Kaliman,  T. Kus,  A. Landau,  
 Jie Liu,  E. I. Proynov,  R. M. Richard,  R. P. Steele,  E. J. Sundstrom,  
 H. L. Woodcock III,  P. M. Zimmerman,  D. Zuev,  B. Albrecht,  E. Alguire,  
 S. A. Baeppler,  D. Barton,  Z. Benda,  Y. A. Bernard,  E. J. Berquist,  
 K. B. Bravaya,  H. Burton,  D. Casanova,  Chun-Min Chang,  Yunqing Chen,  
 A. Chien,  K. D. Closser,  M. P. Coons,  S. Coriani,  S. Dasgupta,  
 A. L. Dempwolff,  M. Diedenhofen,  Hainam Do,  R. G. Edgar,  Po-Tung Fang,  
 S. Faraji,  S. Fatehi,  Qingguo Feng,  K. D. Fenk,  J. Fosso-Tande,  
 Qinghui Ge,  A. Ghysels,  G. Gidofalvi,  J. Gomes,  J. Gonthier,  A. Gunina,  
 D. Hait,  M. W. D. Hanson-Heine,  P. H. P. Harbach,  A. W. Hauser,  
 J. E. Herr,  E. G. Hohenstein,  Z. C. Holden,  Kerwin Hui,  B. C. Huynh,  
 T.-C. Jagau,  Hyunjun Ji,  B. Kaduk,  K. Khistyaev,  Jaehoon Kim,  
 P. Klunzinger,  K. Koh,  D. Kosenkov,  L. Koulias,  T. Kowalczyk,  
 C. M. Krauter,  A. Kunitsa,  Ka Un Lao,  A. Laurent,  K. V. Lawler,  
 Joonho Lee,  D. Lefrancois,  S. Lehtola,  D. S. Levine,  Yi-Pei Li,  
 You-Sheng Lin,  Fenglai Liu,  E. Livshits,  A. Luenser,  P. Manohar,  
 E. Mansoor,  S. F. Manzer,  Shan-Ping Mao,  Yuezhi Mao,  N. Mardirossian,  
 A. V. Marenich,  T. Markovich,  L. A. Martinez-Martinez,  S. A. Maurer,  
 N. J. Mayhall,  S. C. McKenzie,  J.-M. Mewes,  A. F. Morrison,  
 J. W. Mullinax,  K. Nanda,  T. S. Nguyen-Beck,  R. Olivares-Amaya,  
 J. A. Parkhill,  T. M. Perrine,  F. Plasser,  P. Pokhilko,  S. Prager,  
 A. Prociuk,  E. Ramos,  D. R. Rehn,  F. Rob,  M. Schneider,  N. Sergueev,  
 S. M. Sharada,  S. Sharma,  D. W. Small,  T. Stauch,  T. Stein,  
 Yu-Chuan Su,  A. J. W. Thom,  A. Tkatchenko,  T. Tsuchimochi,  N. M. Tubman,  
 L. Vogt,  M. L. Vidal,  O. Vydrov,  M. A. Watson,  J. Wenzel,  
 M. de Wergifosse,  T. A. Wesolowski,  A. White,  J. Witte,  A. Yamada,  
 Jun Yang,  K. Yao,  S. Yeganeh,  S. R. Yost,  Zhi-Qiang You,  A. Zech,  
 Igor Ying Zhang,  Xing Zhang,  Yan Zhao,  Ying Zhu,  B. R. Brooks,  
 G. K. L. Chan,  C. J. Cramer,  M. S. Gordon,  W. J. Hehre,  A. Klamt,  
 M. W. Schmidt,  C. D. Sherrill,  D. G. Truhlar,  A. Aspuru-Guzik,  R. Baer,  
 A. T. Bell,  N. A. Besley,  Jeng-Da Chai,  A. E. DePrince, III,  
 R. A. DiStasio Jr.,  A. Dreuw,  B. D. Dunietz,  T. R. Furlani,  
 Chao-Ping Hsu,  Yousung Jung,  Jing Kong,  D. S. Lambrecht,  WanZhen Liang,  
 C. Ochsenfeld,  V. A. Rassolov,  L. V. Slipchenko,  J. E. Subotnik,  
 T. Van Voorhis,  J. M. Herbert,  A. I. Krylov,  P. M. W. Gill,  M. Head-Gordon

 Contributors to earlier versions of Q-Chem not listed above: 
 R. D. Adamson,  B. Austin,  J. Baker,  G. J. O. Beran,  K. Brandhorst,  
 S. T. Brown,  E. F. C. Byrd,  A. K. Chakraborty,  C.-L. Cheng,  
 Siu Hung Chien,  D. M. Chipman,  D. L. Crittenden,  H. Dachsel,  
 R. J. Doerksen,  A. D. Dutoi,  L. Fusti-Molnar,  W. A. Goddard III,  
 A. Golubeva-Zadorozhnaya,  S. R. Gwaltney,  G. Hawkins,  A. Heyden,  
 S. Hirata,  G. Kedziora,  F. J. Keil,  C. Kelley,  Jihan Kim,  R. A. King,  
 R. Z. Khaliullin,  P. P. Korambath,  W. Kurlancheek,  A. M. Lee,  M. S. Lee,  
 S. V. Levchenko,  Ching Yeh Lin,  D. Liotard,  R. C. Lochan,  I. Lotan,  
 P. E. Maslen,  N. Nair,  D. P. O'Neill,  D. Neuhauser,  E. Neuscamman,  
 C. M. Oana,  R. Olson,  B. Peters,  R. Peverati,  P. A. Pieniazek,  
 Y. M. Rhee,  J. Ritchie,  M. A. Rohrdanz,  E. Rosta,  N. J. Russ,  
 H. F. Schaefer III,  N. E. Schultz,  N. Shenvi,  A. C. Simmonett,  A. Sodt,  
 D. Stuck,  K. S. Thanthiriwatte,  V. Vanovschi,  Tao Wang,  A. Warshel,  
 C. F. Williams,  Q. Wu,  X. Xu,  W. Zhang

 Please cite Q-Chem as follows:
 Y. Shao et al., Mol. Phys. 113, 184-215 (2015)
 DOI: 10.1080/00268976.2014.952696

 Q-Chem 5.1.1 for Intel X86 EM64T Linux

 Parts of Q-Chem use Armadillo 8.300.2 (Tropical Shenanigans).
 http://arma.sourceforge.net/

 Q-Chem begins on Sun Nov  4 10:11:01 2018  

Host: ctcp007
0

     Scratch files written to /scratch/mewes/139534/qchem63964//
 Parallel job on  1  processors
The previous job contains 0 fragments, simply inherited here
Symmetry turned off for PCM/SM12/SMD calculation
Input Ideriv = 2
Curr. Ideriv = -1
Max.  Ideriv = 2
Input Ideriv = 1
Curr. Ideriv = 2
Max.  Ideriv = 1

Checking the input file for inconsistencies... 	...done.

--------------------------------------------------------------
User input:
--------------------------------------------------------------
$solvent
dielectric      4.33
dielectric_infi 1.83
$end

$rem
threads 8
jobtype	sp
method PBEh-3c
basis def2-mSVP
mem_static	1024
mem_total	14000
sym_ignore	true
cis_n_roots             2
cis_singlets            false
cis_triplets		true 
rpa                     false
calc_soc 		true
cis_moments             true
cis_relaxed_density	true
solvent_method		pcm
$end

$pcm
StateSpecific   1
ChargeSeparation Excited
$end


$molecule
read ut1opt_eth.mol
$end


--------------------------------------------------------------
 Adding empirical dispersion correction 
 ----------------------------------------------------------------
 Doing -D3(BJ) with
 s6 =   1.00000
 s8 =   0.00000
 a1 =   0.48600
 a2 =   4.50000
 -D3 energy including 3body term =     -0.1346483071 hartrees
 ----------------------------------------------------------------
 Adding gCP correction 
 ----------------------------------------------------------------
 gCP energy =      0.1915715584 hartrees
 ----------------------------------------------------------------
             Standard Nuclear Orientation (Angstroms)
    I     Atom           X                Y                Z
 ----------------------------------------------------------------
    1      C       0.0000000000     0.0000000000     0.0000000000
    2      C       0.0000000000     0.0000000000     1.4066170000
    3      H       0.9467958689     0.0000000000     1.9372515810
    4      C      -1.1780613778    -0.0026765598     2.1111625341
    5      C      -2.4322616396     0.0036298471     1.4312019900
    6      C      -2.4556932880     0.0185441975     0.0572977232
    7      H      -3.4100505996     0.0298733655    -0.4612452670
    8      C      -1.2528053487     0.0121858400    -0.6896676270
    9      C      -1.4290832607    -0.0160180494     3.5445807337
   10      C      -0.6374507678    -0.0257931594     4.6670409728
   11      H       0.4441577084    -0.0206641225     4.6032688773
   12      C      -2.8301036718    -0.0223652035     3.6993465489
   13      C      -3.4720608610    -0.0427688849     4.9343037016
   14      C      -3.4866450441    -0.0112072509     2.4493953197
   15      C      -4.8590670979    -0.0227219863     2.4442506708
   16      H      -5.4273872707    -0.0195158789     1.5221697877
   17      C      -1.2656971699    -0.0434994450     5.9332737910
   18      H      -0.6432276299    -0.0510637179     6.8193577022
   19      C      -2.6350150568    -0.0529922326     6.0788293680
   20      H      -3.0721438800    -0.0685809034     7.0698594443
   21      C      -5.5410472895    -0.0435748659     3.6844682190
   22      H      -6.6236058464    -0.0544109804     3.6757365777
   23      C      -4.8871176022    -0.0530306320     4.8961286029
   24      H      -5.4554427444    -0.0700356788     5.8181421207
   25      B      -1.2591057590     0.0423463493    -2.2209086642
   26      C       0.0481624726    -0.0255611113    -3.0105808591
   27      C       0.0527363175    -0.0512147379    -4.4260110129
   28      H      -0.8886819177    -0.0297177406    -4.9674182068
   29      C       1.2337669714    -0.1003318103    -5.1242692639
   30      C       2.4722463276    -0.1140030342    -4.4143310123
   31      C       2.4914936514    -0.0793498695    -3.0428247305
   32      H       3.4405026185    -0.0823680184    -2.5155449256
   33      C       1.2932904037    -0.0390368727    -2.3072083605
   34      C       3.5593724709    -0.1616164266    -5.3833320946
   35      C       4.9312637603    -0.1943687039    -5.3062565718
   36      H       5.4506386305    -0.1848971912    -4.3555528370
   37      C       2.9516927493    -0.1774618007    -6.6550110435
   38      C       3.6626309612    -0.2271473747    -7.8525068443
   39      C       1.5439917704    -0.1424487475    -6.5567292037
   40      C       0.8181249478    -0.1594443240    -7.7221354420
   41      H      -0.2647501275    -0.1378326063    -7.7213485426
   42      C       5.6750395451    -0.2432187848    -6.5078877736
   43      H       6.7559074179    -0.2691347301    -6.4460408308
   44      C       5.0761049641    -0.2600852102    -7.7473273352
   45      H       5.6855176250    -0.2991798431    -8.6422016520
   46      C       2.8864471180    -0.2420318527    -9.0359144062
   47      H       3.3720837709    -0.2808857538   -10.0036002935
   48      C       1.5124910675    -0.2090669586    -8.9547162371
   49      H       0.9349312627    -0.2224345407    -9.8703987381
   50      B       1.3309807934     0.0100472805    -0.7728879041
   51      C      -2.6286530070     0.2444539243    -2.9817452354
   52      C      -3.3359624600    -0.8394465798    -3.5606608602
   53      C      -4.5584547061    -0.6321224705    -4.1575410418
   54      H      -5.1169554910    -1.4730716958    -4.5498726169
   55      C      -5.1208494487     0.6603182015    -4.1912416677
   56      N      -6.3595400893     0.8746833654    -4.7330443696
   57      C      -6.8602837788     0.0660868219    -5.7710103021
   58      C      -8.1911463627    -0.3472729773    -5.7402103375
   59      H      -8.8303436376    -0.0687110153    -4.9126180466
   60      C      -8.6761426089    -1.1411472543    -6.7632615895
   61      H      -9.7040027344    -1.4760630858    -6.7358342874
   62      C      -7.8467779416    -1.5172632185    -7.8134411985
   63      H      -8.2323872290    -2.1382966685    -8.6106623292
   64      C      -6.5249254245    -1.0918539394    -7.8434592160
   65      H      -5.8818327558    -1.3688884849    -8.6676229742
   66      C      -6.0256740884    -0.2966744540    -6.8277550112
   67      H      -5.0044862074     0.0603161394    -6.8631294459
   68      C      -4.4053804238     1.7456388861    -3.6468802931
   69      H      -4.8079841091     2.7477262238    -3.7256070873
   70      C      -3.1771941637     1.5503466597    -3.0643047017
   71      C      -7.1646810814     1.9281468928    -4.2448499778
   72      C      -7.7723863190     2.8063401203    -5.1383740216
   73      H      -7.6264638901     2.6885208990    -6.2043011910
   74      C      -8.5353346955     3.8497617366    -4.6448667410
   75      H      -8.9944277485     4.5462882783    -5.3331541616
   76      C      -8.7007630842     4.0113713297    -3.2744729217
   77      H      -9.2975508120     4.8302632275    -2.8958992162
   78      C      -8.1024227628     3.1229560796    -2.3904807896
   79      H      -8.2387140561     3.2397422080    -1.3240065187
   80      C      -7.3328054028     2.0779466402    -2.8695894314
   81      H      -6.8764143191     1.3750335503    -2.1844944213
   82      C      -2.7892966482    -2.2378750695    -3.4689900241
   83      H      -1.7017727313    -2.2118724460    -3.5600106269
   84      H      -3.1580574805    -2.8269065451    -4.3119340466
   85      C      -2.4127362831     2.7464229663    -2.5613441365
   86      H      -1.8561632534     2.4778331109    -1.6620176577
   87      H      -3.1176815949     3.5279156331    -2.2682804760
   88      C      -3.1686419850    -2.9281959041    -2.1605542938
   89      H      -2.7716888897    -2.3914553032    -1.2995626464
   90      H      -2.7646554454    -3.9401333483    -2.1328326867
   91      H      -4.2517535160    -2.9947136305    -2.0483079090
   92      C      -1.4469696004     3.3031153883    -3.6063283284
   93      H      -0.6958166729     2.5653633096    -3.8854224642
   94      H      -0.9230984592     4.1742347477    -3.2123597471
   95      H      -1.9750858117     3.6093076167    -4.5104471039
   96      C       2.7066864505     0.1144002452     0.0093377438
   97      C       3.4712322288    -1.0187839318     0.3256714521
   98      C       4.6520898121    -0.8992205254     1.0502659560
   99      H       5.2321546151    -1.7866084774     1.2810705204
  100      C       5.0869708174     0.3388036326     1.5044547433
  101      C       4.3446524280     1.4678049748     1.1869303532
  102      H       4.6738895718     2.4416979778     1.5335410749
  103      C       3.1798281011     1.3661113705     0.4354849009
  104      N       6.2524105218     0.4350573859     2.2975967814
  105      C       7.1473101664     1.4985500808     2.1108786144
  106      C       7.6835152251     2.1846891554     3.2020260153
  107      H       7.4050670894     1.9017551799     4.2090599440
  108      C       8.5689765380     3.2328161791     3.0058178119
  109      H       8.9728670431     3.7516337965     3.8660721201
  110      C       8.9218781204     3.6311536928     1.7243475802
  111      H       9.6069992262     4.4551434940     1.5744650674
  112      C       8.3817915973     2.9576974035     0.6365703989
  113      H       8.6496127133     3.2516143592    -0.3704066137
  114      C       7.5107997576     1.8965593989     0.8228445299
  115      H       7.1060218942     1.3741523698    -0.0345160608
  116      C       6.3918043215    -0.4114528410     3.4099485307
  117      C       5.2939813604    -0.7275774928     4.2095765057
  118      H       4.3213649680    -0.3149810927     3.9744356384
  119      C       5.4434731243    -1.5656932290     5.3034083164
  120      H       4.5800558774    -1.8002782377     5.9128000028
  121      C       6.6876835298    -2.0878449706     5.6290149713
  122      H       6.8024151032    -2.7366180868     6.4873169239
  123      C       7.7834589458    -1.7691632888     4.8378376776
  124      H       8.7591046631    -2.1753594178     5.0731051159
  125      C       7.6392918354    -0.9472841978     3.7321585802
  126      H       8.4980960386    -0.7170583323     3.1141774036
  127      C       3.0175829225    -2.4029691460    -0.0576263768
  128      H       2.3772448089    -2.3624627707    -0.9413844895
  129      H       3.8846043186    -3.0088885857    -0.3355212122
  130      C       2.4694657236     2.6422310546     0.0634162109
  131      H       1.4036603850     2.4557467747    -0.0857739502
  132      H       2.5417983879     3.3582822399     0.8868262061
  133      C       2.2693400107    -3.0897315047     1.0828138134
  134      H       1.3776531762    -2.5260605692     1.3584316421
  135      H       1.9544572918    -4.0949413637     0.7992544458
  136      H       2.8988597655    -3.1726872688     1.9703790252
  137      C       3.0555261412     3.2674008350    -1.2007326828
  138      H       2.9819805558     2.5802251548    -2.0440737335
  139      H       2.5259461158     4.1830923772    -1.4679862328
  140      H       4.1090244435     3.5177860996    -1.0647503819
 ----------------------------------------------------------------
 Nuclear Repulsion Energy = 12130.7232117563 hartrees
 There are      270 alpha and      270 beta electrons
 Requested basis set is def2-mSVP
 There are 680 shells and 1320 basis functions

 Total QAlloc Memory Limit  14000 MB
 Mega-Array Size      1001 MB
 MEM_STATIC part      1024 MB
 Discretize the solute cavity surface with Lebedev spheres
	Using 302 Lebedev grid points for each H atom
	Using 302 Lebedev grid points for other atoms
	Atomic van der Waals radii will be scaled by 1.20
 Remove points where switching function is < 1.0e-08
 Keep 14643 surface tesserae and discard 27637 interior tesserae
 Molecular Surface Area = 1078.308 Angst**2
 A cutoff of  1.0D-11 yielded  62824 shell pairs
 There are    243892 function pairs (    268165 Cartesian)
 
 -------------------------------------------------------
 OpenMP Integral Computing Module                       
 Release: version 1.0, May 2013, Q-Chem Inc. Pittsburgh 
 -------------------------------------------------------
 Integral Job Info:
 Integral job number is                      11
 Integral operator is                         1
 short-range coefficients                     0
 long-range coefficients              100000000
 Omega coefficients                           0
 if combine SR and LR in K                    0
 Integral screening is                        0
 Integral computing path is                   2
 max size of driver memory is            800000
 size of driver memory is                593474
 size of scratch memory is              1809772
 max col of scratch BK array               1296
 max len of scratch array in speh3          155
 max len of scratch index in speh4           18
 max int batch size is                      520
 min int batch size is                       52
 fixed nKL is                                52
 max L of basis functions is                  2
 order of int derivative is                   0
 number of shells is                        680
 number of basis is                        1400
 number of cartesian basis is              1400
 number of contracted shell pairs         62824
 number of primitive shell pairs         129626
 maxK2 (contraction) of shell pair           25
 max number of K2 of shell pair               1
 max number of CS2 of shell pair          15554
 max number of PS2 of shell pair          22755
 mem total for path MDJ                 1128316
 -------------------------------------------------------
 Smallest overlap matrix eigenvalue = 1.96E-04

 Scale SEOQF with 1.000000e-02/1.000000e-01/1.000000e-02

 Standard Electronic Orientation quadrupole field applied
 Nucleus-field energy     =     0.0000000478 hartrees
 Guess from superposition of atomic densities
 Warning:  Energy on first SCF cycle will be non-variational
 SAD guess density has 540.000001 electrons

 -----------------------------------------------------------------------
  General SCF calculation program by
  Eric Jon Sundstrom, Paul Horn, Yuezhi Mao, Dmitri Zuev, Alec White,
  David Stuck, Shaama M.S., Shane Yost, Joonho Lee, David Small,
  Daniel Levine, Susi Lehtola, Hugh Burton, Evgeny Epifanovsky
 -----------------------------------------------------------------------
 Exchange:     0.4200 Hartree-Fock + 0.5800 PBEh-3c
 Correlation:  1.0000 PBEh-3c
 Using SG-1 standard quadrature grid
 Dispersion:   Grimme D3
 using 8 threads for integral computing
 -------------------------------------------------------
 OpenMP Integral computing Module                
 Release: version 2.0, May 2017, Q-Chem Inc. Pleasanton 
 -------------------------------------------------------
 -------------------------------------------------------
 OpenMP BLAS3 based DFT computing Module                
 Release: version 1.0, May 2013, Q-Chem Inc. Pittsburgh 
 -------------------------------------------------------
 A restricted SCF calculation will be
 performed using DIIS
 SCF converges when DIIS error is below 1.0e-08
 ---------------------------------------
  Cycle       Energy         DIIS error
 ---------------------------------------
    1   -3111.1216953678      2.35e-02  
    2   -3084.1756615872      1.58e-03  
    3   -3084.3976253639      1.34e-03  
    4   -3084.7601122302      4.38e-04  
    5   -3084.8013379013      1.45e-04  
    6   -3084.8061071385      3.66e-05  
    7   -3084.8063894809      1.20e-05  
    8   -3084.8064218963      3.55e-06  
    9   -3084.8064249979      1.13e-06  
   10   -3084.8064253276      3.71e-07  
   11   -3084.8064253553      1.35e-07  
   12   -3084.8064250928      4.78e-08  
   13   -3084.8064252211      1.67e-08  
   14   -3084.8064252968      8.12e-09  Convergence criterion met
 ---------------------------------------
 SCF time:   CPU 25054.71s  wall 3451.00s 

************** Final PCM Free Energy Summary **************
 G_electrostatic  =      -0.03424567 hartree =     -21.48948450 kcal/mol
 G_cavitation     =       0.00000000 hartree =       0.00000000 kcal/mol
 G_dispersion     =       0.00000000 hartree =       0.00000000 kcal/mol
 G_repulsion      =       0.00000000 hartree =       0.00000000 kcal/mol
 --------------------------------------------------
 Non-electrostatic Free Energy =       0.00000000 hartree =       0.00000000 kcal/mol
 Total                         =      -0.03424567 hartree =     -21.48948450 kcal/mol
 --------------------------------------------------
 SCF Energy (H0 + V/2)                       =   -3084.80642530 
 Solute Internal Energy (H0)                 =   -3084.77217962 
 Total Free Energy (H0 + V/2 + non-elec)     =   -3084.80642530 hartree
                                             = -1935745.24807542 kcal/mol
***********************************************************

 SCF   energy in the final basis set =    -3084.8064252968
 Total energy in the final basis set =    -3084.8064252968
 
 Direct TDDFT/TDA calculation will be performed
 Exchange:     0.4200 Hartree-Fock + 0.5800 PBEh-3c
 Correlation:  1.0000 PBEh-3c
 Using SG-1 standard quadrature grid
 Dispersion:   Grimme D3
 Triplet excitation energies requested
 Adding PCM contribution to the XC response
 CIS energy converged when residual is below 10e- 6
 ---------------------------------------------------
 Iter    Rts Conv    Rts Left    Ttl Dev     Max Dev
 ---------------------------------------------------
   1         0           2      0.000044    0.000024
   2         0           2      0.000015    0.000008
   3         0           2      0.000006    0.000003
   4         0           2      0.000007    0.000004
   5         0           2      0.000034    0.000032
   6         0           2      0.000024    0.000022
   7         0           2      0.000016    0.000014
   8         1           1      0.000006    0.000006
   9         1           1      0.000004    0.000003
  10         1           1      0.000002    0.000001
  11         1           1      0.000001    0.000001
  12         2           0      0.000001    0.000001    Roots Converged
 ---------------------------------------------------
 
 ---------------------------------------------------
         TDDFT/TDA Excitation Energies              
 ---------------------------------------------------

 Excited state   1: excitation energy (eV) =    2.1172
 Total energy for state  1:                 -3084.72861847 au
    Multiplicity: Triplet
    Trans. Mom.:  0.0000 X   0.0000 Y   0.0000 Z
    Strength   :     0.0000000000
    D(270) --> V(  1) amplitude =  0.9463

 Excited state   2: excitation energy (eV) =    2.2198
 Total energy for state  2:                 -3084.72484899 au
    Multiplicity: Triplet
    Trans. Mom.:  0.0000 X   0.0000 Y   0.0000 Z
    Strength   :     0.0000000000
    D(267) --> V(  1) amplitude =  0.8039
    D(268) --> V(  1) amplitude =  0.4144
 
 ---------------------------------------------------
 Calculating Relaxed Density
 ---------------------------------------------------
 Iter    Rts Conv    Rts Left    Ttl Dev     Max Dev
 ---------------------------------------------------
   1         0           2      0.000129    0.000090
   2         0           2      0.000055    0.000037
   3         0           2      0.000018    0.000013
   4         0           2      0.000007    0.000005
   5         1           1      0.000002    0.000002
   6         2           0      0.000000    0.000000    Roots Converged
 ---------------------------------------------------
  SETman timing summary (seconds)
  CPU time             20196.86s
  System time              0.00s
  Wall time             4336.83s



*********SPIN-ORBIT COUPLING JOB BEGINS HERE*********


=======================================================================================
    SPIN-ORBIT COUPLING BETWEEN THE SINGLET GROUND STATE AND EXCITED TRIPLET STATE
=======================================================================================

SOC between the singlet ground state and excited triplet states (ms=0):
T1(ms=0)      0.000000  +  -2.157949i    cm-1
T2(ms=0)      0.000000  +  0.450911i    cm-1
SOC between the singlet ground state and excited triplet states (ms=1):
T1(ms=1)      -0.089507  + (-2.909770i)    cm-1
T2(ms=1)      0.255998  + (0.749870i)    cm-1
SOC between the singlet ground state and excited triplet states (ms=-1):
T1(ms=-1)     -0.089507  - (-2.909770i)    cm-1
T2(ms=-1)     0.255998  - (0.749870i)    cm-1
Total SOC between the singlet ground state and excited triplet states:
T1      4.648257    cm-1
T2      1.207892    cm-1




=======================================================================================
                     SPIN-ORBIT COUPLING BETWEEN EXCITED TRIPLET STATES
=======================================================================================

SOC between the T1 (ms=0) state and excited triplet states (ms=1):
T2(ms=1)      0.027037  + (0.184926i)    cm-1
SOC between the T1 (ms=0) state and excited triplet states (ms=-1):
T2(ms=-1)     -0.027037  + (0.184926i)    cm-1
SOC between the T1 (ms=1) state and excited triplet states (ms=0):
T2(ms=0)      -0.027037  + (0.184926i)    cm-1
SOC between the T1 (ms=1) state and excited triplet states (ms=1):
T2(ms=1)      0.000000  + (-0.285000i)    cm-1
SOC between the T1 (ms=-1) state and excited triplet states (ms=0):
T2(ms=0)      0.027037  + (0.184926i)    cm-1
SOC between the T1 (ms=-1) state and excited triplet states (ms=-1):
T2(ms=-1)     0.000000  + (0.285000i)    cm-1
Total SOC between the T1 state and excited triplet states:
T2      0.549695    cm-1







=======================================================================================
         SPIN-ORBIT COUPLING BETWEEN EXCITED SINGLET STATES AND TRIPLET STATES
=======================================================================================

SOC between the S1 state and excited triplet states (ms=0):
T1(ms=0)      0.000000  +  -0.224048i    cm-1
T2(ms=0)      0.000000  +  -0.155244i    cm-1
SOC between the S1 state and excited triplet states (ms=1):
T1(ms=1)      (0.034799)  + (0.001117i)    cm-1
T2(ms=1)      (0.016625)  + (-0.061589i)    cm-1
SOC between the S1 state and excited triplet states (ms=-1):
T1(ms=-1)    -(0.034799)  + (0.001117i)    cm-1
T2(ms=-1)    -(0.016625)  + (-0.061589i)    cm-1
Total SOC between the S1 state and excited triplet states:
T1      0.229395    cm-1
T2      0.179554    cm-1



SOC between the S2 state and excited triplet states (ms=0):
T1(ms=0)      0.000000  +  0.046281i    cm-1
T2(ms=0)      0.000000  +  -0.088996i    cm-1
SOC between the S2 state and excited triplet states (ms=1):
T1(ms=1)      (0.016712)  + (0.046359i)    cm-1
T2(ms=1)      (0.042790)  + (-0.119659i)    cm-1
SOC between the S2 state and excited triplet states (ms=-1):
T1(ms=-1)    -(0.016712)  + (0.046359i)    cm-1
T2(ms=-1)    -(0.042790)  + (-0.119659i)    cm-1
Total SOC between the S2 state and excited triplet states:
T1      0.083659    cm-1
T2      0.200547    cm-1






            *********SOC CODE ENDS HERE*********



 
 --------------------------------------------------------------
 
                    Orbital Energies (a.u.)
 --------------------------------------------------------------
 
 Alpha MOs
 -- Occupied --
-14.671 -14.671 -10.493 -10.493 -10.492 -10.492 -10.488 -10.486
-10.468 -10.468 -10.467 -10.467 -10.466 -10.466 -10.466 -10.466
-10.466 -10.466 -10.465 -10.465 -10.463 -10.463 -10.463 -10.463
-10.463 -10.462 -10.459 -10.459 -10.459 -10.459 -10.458 -10.458
-10.456 -10.455 -10.453 -10.453 -10.451 -10.451 -10.451 -10.450
-10.450 -10.450 -10.450 -10.449 -10.449 -10.449 -10.449 -10.449
-10.449 -10.448 -10.447 -10.447 -10.447 -10.447 -10.446 -10.446
-10.445 -10.445 -10.444 -10.443 -10.439 -10.439 -10.438 -10.438
-10.437 -10.437 -10.435 -10.435 -10.433 -10.433 -10.433 -10.432
-10.427 -10.421 -10.421 -10.420 -10.420 -10.419  -6.951  -6.945
 -1.088  -1.081  -1.018  -1.018  -0.965  -0.964  -0.962  -0.962
 -0.961  -0.960  -0.942  -0.941  -0.934  -0.934  -0.910  -0.901
 -0.891  -0.890  -0.870  -0.867  -0.858  -0.857  -0.853  -0.852
 -0.848  -0.847  -0.844  -0.842  -0.841  -0.838  -0.827  -0.823
 -0.822  -0.815  -0.813  -0.806  -0.802  -0.801  -0.793  -0.787
 -0.737  -0.733  -0.728  -0.722  -0.718  -0.718  -0.713  -0.712
 -0.700  -0.700  -0.700  -0.698  -0.690  -0.685  -0.683  -0.682
 -0.681  -0.676  -0.670  -0.668  -0.649  -0.647  -0.639  -0.638
 -0.632  -0.631  -0.607  -0.605  -0.598  -0.596  -0.592  -0.589
 -0.588  -0.586  -0.584  -0.577  -0.576  -0.563  -0.562  -0.556
 -0.555  -0.545  -0.545  -0.544  -0.542  -0.538  -0.528  -0.527
 -0.525  -0.524  -0.518  -0.514  -0.512  -0.509  -0.505  -0.503
 -0.502  -0.500  -0.498  -0.498  -0.497  -0.496  -0.495  -0.491
 -0.490  -0.490  -0.488  -0.487  -0.487  -0.486  -0.485  -0.484
 -0.484  -0.482  -0.478  -0.478  -0.477  -0.470  -0.466  -0.465
 -0.463  -0.457  -0.456  -0.452  -0.444  -0.441  -0.438  -0.437
 -0.437  -0.436  -0.434  -0.431  -0.430  -0.428  -0.428  -0.428
 -0.423  -0.422  -0.421  -0.418  -0.414  -0.412  -0.410  -0.407
 -0.406  -0.404  -0.401  -0.400  -0.400  -0.398  -0.398  -0.397
 -0.397  -0.395  -0.394  -0.393  -0.393  -0.388  -0.387  -0.386
 -0.381  -0.374  -0.370  -0.365  -0.360  -0.358  -0.354  -0.352
 -0.347  -0.338  -0.323  -0.317  -0.309  -0.306  -0.303  -0.302
 -0.299  -0.298  -0.298  -0.297  -0.289  -0.286  -0.284  -0.278
 -0.276  -0.264  -0.260  -0.257  -0.225  -0.216
 -- Virtual --
 -0.099  -0.063  -0.040  -0.034  -0.008   0.000   0.001   0.003
  0.004   0.004   0.006   0.007   0.013   0.024   0.026   0.027
  0.033   0.040   0.054   0.056   0.068   0.080   0.086   0.089
  0.114   0.119   0.140   0.143   0.149   0.149   0.151   0.153
  0.154   0.159   0.162   0.162   0.164   0.165   0.167   0.170
  0.171   0.172   0.179   0.181   0.183   0.185   0.187   0.189
  0.191   0.195   0.198   0.202   0.202   0.202   0.203   0.204
  0.205   0.205   0.206   0.207   0.209   0.211   0.212   0.213
  0.214   0.214   0.216   0.216   0.217   0.218   0.219   0.220
  0.221   0.224   0.225   0.227   0.230   0.231   0.233   0.236
  0.237   0.237   0.238   0.239   0.239   0.240   0.241   0.242
  0.244   0.246   0.249   0.250   0.250   0.252   0.253   0.255
  0.255   0.256   0.260   0.267   0.269   0.269   0.271   0.274
  0.279   0.280   0.282   0.284   0.289   0.289   0.292   0.295
  0.296   0.298   0.299   0.299   0.302   0.307   0.310   0.310
  0.313   0.313   0.315   0.318   0.320   0.322   0.323   0.325
  0.328   0.330   0.333   0.333   0.334   0.336   0.337   0.345
  0.346   0.350   0.353   0.357   0.359   0.363   0.367   0.372
  0.374   0.380   0.383   0.389   0.396   0.398   0.400   0.402
  0.406   0.412   0.415   0.417   0.421   0.424   0.433   0.439
  0.443   0.444   0.447   0.450   0.453   0.455   0.458   0.458
  0.464   0.465   0.466   0.469   0.476   0.481   0.482   0.489
  0.490   0.492   0.495   0.497   0.500   0.506   0.510   0.512
  0.513   0.516   0.519   0.520   0.523   0.524   0.524   0.525
  0.527   0.531   0.533   0.535   0.535   0.537   0.538   0.539
  0.540   0.544   0.546   0.548   0.551   0.553   0.556   0.557
  0.558   0.558   0.561   0.562   0.562   0.564   0.566   0.569
  0.573   0.573   0.575   0.577   0.579   0.581   0.583   0.585
  0.585   0.586   0.589   0.589   0.591   0.591   0.593   0.594
  0.595   0.597   0.597   0.599   0.599   0.600   0.602   0.603
  0.607   0.608   0.610   0.613   0.614   0.615   0.615   0.616
  0.617   0.618   0.619   0.620   0.621   0.623   0.624   0.626
  0.626   0.627   0.628   0.629   0.629   0.631   0.635   0.640
  0.643   0.645   0.646   0.648   0.648   0.649   0.651   0.651
  0.653   0.654   0.654   0.655   0.657   0.658   0.659   0.661
  0.666   0.669   0.670   0.671   0.673   0.676   0.677   0.679
  0.682   0.686   0.689   0.690   0.693   0.694   0.695   0.697
  0.699   0.702   0.702   0.705   0.705   0.708   0.710   0.711
  0.713   0.715   0.717   0.720   0.721   0.727   0.731   0.733
  0.737   0.740   0.743   0.744   0.746   0.751   0.757   0.758
  0.761   0.762   0.766   0.770   0.771   0.774   0.776   0.778
  0.782   0.786   0.788   0.792   0.795   0.797   0.802   0.803
  0.806   0.810   0.813   0.816   0.820   0.822   0.828   0.830
  0.832   0.835   0.839   0.844   0.848   0.850   0.857   0.858
  0.864   0.866   0.869   0.879   0.882   0.890   0.897   0.898
  0.903   0.907   0.910   0.912   0.917   0.918   0.922   0.924
  0.930   0.937   0.940   0.940   0.945   0.947   0.948   0.950
  0.951   0.952   0.954   0.955   0.956   0.959   0.960   0.961
  0.963   0.963   0.966   0.967   0.971   0.973   0.975   0.978
  0.979   0.981   0.985   0.987   0.989   0.990   0.991   0.993
  0.994   0.996   1.001   1.002   1.006   1.008   1.009   1.011
  1.012   1.014   1.018   1.020   1.022   1.025   1.029   1.031
  1.033   1.035   1.039   1.040   1.042   1.043   1.044   1.047
  1.049   1.050   1.052   1.053   1.054   1.055   1.057   1.060
  1.065   1.068   1.069   1.071   1.073   1.074   1.075   1.078
  1.079   1.082   1.084   1.086   1.086   1.087   1.090   1.095
  1.097   1.098   1.102   1.106   1.110   1.110   1.115   1.118
  1.126   1.127   1.128   1.132   1.139   1.145   1.147   1.149
  1.150   1.152   1.153   1.156   1.158   1.160   1.166   1.168
  1.169   1.171   1.173   1.174   1.180   1.186   1.189   1.191
  1.194   1.197   1.200   1.203   1.204   1.210   1.216   1.221
  1.222   1.225   1.226   1.233   1.242   1.244   1.250   1.253
  1.255   1.257   1.258   1.264   1.266   1.269   1.271   1.276
  1.281   1.282   1.287   1.289   1.293   1.297   1.298   1.300
  1.301   1.305   1.307   1.310   1.312   1.316   1.318   1.319
  1.321   1.325   1.328   1.332   1.337   1.341   1.342   1.345
  1.348   1.350   1.356   1.359   1.362   1.367   1.368   1.370
  1.373   1.374   1.377   1.383   1.388   1.391   1.400   1.406
  1.407   1.410   1.412   1.414   1.418   1.425   1.438   1.438
  1.441   1.444   1.447   1.450   1.452   1.462   1.464   1.471
  1.478   1.481   1.484   1.489   1.493   1.501   1.503   1.509
  1.510   1.510   1.511   1.513   1.516   1.516   1.517   1.525
  1.529   1.530   1.530   1.535   1.537   1.538   1.540   1.541
  1.546   1.547   1.548   1.551   1.556   1.556   1.557   1.559
  1.560   1.563   1.564   1.568   1.569   1.571   1.575   1.576
  1.583   1.585   1.591   1.592   1.595   1.596   1.599   1.602
  1.602   1.613   1.618   1.622   1.624   1.630   1.634   1.644
  1.656   1.659   1.670   1.675   1.690   1.700   1.710   1.717
  1.736   1.739   1.740   1.743   1.749   1.754   1.760   1.764
  1.766   1.769   1.774   1.782   1.783   1.786   1.793   1.797
  1.801   1.805   1.806   1.807   1.808   1.810   1.814   1.816
  1.817   1.820   1.827   1.829   1.830   1.845   1.852   1.854
  1.860   1.863   1.865   1.869   1.874   1.884   1.891   1.891
  1.896   1.898   1.901   1.902   1.904   1.915   1.916   1.919
  1.924   1.926   1.933   1.936   1.938   1.940   1.944   1.946
  1.948   1.965   1.972   1.976   1.979   1.980   1.983   1.985
  1.987   1.991   2.000   2.004   2.008   2.016   2.022   2.023
  2.024   2.025   2.030   2.033   2.034   2.034   2.037   2.044
  2.057   2.062   2.063   2.066   2.067   2.069   2.070   2.072
  2.074   2.075   2.076   2.079   2.086   2.096   2.101   2.104
  2.108   2.108   2.121   2.127   2.130   2.138   2.139   2.142
  2.148   2.149   2.150   2.154   2.156   2.157   2.159   2.161
  2.166   2.168   2.176   2.178   2.190   2.191   2.194   2.198
  2.198   2.199   2.200   2.201   2.202   2.207   2.208   2.212
  2.217   2.221   2.221   2.226   2.228   2.229   2.234   2.244
  2.245   2.249   2.251   2.252   2.256   2.257   2.260   2.264
  2.266   2.270   2.273   2.276   2.283   2.284   2.287   2.288
  2.303   2.305   2.309   2.311   2.318   2.319   2.319   2.323
  2.326   2.332   2.335   2.338   2.342   2.342   2.345   2.348
  2.352   2.354   2.355   2.357   2.361   2.365   2.366   2.368
  2.371   2.373   2.376   2.382   2.385   2.385   2.387   2.388
  2.389   2.390   2.400   2.401   2.401   2.407   2.410   2.411
  2.412   2.415   2.419   2.431   2.432   2.437   2.442   2.446
  2.455   2.459   2.469   2.473   2.477   2.480   2.482   2.488
  2.493   2.494   2.496   2.497   2.499   2.506   2.509   2.514
  2.522   2.527   2.535   2.550   2.559   2.565   2.572   2.590
  2.603   2.608   2.612   2.620   2.628   2.635   2.637   2.641
  2.641   2.642   2.648   2.656   2.659   2.667   2.675   2.677
  2.678   2.683   2.684   2.689   2.690   2.697   2.706   2.712
  2.720   2.724   2.727   2.732   2.733   2.734   2.735   2.736
  2.737   2.747   2.751   2.753   2.755   2.759   2.759   2.764
  2.772   2.776   2.782   2.783   2.786   2.786   2.787   2.787
  2.788   2.790   2.799   2.803   2.804   2.807   2.807   2.810
  2.812   2.818   2.819   2.823   2.826   2.829   2.840   2.844
  2.852   2.854   2.857   2.860   2.866   2.870   2.887   2.898
  2.900   2.902   2.906   2.910   2.918   2.922   2.929   2.934
  2.941   2.941   2.952   2.973   2.983   3.000   3.001   3.004
  3.011   3.012   3.024   3.031   3.044   3.053   3.075   3.078
  3.080   3.102   3.122   3.143   3.149   3.235   3.253   3.255
  3.307   3.314   3.330   3.358   3.399   3.437   3.446   3.478
  3.481   3.483   3.487   3.488   3.508   3.515   3.539   3.548
  3.660   3.671   9.596   9.751  13.140  13.175  13.245  13.247
 13.276  13.286  13.437  13.495  13.509  13.520  13.523  13.546
 13.667  13.669  13.670  13.677  13.683  13.687  13.706  13.712
 13.714  13.725  13.731  13.762  13.770  13.792  13.799  13.801
 13.858  13.867  13.888  13.915  13.922  13.995  14.000  14.027
 14.029  14.033  14.039  14.045  14.051  14.052  14.149  14.150
 14.151  14.154  14.157  14.159  14.159  14.177  14.178  14.181
 14.183  14.200  14.218  14.231  14.255  14.266  14.276  14.284
 14.310  14.314  14.333  14.337  14.507  14.511  14.553  14.560
 14.575  14.576  14.579  14.579  14.582  14.582  14.584  14.602
 19.685  19.688
 --------------------------------------------------------------
 
          Ground-State Mulliken Net Atomic Charges

     Atom                 Charge (a.u.)
  ----------------------------------------
      1 C                    -0.151831
      2 C                    -0.395192
      3 H                     0.247537
      4 C                     0.077075
      5 C                     0.101813
      6 C                    -0.400694
      7 H                     0.249129
      8 C                    -0.148206
      9 C                     0.177722
     10 C                    -0.385603
     11 H                     0.249185
     12 C                    -0.069418
     13 C                     0.222947
     14 C                     0.182008
     15 C                    -0.395651
     16 H                     0.249514
     17 C                    -0.231862
     18 H                     0.255297
     19 C                    -0.343663
     20 H                     0.252520
     21 C                    -0.228856
     22 H                     0.254809
     23 C                    -0.348593
     24 H                     0.252921
     25 B                     0.627708
     26 C                    -0.143609
     27 C                    -0.399060
     28 H                     0.248408
     29 C                     0.098968
     30 C                     0.078316
     31 C                    -0.398051
     32 H                     0.246749
     33 C                    -0.146917
     34 C                     0.180379
     35 C                    -0.386980
     36 H                     0.249901
     37 C                    -0.069820
     38 C                     0.221010
     39 C                     0.182890
     40 C                    -0.395332
     41 H                     0.249625
     42 C                    -0.231591
     43 H                     0.255462
     44 C                    -0.343073
     45 H                     0.252825
     46 C                    -0.347263
     47 H                     0.252993
     48 C                    -0.228956
     49 H                     0.254988
     50 B                     0.647621
     51 C                    -0.242468
     52 C                     0.089559
     53 C                    -0.388673
     54 H                     0.251371
     55 C                     0.319435
     56 N                    -0.656482
     57 C                     0.280506
     58 C                    -0.291564
     59 H                     0.260902
     60 C                    -0.241164
     61 H                     0.247647
     62 C                    -0.261987
     63 H                     0.243035
     64 C                    -0.241639
     65 H                     0.247203
     66 C                    -0.285226
     67 H                     0.264536
     68 C                    -0.394983
     69 H                     0.252005
     70 C                     0.075250
     71 C                     0.252872
     72 C                    -0.278362
     73 H                     0.260415
     74 C                    -0.243742
     75 H                     0.248508
     76 C                    -0.257528
     77 H                     0.244433
     78 C                    -0.242727
     79 H                     0.248070
     80 C                    -0.271030
     81 H                     0.263009
     82 C                    -0.549123
     83 H                     0.248568
     84 H                     0.240503
     85 C                    -0.555943
     86 H                     0.256369
     87 H                     0.242364
     88 C                    -0.659552
     89 H                     0.239995
     90 H                     0.227151
     91 H                     0.222258
     92 C                    -0.657616
     93 H                     0.241406
     94 H                     0.225557
     95 H                     0.222026
     96 C                    -0.226608
     97 C                     0.065338
     98 C                    -0.352801
     99 H                     0.244589
    100 C                     0.297421
    101 C                    -0.360249
    102 H                     0.246139
    103 C                     0.053349
    104 N                    -0.670792
    105 C                     0.299744
    106 C                    -0.302750
    107 H                     0.259587
    108 C                    -0.238253
    109 H                     0.246103
    110 C                    -0.265807
    111 H                     0.242983
    112 C                    -0.238223
    113 H                     0.245726
    114 C                    -0.295458
    115 H                     0.257394
    116 C                     0.286853
    117 C                    -0.293489
    118 H                     0.256896
    119 C                    -0.239830
    120 H                     0.245889
    121 C                    -0.262677
    122 H                     0.243946
    123 C                    -0.239893
    124 H                     0.246747
    125 C                    -0.288221
    126 H                     0.259364
    127 C                    -0.549175
    128 H                     0.250642
    129 H                     0.242555
    130 C                    -0.553274
    131 H                     0.256116
    132 H                     0.243579
    133 C                    -0.655878
    134 H                     0.234734
    135 H                     0.227770
    136 H                     0.223201
    137 C                    -0.654397
    138 H                     0.235699
    139 H                     0.227036
    140 H                     0.223136
  ----------------------------------------
  Sum of atomic charges =    -0.000000

 -----------------------------------------------------------------
                    Cartesian Multipole Moments
 -----------------------------------------------------------------
    Charge (ESU x 10^10)
                -0.0000
    Dipole Moment (Debye)
         X      -0.9571      Y       0.0478      Z      -0.1825
       Tot       0.9756
    Quadrupole Moments (Debye-Ang)
        XX    -404.6924     XY      -3.3303     YY    -458.2387
        XZ     -12.0828     YZ       1.6294     ZZ    -382.9246
    Octopole Moments (Debye-Ang^2)
       XXX     -72.3047    XXY     -62.3758    XYY      -6.5541
       YYY    -386.3155    XXZ     512.9206    XYZ     -30.6867
       YYZ     613.8619    XZZ      37.7506    YZZ    -236.3775
       ZZZ    1500.0697
    Hexadecapole Moments (Debye-Ang^3)
      XXXX  -64121.7219   XXXY     624.7774   XXYY  -11766.4541
      XYYY     548.6036   YYYY   -7845.8925   XXXZ   -9732.0130
      XXYZ     308.1405   XYYZ   -2471.4435   YYYZ     797.0652
      XXZZ  -17594.4500   XYZZ     286.7209   YYZZ  -10269.0752
      XZZZ  -10154.9533   YZZZ    1289.5039   ZZZZ  -44156.6526
 -----------------------------------------------------------------
 -----------------------------------------------------------------
               TDA Excited-State Multipoles, State  1
 -----------------------------------------------------------------
    Charge (ESU x 10^10)
                -0.0000
    Dipole Moment (Debye)
         X     -21.9958      Y       2.7481      Z     -11.2346
       Tot      24.8512
    Quadrupole Moments (Debye-Ang)
        XX    -303.9541     XY     -22.1022     YY    -447.9299
        XZ     105.2874     YZ      -5.7535     ZZ    -367.4761
    Octopole Moments (Debye-Ang^2)
       XXX   -1134.1702    XXY      80.5650    XYY    -130.5554
       YYY    -347.9803    XXZ    -134.7384    XYZ      10.2546
       YYZ     551.2182    XZZ    -583.6398    YZZ    -219.9716
       ZZZ    1267.2644
    Hexadecapole Moments (Debye-Ang^3)
      XXXX  -57215.7658   XXXY    -659.9256   XXYY  -10986.9517
      XYYY     206.0708   YYYY   -7660.0198   XXXZ   -4302.0212
      XXYZ     -60.2334   XYYZ   -2007.2829   YYYZ     663.4321
      XXZZ  -14544.3505   XYZZ     290.9295   YYZZ  -10026.0489
      XZZZ   -5644.1882   YZZZ    1358.0577   ZZZZ  -44239.4581
 -----------------------------------------------------------------
 -----------------------------------------------------------------
               TDA Excited-State Multipoles, State  2
 -----------------------------------------------------------------
    Charge (ESU x 10^10)
                -0.0000
    Dipole Moment (Debye)
         X      -1.6983      Y       0.0758      Z      -0.3486
       Tot       1.7354
    Quadrupole Moments (Debye-Ang)
        XX    -405.8493     XY      -4.0279     YY    -459.3888
        XZ     -14.1113     YZ       1.5283     ZZ    -379.4065
    Octopole Moments (Debye-Ang^2)
       XXX    -103.3644    XXY     -60.3262    XYY     -11.3025
       YYY    -386.3710    XXZ     492.6811    XYZ     -29.0409
       YYZ     613.5347    XZZ      33.7372    YZZ    -235.8399
       ZZZ    1491.1068
    Hexadecapole Moments (Debye-Ang^3)
      XXXX  -64102.0587   XXXY     581.2226   XXYY  -11773.8169
      XYYY     537.1567   YYYY   -7862.2472   XXXZ   -9660.8741
      XXYZ     298.7961   XYYZ   -2473.1494   YYYZ     795.2681
      XXZZ  -17517.7327   XYZZ     284.3088   YYZZ  -10268.2594
      XZZZ  -10161.1299   YZZZ    1292.2258   ZZZZ  -44102.8254
 -----------------------------------------------------------------
Archival summary:
1\1\ctcp007\SP\ProcedureUnspecified\BasisUnspecified\276260\mewes\SunNov415:13:542018SunNov415:13:542018\0\\#,ProcedureUnspecified,BasisUnspecified,\\0,1\C\C,1,1.40662\H,2,1.08535,1,119.269\C,2,1.37267,1,120.882,3,-179.87,0\C,4,1.42668,2,120.653,1,-0.427434,0\C,5,1.37418,4,119.442,2,-0.291155,0\H,6,1.08619,5,119.498,4,-179.605,0\C,6,1.41596,5,120.857,4,0.731463,0\C,4,1.45529,2,130.814,1,179.336,0\C,9,1.37357,4,134.874,2,0.253594,0\H,10,1.0835,9,121.816,4,0.236928,0\C,9,1.40956,4,106.238,2,-179.578,0\C,12,1.39199,9,123.77,4,179.634,0\C,12,1.41193,9,111.404,4,-0.11552,0\C,14,1.37248,12,117.919,9,179.671,0\H,15,1.08316,14,121.859,12,-179.731,0\C,10,1.41363,9,118.42,4,-179.74,0\H,17,1.0829,10,118.526,9,-179.99,0\C,17,1.37707,10,122.458,9,0.086905,0\H,19,1.08327,17,119.872,10,179.875,0\C,15,1.41551,14,118.595,12,0.067868,0\H,21,1.08265,15,118.348,14,-179.891,0\C,21,1.37689,15,122.841,14,-0.010892,0\H,23,1.08323,21,119.997,15,-179.939,0\B,8,1.53155,6,121.59,5,-179.395,0\C,25,1.52877,8,120.8,6,-177.357,0\C,26,1.41567,25,121.334,8,177.5,0\H,27,1.08621,26,119.683,25,-0.450903,0\C,27,1.37288,26,120.794,25,179.42,0\C,29,1.4276,27,119.585,26,-0.54614,0\C,30,1.37208,29,120.598,27,0.04006,0\H,31,1.08566,30,119.846,29,-179.52,0\C,31,1.40657,30,120.767,29,0.443815,0\C,30,1.45708,29,108.473,27,-179.745,0\C,34,1.37444,30,135.089,29,-179.897,0\H,35,1.08336,34,121.838,30,-0.155177,0\C,34,1.4095,30,106.183,29,-0.080409,0\C,37,1.39352,34,123.763,30,-179.736,0\C,37,1.41156,34,111.522,30,0.019124,0\C,39,1.37308,37,117.891,34,-179.698,0\H,40,1.08309,39,121.848,37,179.803,0\C,35,1.41404,34,118.567,30,179.772,0\H,42,1.08295,35,118.508,34,-179.992,0\C,42,1.37667,35,122.457,34,-0.049928,0\H,44,1.08338,42,119.959,35,-179.917,0\C,38,1.41532,37,116.047,34,179.737,0\H,46,1.08341,38,120.091,37,-179.954,0\C,46,1.37675,38,119.85,37,-0.0518,0\H,48,1.0827,46,118.828,38,-179.919,0\B,33,1.53557,31,120.17,30,-179.542,0\C,25,1.57968,8,119.185,6,6.79561,0\C,51,1.41784,25,122.097,8,-100.605,0\C,52,1.37613,51,120.338,25,176.769,0\H,53,1.08307,52,119.883,51,-176.698,0\C,53,1.4099,52,120.187,51,-0.3547,0\N,55,1.36889,53,120.928,52,-177.354,0\C,56,1.40782,55,121.583,53,-29.4735,0\C,57,1.39392,56,119.58,55,137.962,0\H,58,1.08216,57,120.299,56,-1.43845,0\C,58,1.38278,57,119.26,56,179.987,0\H,60,1.0814,58,119.5,57,179.106,0\C,60,1.39003,58,120.334,57,-0.292333,0\H,62,1.08164,60,119.967,58,-179.993,0\C,62,1.38895,60,120.085,58,-0.271713,0\H,64,1.08146,62,120.261,60,-178.961,0\C,64,1.38319,62,120.246,60,0.228485,0\H,66,1.08237,64,120.408,62,-178.199,0\C,55,1.40931,53,119.618,52,1.95029,0\H,68,1.08281,55,119.726,53,176.276,0\C,68,1.37331,55,120.555,53,-1.1321,0\C,56,1.41293,55,119.712,53,150.395,0\C,71,1.39245,56,119.815,55,131.693,0\H,72,1.0823,71,120.297,56,-0.320368,0\C,72,1.38361,71,119.169,56,-178.668,0\H,74,1.08151,72,119.522,71,178.842,0\C,74,1.38977,72,120.334,71,-0.512802,0\H,76,1.08169,74,119.921,72,179.917,0\C,76,1.38879,74,120.131,72,-0.141033,0\H,78,1.08147,76,120.286,74,-179.303,0\C,78,1.38344,76,120.163,74,0.37788,0\H,80,1.08247,78,120.39,76,-179.121,0\C,52,1.50428,51,120.299,25,-0.218743,0\H,82,1.09164,52,109.561,51,-36.963,0\H,82,1.09247,52,109.363,51,-153.4,0\C,70,1.50598,68,118.863,55,176.739,0\H,85,1.09119,70,109.796,68,145.28,0\H,85,1.0925,70,109.279,68,28.8058,0\C,82,1.52724,52,112.467,51,84.7398,0\H,88,1.08948,82,111.338,52,-61.0628,0\H,88,1.08995,82,110.449,52,179.466,0\H,88,1.09094,82,111.242,52,59.5654,0\C,85,1.52794,70,112.446,68,-92.7645,0\H,92,1.08922,85,111.368,70,-61.3582,0\H,92,1.09018,85,110.347,70,179.205,0\H,92,1.09091,85,111.29,70,59.4101,0\C,50,1.58598,33,121.078,31,4.1366,0\C,96,1.4031,50,122.053,33,-85.1695,0\C,97,1.3906,96,120.714,50,-177.91,0\H,98,1.08499,97,119.638,96,-179.704,0\C,98,1.38857,97,120.867,96,1.50075,0\C,100,1.38799,98,118.875,97,-2.04395,0\H,101,1.0849,100,119.656,98,-179.877,0\C,101,1.3899,100,120.822,98,0.45247,0\N,100,1.41301,98,120.176,97,176.75,0\C,104,1.4024,100,120.215,98,140.867,0\C,105,1.39603,104,120.914,100,135.685,0\H,106,1.08245,105,119.992,104,-0.367703,0\C,106,1.38604,105,120.424,104,179.887,0\H,108,1.08275,106,119.221,105,179.986,0\C,108,1.38758,106,120.684,105,0.978915,0\H,110,1.08204,108,120.502,106,179.486,0\C,110,1.3887,108,119.03,106,-0.446524,0\H,112,1.08264,110,120.046,108,-179.701,0\C,112,1.3854,110,120.706,108,-0.481958,0\H,114,1.08251,112,119.883,110,-179.337,0\C,104,1.40476,100,119.03,98,-49.4794,0\C,116,1.39447,104,120.834,100,-37.9986,0\H,117,1.08236,116,119.765,104,-0.167151,0\C,117,1.38609,116,120.311,104,179.899,0\H,119,1.08253,117,119.291,116,-179.988,0\C,119,1.38806,117,120.614,116,0.838145,0\H,121,1.08201,119,120.443,117,179.596,0\C,121,1.38861,119,119.167,117,-0.52113,0\H,123,1.0827,121,120.078,119,-179.452,0\C,123,1.38521,121,120.586,119,-0.380938,0\H,125,1.0828,123,119.945,121,-179.118,0\C,97,1.50621,96,121.38,50,-0.34052,0\H,127,1.09211,97,110.392,96,26.9516,0\H,127,1.09366,97,109.575,96,143.628,0\C,103,1.50716,101,117.808,100,-176.583,0\H,130,1.09223,103,110.431,101,-153.421,0\H,130,1.0936,103,109.715,101,-36.6798,0\C,127,1.52713,97,111.765,96,-95.1739,0\H,133,1.09032,127,110.916,97,60.6291,0\H,133,1.09087,127,111.205,97,-179.392,0\H,133,1.09131,127,111.034,97,-59.1937,0\C,130,1.52721,103,111.72,101,84.6454,0\H,137,1.09034,130,110.877,103,59.3295,0\H,137,1.09104,130,111.104,103,179.27,0\H,137,1.09135,130,111.175,103,-60.6076,0\\\@

 Total job time:  18173.20s(wall), 55654.19s(cpu) 
 Sun Nov  4 15:13:54 2018

        *************************************************************
        *                                                           *
        *  Thank you very much for using Q-Chem.  Have a nice day.  *
        *                                                           *
        *************************************************************


0 sent ACK to 0 
now end server 0 ... 
 
*************************************************************
Job 2 of 2 
*************************************************************
 
mFile = /cm/shared/apps/q-chem/intel/QCHEM_5.1.0_Trunk/bin/mpi/machines
Process 0 of 1 is on ctcp007 - thread support 0
initial socket setup ...start
initial socket setup ...done 
now start server 0 ... 
Q-Chem Developer Version!
                  Welcome to Q-Chem
     A Quantum Leap Into The Future Of Chemistry


 Q-Chem 5.1, Q-Chem, Inc., Pleasanton, CA (2018)

 Yihan Shao,  Zhengting Gan,  E. Epifanovsky,  A. T. B. Gilbert,  M. Wormit,  
 J. Kussmann,  A. W. Lange,  A. Behn,  Jia Deng,  Xintian Feng,  D. Ghosh,  
 M. Goldey,  P. R. Horn,  L. D. Jacobson,  I. Kaliman,  T. Kus,  A. Landau,  
 Jie Liu,  E. I. Proynov,  R. M. Richard,  R. P. Steele,  E. J. Sundstrom,  
 H. L. Woodcock III,  P. M. Zimmerman,  D. Zuev,  B. Albrecht,  E. Alguire,  
 S. A. Baeppler,  D. Barton,  Z. Benda,  Y. A. Bernard,  E. J. Berquist,  
 K. B. Bravaya,  H. Burton,  D. Casanova,  Chun-Min Chang,  Yunqing Chen,  
 A. Chien,  K. D. Closser,  M. P. Coons,  S. Coriani,  S. Dasgupta,  
 A. L. Dempwolff,  M. Diedenhofen,  Hainam Do,  R. G. Edgar,  Po-Tung Fang,  
 S. Faraji,  S. Fatehi,  Qingguo Feng,  K. D. Fenk,  J. Fosso-Tande,  
 Qinghui Ge,  A. Ghysels,  G. Gidofalvi,  J. Gomes,  J. Gonthier,  A. Gunina,  
 D. Hait,  M. W. D. Hanson-Heine,  P. H. P. Harbach,  A. W. Hauser,  
 J. E. Herr,  E. G. Hohenstein,  Z. C. Holden,  Kerwin Hui,  B. C. Huynh,  
 T.-C. Jagau,  Hyunjun Ji,  B. Kaduk,  K. Khistyaev,  Jaehoon Kim,  
 P. Klunzinger,  K. Koh,  D. Kosenkov,  L. Koulias,  T. Kowalczyk,  
 C. M. Krauter,  A. Kunitsa,  Ka Un Lao,  A. Laurent,  K. V. Lawler,  
 Joonho Lee,  D. Lefrancois,  S. Lehtola,  D. S. Levine,  Yi-Pei Li,  
 You-Sheng Lin,  Fenglai Liu,  E. Livshits,  A. Luenser,  P. Manohar,  
 E. Mansoor,  S. F. Manzer,  Shan-Ping Mao,  Yuezhi Mao,  N. Mardirossian,  
 A. V. Marenich,  T. Markovich,  L. A. Martinez-Martinez,  S. A. Maurer,  
 N. J. Mayhall,  S. C. McKenzie,  J.-M. Mewes,  A. F. Morrison,  
 J. W. Mullinax,  K. Nanda,  T. S. Nguyen-Beck,  R. Olivares-Amaya,  
 J. A. Parkhill,  T. M. Perrine,  F. Plasser,  P. Pokhilko,  S. Prager,  
 A. Prociuk,  E. Ramos,  D. R. Rehn,  F. Rob,  M. Schneider,  N. Sergueev,  
 S. M. Sharada,  S. Sharma,  D. W. Small,  T. Stauch,  T. Stein,  
 Yu-Chuan Su,  A. J. W. Thom,  A. Tkatchenko,  T. Tsuchimochi,  N. M. Tubman,  
 L. Vogt,  M. L. Vidal,  O. Vydrov,  M. A. Watson,  J. Wenzel,  
 M. de Wergifosse,  T. A. Wesolowski,  A. White,  J. Witte,  A. Yamada,  
 Jun Yang,  K. Yao,  S. Yeganeh,  S. R. Yost,  Zhi-Qiang You,  A. Zech,  
 Igor Ying Zhang,  Xing Zhang,  Yan Zhao,  Ying Zhu,  B. R. Brooks,  
 G. K. L. Chan,  C. J. Cramer,  M. S. Gordon,  W. J. Hehre,  A. Klamt,  
 M. W. Schmidt,  C. D. Sherrill,  D. G. Truhlar,  A. Aspuru-Guzik,  R. Baer,  
 A. T. Bell,  N. A. Besley,  Jeng-Da Chai,  A. E. DePrince, III,  
 R. A. DiStasio Jr.,  A. Dreuw,  B. D. Dunietz,  T. R. Furlani,  
 Chao-Ping Hsu,  Yousung Jung,  Jing Kong,  D. S. Lambrecht,  WanZhen Liang,  
 C. Ochsenfeld,  V. A. Rassolov,  L. V. Slipchenko,  J. E. Subotnik,  
 T. Van Voorhis,  J. M. Herbert,  A. I. Krylov,  P. M. W. Gill,  M. Head-Gordon

 Contributors to earlier versions of Q-Chem not listed above: 
 R. D. Adamson,  B. Austin,  J. Baker,  G. J. O. Beran,  K. Brandhorst,  
 S. T. Brown,  E. F. C. Byrd,  A. K. Chakraborty,  C.-L. Cheng,  
 Siu Hung Chien,  D. M. Chipman,  D. L. Crittenden,  H. Dachsel,  
 R. J. Doerksen,  A. D. Dutoi,  L. Fusti-Molnar,  W. A. Goddard III,  
 A. Golubeva-Zadorozhnaya,  S. R. Gwaltney,  G. Hawkins,  A. Heyden,  
 S. Hirata,  G. Kedziora,  F. J. Keil,  C. Kelley,  Jihan Kim,  R. A. King,  
 R. Z. Khaliullin,  P. P. Korambath,  W. Kurlancheek,  A. M. Lee,  M. S. Lee,  
 S. V. Levchenko,  Ching Yeh Lin,  D. Liotard,  R. C. Lochan,  I. Lotan,  
 P. E. Maslen,  N. Nair,  D. P. O'Neill,  D. Neuhauser,  E. Neuscamman,  
 C. M. Oana,  R. Olson,  B. Peters,  R. Peverati,  P. A. Pieniazek,  
 Y. M. Rhee,  J. Ritchie,  M. A. Rohrdanz,  E. Rosta,  N. J. Russ,  
 H. F. Schaefer III,  N. E. Schultz,  N. Shenvi,  A. C. Simmonett,  A. Sodt,  
 D. Stuck,  K. S. Thanthiriwatte,  V. Vanovschi,  Tao Wang,  A. Warshel,  
 C. F. Williams,  Q. Wu,  X. Xu,  W. Zhang

 Please cite Q-Chem as follows:
 Y. Shao et al., Mol. Phys. 113, 184-215 (2015)
 DOI: 10.1080/00268976.2014.952696

 Q-Chem 5.1.1 for Intel X86 EM64T Linux

 Parts of Q-Chem use Armadillo 8.300.2 (Tropical Shenanigans).
 http://arma.sourceforge.net/

 Q-Chem begins on Sun Nov  4 15:13:57 2018  

Host: ctcp007
0

     Scratch files written to /scratch/mewes/139534/qchem63964//
 Parallel job on  1  processors
The previous job contains 0 fragments, simply inherited here
Symmetry turned off for PCM/SM12/SMD calculation
Input Ideriv = 2
Curr. Ideriv = -1
Max.  Ideriv = 2
Input Ideriv = 1
Curr. Ideriv = 2
Max.  Ideriv = 1

Checking the input file for inconsistencies... 	...done.

--------------------------------------------------------------
User input:
--------------------------------------------------------------
$rem
threads 8
jobtype sp
method PBEh-3c
basis def2-mSVP
mem_static      1024
mem_total       14000
sym_ignore      true
cis_n_roots             6
cis_singlets            true
cis_triplets            true
rpa                     false
calc_soc                true
cis_moments             true
cis_relaxed_density     true
solvent_method          pcm
$end

$molecule
read
$end

$pcm
statespecific           Marcus 
$end

$solvent
dielectric      4.33 
dielectric_infi 1.83
$end

--------------------------------------------------------------
 Adding empirical dispersion correction 
 ----------------------------------------------------------------
 Doing -D3(BJ) with
 s6 =   1.00000
 s8 =   0.00000
 a1 =   0.48600
 a2 =   4.50000
 -D3 energy including 3body term =     -0.1346483071 hartrees
 ----------------------------------------------------------------
 Adding gCP correction 
 ----------------------------------------------------------------
 gCP energy =      0.1915715584 hartrees
 ----------------------------------------------------------------
             Standard Nuclear Orientation (Angstroms)
    I     Atom           X                Y                Z
 ----------------------------------------------------------------
    1      C       0.0000000000     0.0000000000     0.0000000000
    2      C       0.0000000000     0.0000000000     1.4066170000
    3      H       0.9467958689     0.0000000000     1.9372515810
    4      C      -1.1780613778    -0.0026765598     2.1111625341
    5      C      -2.4322616396     0.0036298471     1.4312019900
    6      C      -2.4556932880     0.0185441975     0.0572977232
    7      H      -3.4100505996     0.0298733655    -0.4612452670
    8      C      -1.2528053487     0.0121858400    -0.6896676270
    9      C      -1.4290832607    -0.0160180494     3.5445807337
   10      C      -0.6374507678    -0.0257931594     4.6670409728
   11      H       0.4441577084    -0.0206641225     4.6032688773
   12      C      -2.8301036718    -0.0223652035     3.6993465489
   13      C      -3.4720608610    -0.0427688849     4.9343037016
   14      C      -3.4866450441    -0.0112072509     2.4493953197
   15      C      -4.8590670979    -0.0227219863     2.4442506708
   16      H      -5.4273872707    -0.0195158789     1.5221697877
   17      C      -1.2656971699    -0.0434994450     5.9332737910
   18      H      -0.6432276299    -0.0510637179     6.8193577022
   19      C      -2.6350150568    -0.0529922326     6.0788293680
   20      H      -3.0721438800    -0.0685809034     7.0698594443
   21      C      -5.5410472895    -0.0435748659     3.6844682190
   22      H      -6.6236058464    -0.0544109804     3.6757365777
   23      C      -4.8871176022    -0.0530306320     4.8961286029
   24      H      -5.4554427444    -0.0700356788     5.8181421207
   25      B      -1.2591057590     0.0423463493    -2.2209086642
   26      C       0.0481624726    -0.0255611113    -3.0105808591
   27      C       0.0527363175    -0.0512147379    -4.4260110129
   28      H      -0.8886819177    -0.0297177406    -4.9674182068
   29      C       1.2337669714    -0.1003318103    -5.1242692639
   30      C       2.4722463276    -0.1140030342    -4.4143310123
   31      C       2.4914936514    -0.0793498695    -3.0428247305
   32      H       3.4405026185    -0.0823680184    -2.5155449256
   33      C       1.2932904037    -0.0390368727    -2.3072083605
   34      C       3.5593724709    -0.1616164266    -5.3833320946
   35      C       4.9312637603    -0.1943687039    -5.3062565718
   36      H       5.4506386305    -0.1848971912    -4.3555528370
   37      C       2.9516927493    -0.1774618007    -6.6550110435
   38      C       3.6626309612    -0.2271473747    -7.8525068443
   39      C       1.5439917704    -0.1424487475    -6.5567292037
   40      C       0.8181249478    -0.1594443240    -7.7221354420
   41      H      -0.2647501275    -0.1378326063    -7.7213485426
   42      C       5.6750395451    -0.2432187848    -6.5078877736
   43      H       6.7559074179    -0.2691347301    -6.4460408308
   44      C       5.0761049641    -0.2600852102    -7.7473273352
   45      H       5.6855176250    -0.2991798431    -8.6422016520
   46      C       2.8864471180    -0.2420318527    -9.0359144062
   47      H       3.3720837709    -0.2808857538   -10.0036002935
   48      C       1.5124910675    -0.2090669586    -8.9547162371
   49      H       0.9349312627    -0.2224345407    -9.8703987381
   50      B       1.3309807934     0.0100472805    -0.7728879041
   51      C      -2.6286530070     0.2444539243    -2.9817452354
   52      C      -3.3359624600    -0.8394465798    -3.5606608602
   53      C      -4.5584547061    -0.6321224705    -4.1575410418
   54      H      -5.1169554910    -1.4730716958    -4.5498726169
   55      C      -5.1208494487     0.6603182015    -4.1912416677
   56      N      -6.3595400893     0.8746833654    -4.7330443696
   57      C      -6.8602837788     0.0660868219    -5.7710103021
   58      C      -8.1911463627    -0.3472729773    -5.7402103375
   59      H      -8.8303436376    -0.0687110153    -4.9126180466
   60      C      -8.6761426089    -1.1411472543    -6.7632615895
   61      H      -9.7040027344    -1.4760630858    -6.7358342874
   62      C      -7.8467779416    -1.5172632185    -7.8134411985
   63      H      -8.2323872290    -2.1382966685    -8.6106623292
   64      C      -6.5249254245    -1.0918539394    -7.8434592160
   65      H      -5.8818327558    -1.3688884849    -8.6676229742
   66      C      -6.0256740884    -0.2966744540    -6.8277550112
   67      H      -5.0044862074     0.0603161394    -6.8631294459
   68      C      -4.4053804238     1.7456388861    -3.6468802931
   69      H      -4.8079841091     2.7477262238    -3.7256070873
   70      C      -3.1771941637     1.5503466597    -3.0643047017
   71      C      -7.1646810814     1.9281468928    -4.2448499778
   72      C      -7.7723863190     2.8063401203    -5.1383740216
   73      H      -7.6264638901     2.6885208990    -6.2043011910
   74      C      -8.5353346955     3.8497617366    -4.6448667410
   75      H      -8.9944277485     4.5462882783    -5.3331541616
   76      C      -8.7007630842     4.0113713297    -3.2744729217
   77      H      -9.2975508120     4.8302632275    -2.8958992162
   78      C      -8.1024227628     3.1229560796    -2.3904807896
   79      H      -8.2387140561     3.2397422080    -1.3240065187
   80      C      -7.3328054028     2.0779466402    -2.8695894314
   81      H      -6.8764143191     1.3750335503    -2.1844944213
   82      C      -2.7892966482    -2.2378750695    -3.4689900241
   83      H      -1.7017727313    -2.2118724460    -3.5600106269
   84      H      -3.1580574805    -2.8269065451    -4.3119340466
   85      C      -2.4127362831     2.7464229663    -2.5613441365
   86      H      -1.8561632534     2.4778331109    -1.6620176577
   87      H      -3.1176815949     3.5279156331    -2.2682804760
   88      C      -3.1686419850    -2.9281959041    -2.1605542938
   89      H      -2.7716888897    -2.3914553032    -1.2995626464
   90      H      -2.7646554454    -3.9401333483    -2.1328326867
   91      H      -4.2517535160    -2.9947136305    -2.0483079090
   92      C      -1.4469696004     3.3031153883    -3.6063283284
   93      H      -0.6958166729     2.5653633096    -3.8854224642
   94      H      -0.9230984592     4.1742347477    -3.2123597471
   95      H      -1.9750858117     3.6093076167    -4.5104471039
   96      C       2.7066864505     0.1144002452     0.0093377438
   97      C       3.4712322288    -1.0187839318     0.3256714521
   98      C       4.6520898121    -0.8992205254     1.0502659560
   99      H       5.2321546151    -1.7866084774     1.2810705204
  100      C       5.0869708174     0.3388036326     1.5044547433
  101      C       4.3446524280     1.4678049748     1.1869303532
  102      H       4.6738895718     2.4416979778     1.5335410749
  103      C       3.1798281011     1.3661113705     0.4354849009
  104      N       6.2524105218     0.4350573859     2.2975967814
  105      C       7.1473101664     1.4985500808     2.1108786144
  106      C       7.6835152251     2.1846891554     3.2020260153
  107      H       7.4050670894     1.9017551799     4.2090599440
  108      C       8.5689765380     3.2328161791     3.0058178119
  109      H       8.9728670431     3.7516337965     3.8660721201
  110      C       8.9218781204     3.6311536928     1.7243475802
  111      H       9.6069992262     4.4551434940     1.5744650674
  112      C       8.3817915973     2.9576974035     0.6365703989
  113      H       8.6496127133     3.2516143592    -0.3704066137
  114      C       7.5107997576     1.8965593989     0.8228445299
  115      H       7.1060218942     1.3741523698    -0.0345160608
  116      C       6.3918043215    -0.4114528410     3.4099485307
  117      C       5.2939813604    -0.7275774928     4.2095765057
  118      H       4.3213649680    -0.3149810927     3.9744356384
  119      C       5.4434731243    -1.5656932290     5.3034083164
  120      H       4.5800558774    -1.8002782377     5.9128000028
  121      C       6.6876835298    -2.0878449706     5.6290149713
  122      H       6.8024151032    -2.7366180868     6.4873169239
  123      C       7.7834589458    -1.7691632888     4.8378376776
  124      H       8.7591046631    -2.1753594178     5.0731051159
  125      C       7.6392918354    -0.9472841978     3.7321585802
  126      H       8.4980960386    -0.7170583323     3.1141774036
  127      C       3.0175829225    -2.4029691460    -0.0576263768
  128      H       2.3772448089    -2.3624627707    -0.9413844895
  129      H       3.8846043186    -3.0088885857    -0.3355212122
  130      C       2.4694657236     2.6422310546     0.0634162109
  131      H       1.4036603850     2.4557467747    -0.0857739502
  132      H       2.5417983879     3.3582822399     0.8868262061
  133      C       2.2693400107    -3.0897315047     1.0828138134
  134      H       1.3776531762    -2.5260605692     1.3584316421
  135      H       1.9544572918    -4.0949413637     0.7992544458
  136      H       2.8988597655    -3.1726872688     1.9703790252
  137      C       3.0555261412     3.2674008350    -1.2007326828
  138      H       2.9819805558     2.5802251548    -2.0440737335
  139      H       2.5259461158     4.1830923772    -1.4679862328
  140      H       4.1090244435     3.5177860996    -1.0647503819
 ----------------------------------------------------------------
 Nuclear Repulsion Energy = 12130.7232117563 hartrees
 There are      270 alpha and      270 beta electrons
 Requested basis set is def2-mSVP
 There are 680 shells and 1320 basis functions

 Total QAlloc Memory Limit  14000 MB
 Mega-Array Size      1001 MB
 MEM_STATIC part      1024 MB
 Discretize the solute cavity surface with Lebedev spheres
	Using 302 Lebedev grid points for each H atom
	Using 302 Lebedev grid points for other atoms
	Atomic van der Waals radii will be scaled by 1.20
 Remove points where switching function is < 1.0e-08
 Keep 14643 surface tesserae and discard 27637 interior tesserae
 Molecular Surface Area = 1078.308 Angst**2
 A cutoff of  1.0D-11 yielded  62824 shell pairs
 There are    243892 function pairs (    268165 Cartesian)
 
 -------------------------------------------------------
 OpenMP Integral Computing Module                       
 Release: version 1.0, May 2013, Q-Chem Inc. Pittsburgh 
 -------------------------------------------------------
 Integral Job Info:
 Integral job number is                      11
 Integral operator is                         1
 short-range coefficients                     0
 long-range coefficients              100000000
 Omega coefficients                           0
 if combine SR and LR in K                    0
 Integral screening is                        0
 Integral computing path is                   2
 max size of driver memory is            800000
 size of driver memory is                593474
 size of scratch memory is              1809772
 max col of scratch BK array               1296
 max len of scratch array in speh3          155
 max len of scratch index in speh4           18
 max int batch size is                      520
 min int batch size is                       52
 fixed nKL is                                52
 max L of basis functions is                  2
 order of int derivative is                   0
 number of shells is                        680
 number of basis is                        1400
 number of cartesian basis is              1400
 number of contracted shell pairs         62824
 number of primitive shell pairs         129626
 maxK2 (contraction) of shell pair           25
 max number of K2 of shell pair               1
 max number of CS2 of shell pair          15554
 max number of PS2 of shell pair          22755
 mem total for path MDJ                 1128316
 -------------------------------------------------------
 Smallest overlap matrix eigenvalue = 1.96E-04

 Scale SEOQF with 1.000000e-02/1.000000e-01/1.000000e-02

 Standard Electronic Orientation quadrupole field applied
 Nucleus-field energy     =     0.0000000478 hartrees
 Guess from superposition of atomic densities
 Warning:  Energy on first SCF cycle will be non-variational
 SAD guess density has 540.000001 electrons

 -----------------------------------------------------------------------
  General SCF calculation program by
  Eric Jon Sundstrom, Paul Horn, Yuezhi Mao, Dmitri Zuev, Alec White,
  David Stuck, Shaama M.S., Shane Yost, Joonho Lee, David Small,
  Daniel Levine, Susi Lehtola, Hugh Burton, Evgeny Epifanovsky
 -----------------------------------------------------------------------
 Exchange:     0.4200 Hartree-Fock + 0.5800 PBEh-3c
 Correlation:  1.0000 PBEh-3c
 Using SG-1 standard quadrature grid
 Dispersion:   Grimme D3
 using 8 threads for integral computing
 -------------------------------------------------------
 OpenMP Integral computing Module                
 Release: version 2.0, May 2017, Q-Chem Inc. Pleasanton 
 -------------------------------------------------------
 -------------------------------------------------------
 OpenMP BLAS3 based DFT computing Module                
 Release: version 1.0, May 2013, Q-Chem Inc. Pittsburgh 
 -------------------------------------------------------
 A restricted SCF calculation will be
 performed using DIIS
 SCF converges when DIIS error is below 1.0e-08
 ---------------------------------------
  Cycle       Energy         DIIS error
 ---------------------------------------
    1   -3111.1216953678      2.35e-02  
    2   -3084.1666163403      1.58e-03  
    3   -3084.3635532508      1.38e-03  
    4   -3084.7421779301      4.86e-04  
    5   -3084.7939923167      1.57e-04  
    6   -3084.7996052017      4.44e-05  
    7   -3084.8000166862      1.39e-05  
    8   -3084.8000601705      4.35e-06  
    9   -3084.8000648338      1.30e-06  
   10   -3084.8000653974      4.18e-07  
   11   -3084.8000654483      1.53e-07  
   12   -3084.8000651933      6.37e-08  
   13   -3084.8000654091      2.08e-08  
   14   -3084.8000653984      9.22e-09  Convergence criterion met
 ---------------------------------------
 SCF time:   CPU 25249.38s  wall 3484.00s 

************** Final PCM Free Energy Summary **************
 G_electrostatic  =      -0.02883242 hartree =     -18.09261387 kcal/mol
 G_cavitation     =       0.00000000 hartree =       0.00000000 kcal/mol
 G_dispersion     =       0.00000000 hartree =       0.00000000 kcal/mol
 G_repulsion      =       0.00000000 hartree =       0.00000000 kcal/mol
 --------------------------------------------------
 Non-electrostatic Free Energy =       0.00000000 hartree =       0.00000000 kcal/mol
 Total                         =      -0.02883242 hartree =     -18.09261387 kcal/mol
 --------------------------------------------------
 SCF Energy (H0 + V/2)                       =   -3084.80006540 
 Solute Internal Energy (H0)                 =   -3084.77123298 
 Total Free Energy (H0 + V/2 + non-elec)     =   -3084.80006540 hartree
                                             = -1935741.25717892 kcal/mol
***********************************************************

 SCF   energy in the final basis set =    -3084.8000653984
 Total energy in the final basis set =    -3084.8000653984
 
 Direct TDDFT/TDA calculation will be performed
 Exchange:     0.4200 Hartree-Fock + 0.5800 PBEh-3c
 Correlation:  1.0000 PBEh-3c
 Using SG-1 standard quadrature grid
 Dispersion:   Grimme D3
 Triplet excitation energies requested
 Singlet excitation energies requested
 Adding PCM contribution to the XC response
 CIS energy converged when residual is below 10e- 6
 ---------------------------------------------------
 Iter    Rts Conv    Rts Left    Ttl Dev     Max Dev
 ---------------------------------------------------
   1         0           6      0.000180    0.000056
   2         0           6      0.000076    0.000022
   3         0           6      0.000042    0.000012
   4         1           5      0.000060    0.000043
   5         2           4      0.000079    0.000049
   6         3           3      0.000034    0.000019
   7         3           3      0.000020    0.000013
   8         4           2      0.000009    0.000005
   9         5           1      0.000004    0.000002
  10         6           0      0.000003    0.000001    Roots Converged
 ---------------------------------------------------
 Triplets done: starting singlet calculation
 ---------------------------------------------------
 Iter    Rts Conv    Rts Left    Ttl Dev     Max Dev
 ---------------------------------------------------
  11         0           6      0.000293    0.000120
  12         0           6      0.000138    0.000033
  13         0           6      0.000058    0.000019
  14         0           6      0.000020    0.000008
  15         3           3      0.000010    0.000004
  16         4           2      0.000006    0.000003
  17         5           1      0.000007    0.000004
  18         5           1      0.000006    0.000003
  19         5           1      0.000005    0.000002
  20         5           1      0.000004    0.000001
  21         5           1      0.000004    0.000001
  22         5           1      0.000004    0.000001
  23         5           1      0.000004    0.000001
  24         6           0      0.000003    0.000001    Roots Converged
 ---------------------------------------------------
 
 ---------------------------------------------------
         TDDFT/TDA Excitation Energies              
 ---------------------------------------------------

 Excited state   1: excitation energy (eV) =    1.7513
 Total energy for state  1:                 -3084.73570735 au
    Multiplicity: Triplet
    Trans. Mom.:  0.0000 X   0.0000 Y   0.0000 Z
    Strength   :     0.0000000000
    D(270) --> V(  1) amplitude =  0.9699

 Excited state   2: excitation energy (eV) =    1.7946
 Total energy for state  2:                 -3084.73411522 au
    Multiplicity: Singlet
    Trans. Mom.: -0.8192 X   0.1093 Y  -0.2970 Z
    Strength   :     0.0339087989
    D(270) --> V(  1) amplitude =  0.9764

 Excited state   3: excitation energy (eV) =    2.2325
 Total energy for state  3:                 -3084.71802344 au
    Multiplicity: Triplet
    Trans. Mom.:  0.0000 X   0.0000 Y   0.0000 Z
    Strength   :     0.0000000000
    D(261) --> V(  2) amplitude = -0.2272
    D(267) --> V(  1) amplitude =  0.8229
    D(268) --> V(  1) amplitude =  0.4034

 Excited state   4: excitation energy (eV) =    2.4312
 Total energy for state  4:                 -3084.71072131 au
    Multiplicity: Triplet
    Trans. Mom.:  0.0000 X   0.0000 Y   0.0000 Z
    Strength   :     0.0000000000
    D(266) --> V(  2) amplitude = -0.4407
    D(267) --> V(  1) amplitude = -0.3644
    D(268) --> V(  1) amplitude =  0.7023

 Excited state   5: excitation energy (eV) =    2.4844
 Total energy for state  5:                 -3084.70876429 au
    Multiplicity: Triplet
    Trans. Mom.:  0.0000 X   0.0000 Y   0.0000 Z
    Strength   :     0.0000000000
    D(266) --> V(  1) amplitude = -0.6155
    D(268) --> V(  2) amplitude =  0.4574
    D(269) --> V(  1) amplitude = -0.4568

 Excited state   6: excitation energy (eV) =    2.5042
 Total energy for state  6:                 -3084.70803784 au
    Multiplicity: Triplet
    Trans. Mom.:  0.0000 X   0.0000 Y   0.0000 Z
    Strength   :     0.0000000000
    D(266) --> V(  1) amplitude = -0.3296
    D(268) --> V(  2) amplitude =  0.2629
    D(269) --> V(  1) amplitude =  0.8348

 Excited state   7: excitation energy (eV) =    2.5185
 Total energy for state  7:                 -3084.70751212 au
    Multiplicity: Singlet
    Trans. Mom.: -0.2549 X  -0.0260 Y  -0.2452 Z
    Strength   :     0.0077603388
    D(269) --> V(  1) amplitude =  0.9729

 Excited state   8: excitation energy (eV) =    2.7405
 Total energy for state  8:                 -3084.69935381 au
    Multiplicity: Triplet
    Trans. Mom.:  0.0000 X   0.0000 Y   0.0000 Z
    Strength   :     0.0000000000
    D(261) --> V(  1) amplitude = -0.6558
    D(267) --> V(  2) amplitude =  0.5410

 Excited state   9: excitation energy (eV) =    2.9023
 Total energy for state  9:                 -3084.69340630 au
    Multiplicity: Singlet
    Trans. Mom.: -0.1504 X   0.0081 Y   0.3113 Z
    Strength   :     0.0085055767
[...]
    Charge (ESU x 10^10)
                -0.0000
    Dipole Moment (Debye)
         X     -23.8989      Y       2.9919      Z     -12.0760
       Tot      26.9432
    Quadrupole Moments (Debye-Ang)
        XX    -294.1783     XY     -24.0668     YY    -446.9896
        XZ     116.3204     YZ      -6.3377     ZZ    -365.8682
    Octopole Moments (Debye-Ang^2)
       XXX   -1245.4601    XXY      95.7436    XYY    -143.1293
       YYY    -343.9523    XXZ    -200.3163    XYZ      13.9324
       YYZ     545.4300    XZZ    -647.4607    YZZ    -219.3871
       ZZZ    1243.5411
    Hexadecapole Moments (Debye-Ang^3)
      XXXX  -56483.7665   XXXY    -803.6895   XXYY  -10903.5291
      XYYY     167.3643   YYYY   -7643.0785   XXXZ   -3735.3940
      XXYZ     -96.7179   XYYZ   -1960.4728   YYYZ     649.6184
      XXZZ  -14223.3367   XYZZ     297.1106   YYZZ  -10002.4513
      XZZZ   -5180.3073   YZZZ    1373.5693   ZZZZ  -44189.8566
 -----------------------------------------------------------------
 -----------------------------------------------------------------
               TDA Excited-State Multipoles, State  2
 -----------------------------------------------------------------
    Charge (ESU x 10^10)
                -0.0000
    Dipole Moment (Debye)
         X     -23.7597      Y       2.9801      Z     -12.1337
       Tot      26.8446
    Quadrupole Moments (Debye-Ang)
        XX    -294.1973     XY     -24.0739     YY    -447.0311
        XZ     116.0203     YZ      -6.2840     ZZ    -365.6000
    Octopole Moments (Debye-Ang^2)
       XXX   -1244.2908    XXY      95.9188    XYY    -142.9485
       YYY    -343.9144    XXZ    -202.0618    XYZ      13.9065
       YYZ     545.5406    XZZ    -644.9782    YZZ    -219.6982
       ZZZ    1239.1484
    Hexadecapole Moments (Debye-Ang^3)
      XXXX  -56468.9344   XXXY    -805.5547   XXYY  -10902.1476
      XYYY     166.9417   YYYY   -7643.7020   XXXZ   -3731.1746
      XXYZ     -96.4184   XYYZ   -1960.3814   YYYZ     649.5551
      XXZZ  -14213.1873   XYZZ     297.4171   YYZZ  -10002.5678
      XZZZ   -5187.2463   YZZZ    1375.4415   ZZZZ  -44159.1211
 -----------------------------------------------------------------
 -----------------------------------------------------------------
               TDA Excited-State Multipoles, State  3
 -----------------------------------------------------------------
    Charge (ESU x 10^10)
                -0.0000
    Dipole Moment (Debye)
         X      -2.2213      Y       0.1622      Z      -0.7845
       Tot       2.3614
    Quadrupole Moments (Debye-Ang)
        XX    -401.8942     XY      -3.6258     YY    -459.4592
        XZ     -11.7375     YZ       0.9705     ZZ    -376.5078
    Octopole Moments (Debye-Ang^2)
       XXX     -94.3690    XXY     -60.7395    XYY      -5.2127
       YYY    -386.5279    XXZ     498.1120    XYZ     -26.3701
       YYZ     615.1011    XZZ      33.0533    YZZ    -231.9507
       ZZZ    1475.1683
    Hexadecapole Moments (Debye-Ang^3)
      XXXX  -63969.7036   XXXY     653.4145   XXYY  -11781.9843
      XYYY     560.7468   YYYY   -7864.3106   XXXZ   -9628.3044
      XXYZ     286.8416   XYYZ   -2472.5494   YYYZ     796.9156
      XXZZ  -17475.6738   XYZZ     251.9671   YYZZ  -10266.7377
      XZZZ  -10182.6066   YZZZ    1254.9358   ZZZZ  -43960.2157
 -----------------------------------------------------------------
 -----------------------------------------------------------------
               TDA Excited-State Multipoles, State  4
 -----------------------------------------------------------------
    Charge (ESU x 10^10)
                -0.0000
    Dipole Moment (Debye)
         X      -1.9442      Y       0.1739      Z      -0.8918
       Tot       2.1461
    Quadrupole Moments (Debye-Ang)
        XX    -395.3223     XY      -3.3303     YY    -458.9530
        XZ     -12.7970     YZ       1.0950     ZZ    -368.0631
    Octopole Moments (Debye-Ang^2)
       XXX     -83.2173    XXY     -58.0554    XYY      -1.9628
       YYY    -386.2354    XXZ     512.3095    XYZ     -26.1327
       YYZ     615.9366    XZZ      43.4729    YZZ    -234.6546
       ZZZ    1412.4614
    Hexadecapole Moments (Debye-Ang^3)
      XXXX  -63704.5151   XXXY     682.2435   XXYY  -11757.8881
      XYYY     567.0352   YYYY   -7857.6196   XXXZ   -9655.5867
      XXYZ     288.4026   XYYZ   -2470.6977   YYYZ     798.8263
      XXZZ  -17357.4184   XYZZ     245.7349   YYZZ  -10255.4180
      XZZZ  -10353.2711   YZZZ    1268.9293   ZZZZ  -43191.2457
 -----------------------------------------------------------------
 -----------------------------------------------------------------
               TDA Excited-State Multipoles, State  5
 -----------------------------------------------------------------
    Charge (ESU x 10^10)
                -0.0000
    Dipole Moment (Debye)
         X       2.2911      Y       0.5916      Z       2.6477
       Tot       3.5510
    Quadrupole Moments (Debye-Ang)
        XX    -373.1664     XY       0.6710     YY    -456.1706
        XZ       5.8617     YZ       0.3297     ZZ    -383.1176
    Octopole Moments (Debye-Ang^2)
       XXX     154.4879    XXY     -25.6842    XYY      26.5161
       YYY    -380.3840    XXZ     613.0244    XYZ     -28.8319
       YYZ     627.2589    XZZ      59.4786    YZZ    -236.4098
       ZZZ    1575.7065
    Hexadecapole Moments (Debye-Ang^3)
      XXXX  -62154.7591   XXXY    1015.0057   XXYY  -11568.3731
      XYYY     634.6901   YYYY   -7816.5933   XXXZ   -8945.7460
      XXYZ     300.0287   XYYZ   -2409.3072   YYYZ     804.9947
      XXZZ  -17294.7950   XYZZ     227.0715   YYZZ  -10245.3903
      XZZZ   -9738.1253   YZZZ    1197.8402   ZZZZ  -44346.5624
 -----------------------------------------------------------------
 -----------------------------------------------------------------
               TDA Excited-State Multipoles, State  6
 -----------------------------------------------------------------
    Charge (ESU x 10^10)
                -0.0000
    Dipole Moment (Debye)
         X      15.0683      Y       1.6185      Z       9.3896
       Tot      17.8280
    Quadrupole Moments (Debye-Ang)
        XX    -314.5287     XY      11.4053     YY    -449.6779
        XZ      50.5469     YZ      -1.1347     ZZ    -408.2012
    Octopole Moments (Debye-Ang^2)
       XXX     826.5310    XXY      59.4158    XYY     107.0161
       YYY    -365.4976    XXZ     886.9020    XYZ     -35.6200
       YYZ     658.0507    XZZ     172.1312    YZZ    -245.8690
       ZZZ    1820.4503
    Hexadecapole Moments (Debye-Ang^3)
      XXXX  -58054.0456   XXXY    1936.2213   XXYY  -11077.0899
      XYYY     823.3518   YYYY   -7720.4592   XXXZ   -7144.6324
      XXYZ     339.5369   XYYZ   -2257.9403   YYYZ     826.7729
      XXZZ  -17115.4091   XYZZ     161.8645   YYZZ  -10215.3366
      XZZZ   -8475.0956   YZZZ    1039.3429   ZZZZ  -46077.6413
 -----------------------------------------------------------------
 -----------------------------------------------------------------
               TDA Excited-State Multipoles, State  7
 -----------------------------------------------------------------
    Charge (ESU x 10^10)
                -0.0000
    Dipole Moment (Debye)
         X      20.7389      Y       2.1198      Z      13.3386
       Tot      24.7490
    Quadrupole Moments (Debye-Ang)
        XX    -285.5169     XY      16.6897     YY    -446.5481
        XZ      72.9088     YZ      -1.9699     ZZ    -422.0938
    Octopole Moments (Debye-Ang^2)
       XXX    1140.2361    XXY     101.4000    XYY     145.6898
       YYY    -358.3982    XXZ    1032.1147    XYZ     -39.2432
       YYZ     673.7016    XZZ     208.7433    YZZ    -249.8192
       ZZZ    1966.9854
    Hexadecapole Moments (Debye-Ang^3)
      XXXX  -56031.7547   XXXY    2386.2657   XXYY  -10835.8554
      XYYY     914.8366   YYYY   -7674.5958   XXXZ   -6248.1099
      XXYZ     355.2848   XYYZ   -2182.9361   YYYZ     837.1876
      XXZZ  -17049.0855   XYZZ     133.1113   YYZZ  -10202.2181
      XZZZ   -7787.3689   YZZZ     956.6858   ZZZZ  -47062.3509
 -----------------------------------------------------------------
 -----------------------------------------------------------------
               TDA Excited-State Multipoles, State  8
 -----------------------------------------------------------------
    Charge (ESU x 10^10)
                -0.0000
    Dipole Moment (Debye)
         X      -2.2955      Y       0.2703      Z      -0.9729
       Tot       2.5078
    Quadrupole Moments (Debye-Ang)
        XX    -400.0168     XY      -3.4491     YY    -458.1255
        XZ      -4.2185     YZ       0.6857     ZZ    -383.0260
    Octopole Moments (Debye-Ang^2)
       XXX    -102.2378    XXY     -54.8818    XYY      -4.0301
       YYY    -384.7691    XXZ     512.0281    XYZ     -27.0047
       YYZ     614.0389    XZZ      11.0547    YZZ    -231.4096
       ZZZ    1480.4630
    Hexadecapole Moments (Debye-Ang^3)
      XXXX  -63793.6745   XXXY     665.2260   XXYY  -11743.1834
      XYYY     561.5798   YYYY   -7845.3076   XXXZ   -9370.9803
      XXYZ     278.4049   XYYZ   -2452.7835   YYYZ     793.8554
      XXZZ  -17532.3223   XYZZ     255.7361   YYZZ  -10261.9124
      XZZZ   -9912.6124   YZZZ    1247.9146   ZZZZ  -44265.5866
 -----------------------------------------------------------------
 -----------------------------------------------------------------
               TDA Excited-State Multipoles, State  9
 -----------------------------------------------------------------
    Charge (ESU x 10^10)
                -0.0000
    Dipole Moment (Debye)
         X      -2.3806      Y       0.1056      Z      -0.7305
       Tot       2.4924
    Quadrupole Moments (Debye-Ang)
        XX    -401.8291     XY      -3.7086     YY    -460.5959
        XZ     -17.6436     YZ       1.2125     ZZ    -369.3078
    Octopole Moments (Debye-Ang^2)
       XXX     -97.6935    XXY     -63.5945    XYY      -5.6969
       YYY    -387.6248    XXZ     497.3213    XYZ     -25.7626
       YYZ     616.4154    XZZ      47.2137    YZZ    -233.0429
       ZZZ    1444.5846
    Hexadecapole Moments (Debye-Ang^3)
      XXXX  -64034.1978   XXXY     649.4427   XXYY  -11805.7461
      XYYY     560.6254   YYYY   -7879.8518   XXXZ   -9791.9233
      XXYZ     290.8322   XYYZ   -2486.2965   YYYZ     799.7454
      XXZZ  -17420.1832   XYZZ     248.6950   YYZZ  -10270.1350
      XZZZ  -10400.0810   YZZZ    1265.3128   ZZZZ  -43520.6408
 -----------------------------------------------------------------
 -----------------------------------------------------------------
               TDA Excited-State Multipoles, State 10
 -----------------------------------------------------------------
    Charge (ESU x 10^10)
                -0.0000
    Dipole Moment (Debye)
         X     -24.9793      Y       3.5136      Z     -13.1850
       Tot      28.4632
    Quadrupole Moments (Debye-Ang)
        XX    -287.5594     XY     -25.7369     YY    -442.1529
        XZ     155.7578     YZ      -8.0131     ZZ    -402.7955
    Octopole Moments (Debye-Ang^2)
       XXX   -1350.2259    XXY     126.2493    XYY    -154.5300
       YYY    -334.2357    XXZ    -265.6931    XYZ      14.3462
       YYZ     535.2754    XZZ    -781.8626    YZZ    -213.5293
       ZZZ    1380.7296
    Hexadecapole Moments (Debye-Ang^3)
      XXXX  -55452.7207   XXXY    -946.1101   XXYY  -10710.8434
      XYYY     124.6213   YYYY   -7562.7856   XXXZ   -2289.0726
      XXYZ    -155.6487   XYYZ   -1841.5560   YYYZ     620.4956
      XXZZ  -14210.4913   XYZZ     324.4882   YYZZ   -9981.8513
      XZZZ   -3531.3890   YZZZ    1339.1175   ZZZZ  -46603.0920
 -----------------------------------------------------------------
 -----------------------------------------------------------------
               TDA Excited-State Multipoles, State 11
 -----------------------------------------------------------------
    Charge (ESU x 10^10)
                -0.0000
    Dipole Moment (Debye)
         X      -2.8523      Y       0.0774      Z      -0.8265
       Tot       2.9707
    Quadrupole Moments (Debye-Ang)
        XX    -395.7623     XY      -3.8466     YY    -460.5551
        XZ     -22.9114     YZ       1.4482     ZZ    -355.8635
    Octopole Moments (Debye-Ang^2)
       XXX    -116.3471    XXY     -64.6981    XYY      -6.3863
       YYY    -388.1279    XXZ     500.4012    XYZ     -24.5760
       YYZ     616.1023    XZZ      54.7212    YZZ    -235.7342
       ZZZ    1365.5814
    Hexadecapole Moments (Debye-Ang^3)
      XXXX  -63892.8633   XXXY     642.1236   XXYY  -11806.0089
      XYYY     559.4805   YYYY   -7881.3273   XXXZ   -9977.0440
      XXYZ     292.2527   XYYZ   -2493.1035   YYYZ     801.2011
      XXZZ  -17247.2443   XYZZ     242.6445   YYZZ  -10259.7380
      XZZZ  -10735.2005   YZZZ    1289.9469   ZZZZ  -42428.7757
 -----------------------------------------------------------------
 -----------------------------------------------------------------
               TDA Excited-State Multipoles, State 12
 -----------------------------------------------------------------
    Charge (ESU x 10^10)
                -0.0000
    Dipole Moment (Debye)
         X     -21.5372      Y       3.0432      Z     -10.3323
       Tot      24.0805
    Quadrupole Moments (Debye-Ang)
        XX    -296.8583     XY     -23.3498     YY    -446.1089
        XZ     113.7931     YZ      -6.5915     ZZ    -374.5946
    Octopole Moments (Debye-Ang^2)
       XXX   -1160.0281    XXY      94.6433    XYY    -133.5378
       YYY    -342.6792    XXZ    -176.0706    XYZ      12.3745
       YYZ     548.9301    XZZ    -620.4634    YZZ    -218.7487
       ZZZ    1338.4875
    Hexadecapole Moments (Debye-Ang^3)
      XXXX  -56588.0224   XXXY    -738.7664   XXYY  -10898.2676
      XYYY     183.2357   YYYY   -7630.2088   XXXZ   -3875.4233
      XXYZ     -82.7415   XYYZ   -1965.8349   YYYZ     648.4459
      XXZZ  -14316.4425   XYZZ     296.9008   YYZZ  -10012.0263
      XZZZ   -5258.1168   YZZZ    1354.6834   ZZZZ  -44740.9295
 -----------------------------------------------------------------
Archival summary:
1\1\ctcp007\SP\ProcedureUnspecified\BasisUnspecified\276260\mewes\MonNov501:44:402018MonNov501:44:402018\0\\#,ProcedureUnspecified,BasisUnspecified,\\0,1\C\C,1,1.40662\H,2,1.08535,1,119.269\C,2,1.37267,1,120.882,3,-179.87,0\C,4,1.42668,2,120.653,1,-0.427434,0\C,5,1.37418,4,119.442,2,-0.291155,0\H,6,1.08619,5,119.498,4,-179.605,0\C,6,1.41596,5,120.857,4,0.731463,0\C,4,1.45529,2,130.814,1,179.336,0\C,9,1.37357,4,134.874,2,0.253594,0\H,10,1.0835,9,121.816,4,0.236928,0\C,9,1.40956,4,106.238,2,-179.578,0\C,12,1.39199,9,123.77,4,179.634,0\C,12,1.41193,9,111.404,4,-0.11552,0\C,14,1.37248,12,117.919,9,179.671,0\H,15,1.08316,14,121.859,12,-179.731,0\C,10,1.41363,9,118.42,4,-179.74,0\H,17,1.0829,10,118.526,9,-179.99,0\C,17,1.37707,10,122.458,9,0.086905,0\H,19,1.08327,17,119.872,10,179.875,0\C,15,1.41551,14,118.595,12,0.067868,0\H,21,1.08265,15,118.348,14,-179.891,0\C,21,1.37689,15,122.841,14,-0.010892,0\H,23,1.08323,21,119.997,15,-179.939,0\B,8,1.53155,6,121.59,5,-179.395,0\C,25,1.52877,8,120.8,6,-177.357,0\C,26,1.41567,25,121.334,8,177.5,0\H,27,1.08621,26,119.683,25,-0.450903,0\C,27,1.37288,26,120.794,25,179.42,0\C,29,1.4276,27,119.585,26,-0.54614,0\C,30,1.37208,29,120.598,27,0.04006,0\H,31,1.08566,30,119.846,29,-179.52,0\C,31,1.40657,30,120.767,29,0.443815,0\C,30,1.45708,29,108.473,27,-179.745,0\C,34,1.37444,30,135.089,29,-179.897,0\H,35,1.08336,34,121.838,30,-0.155177,0\C,34,1.4095,30,106.183,29,-0.080409,0\C,37,1.39352,34,123.763,30,-179.736,0\C,37,1.41156,34,111.522,30,0.019124,0\C,39,1.37308,37,117.891,34,-179.698,0\H,40,1.08309,39,121.848,37,179.803,0\C,35,1.41404,34,118.567,30,179.772,0\H,42,1.08295,35,118.508,34,-179.992,0\C,42,1.37667,35,122.457,34,-0.049928,0\H,44,1.08338,42,119.959,35,-179.917,0\C,38,1.41532,37,116.047,34,179.737,0\H,46,1.08341,38,120.091,37,-179.954,0\C,46,1.37675,38,119.85,37,-0.0518,0\H,48,1.0827,46,118.828,38,-179.919,0\B,33,1.53557,31,120.17,30,-179.542,0\C,25,1.57968,8,119.185,6,6.79561,0\C,51,1.41784,25,122.097,8,-100.605,0\C,52,1.37613,51,120.338,25,176.769,0\H,53,1.08307,52,119.883,51,-176.698,0\C,53,1.4099,52,120.187,51,-0.3547,0\N,55,1.36889,53,120.928,52,-177.354,0\C,56,1.40782,55,121.583,53,-29.4735,0\C,57,1.39392,56,119.58,55,137.962,0\H,58,1.08216,57,120.299,56,-1.43845,0\C,58,1.38278,57,119.26,56,179.987,0\H,60,1.0814,58,119.5,57,179.106,0\C,60,1.39003,58,120.334,57,-0.292333,0\H,62,1.08164,60,119.967,58,-179.993,0\C,62,1.38895,60,120.085,58,-0.271713,0\H,64,1.08146,62,120.261,60,-178.961,0\C,64,1.38319,62,120.246,60,0.228485,0\H,66,1.08237,64,120.408,62,-178.199,0\C,55,1.40931,53,119.618,52,1.95029,0\H,68,1.08281,55,119.726,53,176.276,0\C,68,1.37331,55,120.555,53,-1.1321,0\C,56,1.41293,55,119.712,53,150.395,0\C,71,1.39245,56,119.815,55,131.693,0\H,72,1.0823,71,120.297,56,-0.320368,0\C,72,1.38361,71,119.169,56,-178.668,0\H,74,1.08151,72,119.522,71,178.842,0\C,74,1.38977,72,120.334,71,-0.512802,0\H,76,1.08169,74,119.921,72,179.917,0\C,76,1.38879,74,120.131,72,-0.141033,0\H,78,1.08147,76,120.286,74,-179.303,0\C,78,1.38344,76,120.163,74,0.37788,0\H,80,1.08247,78,120.39,76,-179.121,0\C,52,1.50428,51,120.299,25,-0.218743,0\H,82,1.09164,52,109.561,51,-36.963,0\H,82,1.09247,52,109.363,51,-153.4,0\C,70,1.50598,68,118.863,55,176.739,0\H,85,1.09119,70,109.796,68,145.28,0\H,85,1.0925,70,109.279,68,28.8058,0\C,82,1.52724,52,112.467,51,84.7398,0\H,88,1.08948,82,111.338,52,-61.0628,0\H,88,1.08995,82,110.449,52,179.466,0\H,88,1.09094,82,111.242,52,59.5654,0\C,85,1.52794,70,112.446,68,-92.7645,0\H,92,1.08922,85,111.368,70,-61.3582,0\H,92,1.09018,85,110.347,70,179.205,0\H,92,1.09091,85,111.29,70,59.4101,0\C,50,1.58598,33,121.078,31,4.1366,0\C,96,1.4031,50,122.053,33,-85.1695,0\C,97,1.3906,96,120.714,50,-177.91,0\H,98,1.08499,97,119.638,96,-179.704,0\C,98,1.38857,97,120.867,96,1.50075,0\C,100,1.38799,98,118.875,97,-2.04395,0\H,101,1.0849,100,119.656,98,-179.877,0\C,101,1.3899,100,120.822,98,0.45247,0\N,100,1.41301,98,120.176,97,176.75,0\C,104,1.4024,100,120.215,98,140.867,0\C,105,1.39603,104,120.914,100,135.685,0\H,106,1.08245,105,119.992,104,-0.367703,0\C,106,1.38604,105,120.424,104,179.887,0\H,108,1.08275,106,119.221,105,179.986,0\C,108,1.38758,106,120.684,105,0.978915,0\H,110,1.08204,108,120.502,106,179.486,0\C,110,1.3887,108,119.03,106,-0.446524,0\H,112,1.08264,110,120.046,108,-179.701,0\C,112,1.3854,110,120.706,108,-0.481958,0\H,114,1.08251,112,119.883,110,-179.337,0\C,104,1.40476,100,119.03,98,-49.4794,0\C,116,1.39447,104,120.834,100,-37.9986,0\H,117,1.08236,116,119.765,104,-0.167151,0\C,117,1.38609,116,120.311,104,179.899,0\H,119,1.08253,117,119.291,116,-179.988,0\C,119,1.38806,117,120.614,116,0.838145,0\H,121,1.08201,119,120.443,117,179.596,0\C,121,1.38861,119,119.167,117,-0.52113,0\H,123,1.0827,121,120.078,119,-179.452,0\C,123,1.38521,121,120.586,119,-0.380938,0\H,125,1.0828,123,119.945,121,-179.118,0\C,97,1.50621,96,121.38,50,-0.34052,0\H,127,1.09211,97,110.392,96,26.9516,0\H,127,1.09366,97,109.575,96,143.628,0\C,103,1.50716,101,117.808,100,-176.583,0\H,130,1.09223,103,110.431,101,-153.421,0\H,130,1.0936,103,109.715,101,-36.6798,0\C,127,1.52713,97,111.765,96,-95.1739,0\H,133,1.09032,127,110.916,97,60.6291,0\H,133,1.09087,127,111.205,97,-179.392,0\H,133,1.09131,127,111.034,97,-59.1937,0\C,130,1.52721,103,111.72,101,84.6454,0\H,137,1.09034,130,110.877,103,59.3295,0\H,137,1.09104,130,111.104,103,179.27,0\H,137,1.09135,130,111.175,103,-60.6076,0\\\@

 Total job time:  37843.23s(wall), 108407.37s(cpu) 
 Mon Nov  5 01:44:40 2018

        *************************************************************
        *                                                           *
        *  Thank you very much for using Q-Chem.  Have a nice day.  *
        *                                                           *
        *************************************************************


0 sent ACK to 0 
now end server 0 ... 
