mFile = /cm/shared/apps/q-chem/intel/QCHEM_5.1.0_Trunk/bin/mpi/machines
Process 0 of 1 is on ctcp007 - thread support 0
initial socket setup ...start
initial socket setup ...done 
now start server 0 ... 
Q-Chem Developer Version!
                  Welcome to Q-Chem
     A Quantum Leap Into The Future Of Chemistry


 Q-Chem 5.1, Q-Chem, Inc., Pleasanton, CA (2018)

 Yihan Shao,  Zhengting Gan,  E. Epifanovsky,  A. T. B. Gilbert,  M. Wormit,  
 J. Kussmann,  A. W. Lange,  A. Behn,  Jia Deng,  Xintian Feng,  D. Ghosh,  
 M. Goldey,  P. R. Horn,  L. D. Jacobson,  I. Kaliman,  T. Kus,  A. Landau,  
 Jie Liu,  E. I. Proynov,  R. M. Richard,  R. P. Steele,  E. J. Sundstrom,  
 H. L. Woodcock III,  P. M. Zimmerman,  D. Zuev,  B. Albrecht,  E. Alguire,  
 S. A. Baeppler,  D. Barton,  Z. Benda,  Y. A. Bernard,  E. J. Berquist,  
 K. B. Bravaya,  H. Burton,  D. Casanova,  Chun-Min Chang,  Yunqing Chen,  
 A. Chien,  K. D. Closser,  M. P. Coons,  S. Coriani,  S. Dasgupta,  
 A. L. Dempwolff,  M. Diedenhofen,  Hainam Do,  R. G. Edgar,  Po-Tung Fang,  
 S. Faraji,  S. Fatehi,  Qingguo Feng,  K. D. Fenk,  J. Fosso-Tande,  
 Qinghui Ge,  A. Ghysels,  G. Gidofalvi,  J. Gomes,  J. Gonthier,  A. Gunina,  
 D. Hait,  M. W. D. Hanson-Heine,  P. H. P. Harbach,  A. W. Hauser,  
 J. E. Herr,  E. G. Hohenstein,  Z. C. Holden,  Kerwin Hui,  B. C. Huynh,  
 T.-C. Jagau,  Hyunjun Ji,  B. Kaduk,  K. Khistyaev,  Jaehoon Kim,  
 P. Klunzinger,  K. Koh,  D. Kosenkov,  L. Koulias,  T. Kowalczyk,  
 C. M. Krauter,  A. Kunitsa,  Ka Un Lao,  A. Laurent,  K. V. Lawler,  
 Joonho Lee,  D. Lefrancois,  S. Lehtola,  D. S. Levine,  Yi-Pei Li,  
 You-Sheng Lin,  Fenglai Liu,  E. Livshits,  A. Luenser,  P. Manohar,  
 E. Mansoor,  S. F. Manzer,  Shan-Ping Mao,  Yuezhi Mao,  N. Mardirossian,  
 A. V. Marenich,  T. Markovich,  L. A. Martinez-Martinez,  S. A. Maurer,  
 N. J. Mayhall,  S. C. McKenzie,  J.-M. Mewes,  A. F. Morrison,  
 J. W. Mullinax,  K. Nanda,  T. S. Nguyen-Beck,  R. Olivares-Amaya,  
 J. A. Parkhill,  T. M. Perrine,  F. Plasser,  P. Pokhilko,  S. Prager,  
 A. Prociuk,  E. Ramos,  D. R. Rehn,  F. Rob,  M. Schneider,  N. Sergueev,  
 S. M. Sharada,  S. Sharma,  D. W. Small,  T. Stauch,  T. Stein,  
 Yu-Chuan Su,  A. J. W. Thom,  A. Tkatchenko,  T. Tsuchimochi,  N. M. Tubman,  
 L. Vogt,  M. L. Vidal,  O. Vydrov,  M. A. Watson,  J. Wenzel,  
 M. de Wergifosse,  T. A. Wesolowski,  A. White,  J. Witte,  A. Yamada,  
 Jun Yang,  K. Yao,  S. Yeganeh,  S. R. Yost,  Zhi-Qiang You,  A. Zech,  
 Igor Ying Zhang,  Xing Zhang,  Yan Zhao,  Ying Zhu,  B. R. Brooks,  
 G. K. L. Chan,  C. J. Cramer,  M. S. Gordon,  W. J. Hehre,  A. Klamt,  
 M. W. Schmidt,  C. D. Sherrill,  D. G. Truhlar,  A. Aspuru-Guzik,  R. Baer,  
 A. T. Bell,  N. A. Besley,  Jeng-Da Chai,  A. E. DePrince, III,  
 R. A. DiStasio Jr.,  A. Dreuw,  B. D. Dunietz,  T. R. Furlani,  
 Chao-Ping Hsu,  Yousung Jung,  Jing Kong,  D. S. Lambrecht,  WanZhen Liang,  
 C. Ochsenfeld,  V. A. Rassolov,  L. V. Slipchenko,  J. E. Subotnik,  
 T. Van Voorhis,  J. M. Herbert,  A. I. Krylov,  P. M. W. Gill,  M. Head-Gordon

 Contributors to earlier versions of Q-Chem not listed above: 
 R. D. Adamson,  B. Austin,  J. Baker,  G. J. O. Beran,  K. Brandhorst,  
 S. T. Brown,  E. F. C. Byrd,  A. K. Chakraborty,  C.-L. Cheng,  
 Siu Hung Chien,  D. M. Chipman,  D. L. Crittenden,  H. Dachsel,  
 R. J. Doerksen,  A. D. Dutoi,  L. Fusti-Molnar,  W. A. Goddard III,  
 A. Golubeva-Zadorozhnaya,  S. R. Gwaltney,  G. Hawkins,  A. Heyden,  
 S. Hirata,  G. Kedziora,  F. J. Keil,  C. Kelley,  Jihan Kim,  R. A. King,  
 R. Z. Khaliullin,  P. P. Korambath,  W. Kurlancheek,  A. M. Lee,  M. S. Lee,  
 S. V. Levchenko,  Ching Yeh Lin,  D. Liotard,  R. C. Lochan,  I. Lotan,  
 P. E. Maslen,  N. Nair,  D. P. O'Neill,  D. Neuhauser,  E. Neuscamman,  
 C. M. Oana,  R. Olson,  B. Peters,  R. Peverati,  P. A. Pieniazek,  
 Y. M. Rhee,  J. Ritchie,  M. A. Rohrdanz,  E. Rosta,  N. J. Russ,  
 H. F. Schaefer III,  N. E. Schultz,  N. Shenvi,  A. C. Simmonett,  A. Sodt,  
 D. Stuck,  K. S. Thanthiriwatte,  V. Vanovschi,  Tao Wang,  A. Warshel,  
 C. F. Williams,  Q. Wu,  X. Xu,  W. Zhang

 Please cite Q-Chem as follows:
 Y. Shao et al., Mol. Phys. 113, 184-215 (2015)
 DOI: 10.1080/00268976.2014.952696

 Q-Chem 5.1.1 for Intel X86 EM64T Linux

 Parts of Q-Chem use Armadillo 8.300.2 (Tropical Shenanigans).
 http://arma.sourceforge.net/

 Q-Chem begins on Sun Nov  4 10:11:01 2018  

Host: ctcp007
0

     Scratch files written to /scratch/mewes/139535/qchem63965//
 Parallel job on  1  processors
The previous job contains 0 fragments, simply inherited here
Symmetry turned off for PCM/SM12/SMD calculation
Input Ideriv = 2
Curr. Ideriv = -1
Max.  Ideriv = 2
Input Ideriv = 1
Curr. Ideriv = 2
Max.  Ideriv = 1

Checking the input file for inconsistencies... 	...done.

--------------------------------------------------------------
User input:
--------------------------------------------------------------
$solvent
dielectric      2.38
dielectric_infi 2.25
$end

$rem
threads 8
jobtype	sp
method PBEh-3c
basis def2-mSVP
mem_static	1024
mem_total	14000
sym_ignore	true
cis_n_roots             2
cis_singlets            false
cis_triplets		true 
rpa                     false
calc_soc 		true
cis_moments             true
cis_relaxed_density	true
solvent_method		pcm
$end

$pcm
StateSpecific   1
ChargeSeparation Excited
$end


$molecule
read ut1opt_tol.mol
$end


--------------------------------------------------------------
 Adding empirical dispersion correction 
 ----------------------------------------------------------------
 Doing -D3(BJ) with
 s6 =   1.00000
 s8 =   0.00000
 a1 =   0.48600
 a2 =   4.50000
 -D3 energy including 3body term =     -0.1347607387 hartrees
 ----------------------------------------------------------------
 Adding gCP correction 
 ----------------------------------------------------------------
 gCP energy =      0.1917546677 hartrees
 ----------------------------------------------------------------
             Standard Nuclear Orientation (Angstroms)
    I     Atom           X                Y                Z
 ----------------------------------------------------------------
    1      C       0.0000000000     0.0000000000     0.0000000000
    2      C       0.0000000000     0.0000000000     1.4060240000
    3      H       0.9473861595     0.0000000000     1.9354707385
    4      C      -1.1780024432    -0.0020540510     2.1104831294
    5      C      -2.4316694825     0.0021075376     1.4308066122
    6      C      -2.4550653399     0.0176261672     0.0575355591
    7      H      -3.4095974862     0.0256731117    -0.4611177284
    8      C      -1.2519598323     0.0143235417    -0.6893171516
    9      C      -1.4290853294    -0.0143404706     3.5435944817
   10      C      -0.6378032655    -0.0210909079     4.6657453176
   11      H       0.4436663472    -0.0133524271     4.6015309405
   12      C      -2.8298079539    -0.0232978346     3.6988767446
   13      C      -3.4714277854    -0.0441480880     4.9336016459
   14      C      -3.4861044457    -0.0147669877     2.4491229861
   15      C      -4.8580106801    -0.0301878576     2.4444086616
   16      H      -5.4261088532    -0.0304512165     1.5221690084
   17      C      -1.2655560092    -0.0388897371     5.9318990616
   18      H      -0.6428933386    -0.0440323826     6.8178438554
   19      C      -2.6343236288    -0.0513713969     6.0777693549
   20      H      -3.0710411456    -0.0670639154     7.0689430469
   21      C      -5.5400654303    -0.0517403654     3.6841783114
   22      H      -6.6226129472    -0.0661308174     3.6758750537
   23      C      -4.8860528416    -0.0580014958     4.8953339550
   24      H      -5.4543768071    -0.0757395434     5.8173238137
   25      B      -1.2545549991     0.0480102682    -2.2194841887
   26      C       0.0495390677    -0.0168018861    -3.0116307761
   27      C       0.0549568934    -0.0311041717    -4.4275041764
   28      H      -0.8861034572    -0.0030476522    -4.9696301678
   29      C       1.2357594859    -0.0774216529    -5.1250377927
   30      C       2.4732842834    -0.1000129467    -4.4146440619
   31      C       2.4917376408    -0.0749527813    -3.0429350573
   32      H       3.4397390026    -0.0837869130    -2.5140525732
   33      C       1.2938075546    -0.0363473724    -2.3080442527
   34      C       3.5605468870    -0.1444624518    -5.3830181913
   35      C       4.9318633683    -0.1829951491    -5.3053073244
   36      H       5.4501376234    -0.1823945323    -4.3540586741
   37      C       2.9542694241    -0.1492241057    -6.6552433373
   38      C       3.6658203052    -0.1931002746    -7.8522204357
   39      C       1.5469742733    -0.1100573631    -6.5576307704
   40      C       0.8224358034    -0.1161903497    -7.7234306294
   41      H      -0.2603528343    -0.0906877853    -7.7230218183
   42      C       5.6763842600    -0.2261365809    -6.5063000933
   43      H       6.7570692736    -0.2566796730    -6.4437068957
   44      C       5.0787898305    -0.2320746662    -7.7460017327
   45      H       5.6890332539    -0.2672180060    -8.6404434389
   46      C       2.8905356539    -0.1969026463    -9.0358265854
   47      H       3.3766450107    -0.2307555162   -10.0034484480
   48      C       1.5170463228    -0.1595029850    -8.9556792079
   49      H       0.9404155991    -0.1643038572    -9.8720544400
   50      B       1.3311273290     0.0059731212    -0.7733271587
   51      C      -2.6231214237     0.2586767080    -2.9773922656
   52      C      -3.3301327908    -0.8180096317    -3.5767195765
   53      C      -4.5547512100    -0.6028664716    -4.1625563060
   54      H      -5.1119669450    -1.4376705775    -4.5692395564
   55      C      -5.1241902631     0.6889425374    -4.1677017933
   56      N      -6.3639859170     0.9084236356    -4.6983700973
   57      C      -6.8771737811     0.1046600136    -5.7367329954
   58      C      -8.2043045727    -0.3159456700    -5.6897732748
   59      H      -8.8324052890    -0.0456273564    -4.8510289193
   60      C      -8.7016684597    -1.1024504516    -6.7128815391
   61      H      -9.7276116680    -1.4419725287    -6.6729639334
   62      C      -7.8874417643    -1.4649741907    -7.7788823854
   63      H      -8.2821224730    -2.0808347275    -8.5755968308
   64      C      -6.5689668896    -1.0323176916    -7.8249887174
   65      H      -5.9367310419    -1.2992448514    -8.6607991804
   66      C      -6.0585818535    -0.2431209509    -6.8098047664
   67      H      -5.0390331168     0.1175392096    -6.8558588199
   68      C      -4.4083862029     1.7668813104    -3.6054718123
   69      H      -4.8157599394     2.7683878198    -3.6622623715
   70      C      -3.1770603903     1.5666410416    -3.0350740626
   71      C      -7.1650768966     1.9633076013    -4.2017530776
   72      C      -7.7646951253     2.8540145440    -5.0870417098
   73      H      -7.6175682070     2.7446405001    -6.1537101659
   74      C      -8.5242178119     3.8963654829    -4.5855200792
   75      H      -8.9778574192     4.6018810002    -5.2682345498
   76      C      -8.6929356134     4.0454199985    -3.2145727599
   77      H      -9.2858383226     4.8639850219    -2.8294247708
   78      C      -8.1023481080     3.1447786359    -2.3385143123
   79      H      -8.2397389839     3.2521369792    -1.2712039066
   80      C      -7.3380048666     2.0997304490    -2.8264630546
   81      H      -6.8853273274     1.3886600949    -2.1472909541
   82      C      -2.7740389721    -2.2141154743    -3.5191154594
   83      H      -1.6933158820    -2.1817318134    -3.6698225927
   84      H      -3.1864052573    -2.8006530228    -4.3435018491
   85      C      -2.4125218629     2.7546869755    -2.5153333511
   86      H      -1.8679481095     2.4760935361    -1.6119293147
   87      H      -3.1174397511     3.5372042458    -2.2245477086
   88      C      -3.0763318409    -2.9136276178    -2.1952133122
   89      H      -2.6287893195    -2.3852859404    -1.3545292619
   90      H      -2.6707592345    -3.9251591103    -2.2006051555
   91      H      -4.1507669359    -2.9827909369    -2.0194445618
   92      C      -1.4319097150     3.3137472420    -3.5454971753
   93      H      -0.6785047650     2.5762688103    -3.8182593983
   94      H      -0.9109543392     4.1808180729    -3.1393161167
   95      H      -1.9468745518     3.6269920637    -4.4548184413
   96      C       2.7066635860     0.0978583187     0.0094242637
   97      C       3.4658836568    -1.0418124003     0.3142475840
   98      C       4.6472285667    -0.9343228035     1.0393692978
   99      H       5.2237189683    -1.8259995234     1.2620045044
  100      C       5.0871907530     0.2972111201     1.5054056614
  101      C       4.3495672641     1.4323047004     1.2000427591
  102      H       4.6838682300     2.4008992858     1.5563730206
  103      C       3.1845421242     1.3431863613     0.4478598159
  104      N       6.2539264626     0.3816604758     2.2984270726
  105      C       7.1568848215     1.4381439483     2.1145443438
  106      C       7.7099295466     2.1074767768     3.2076454963
  107      H       7.4379354770     1.8155612349     4.2138063512
  108      C       8.6031023148     3.1490354407     3.0142717803
  109      H       9.0199163104     3.6546256291     3.8761927535
  110      C       8.9474255348     3.5582186970     1.7342269517
  111      H       9.6386469838     4.3774520796     1.5867031314
  112      C       8.3903006687     2.9021663446     0.6448830390
  113      H       8.6506664106     3.2050536472    -0.3613563485
  114      C       7.5114519404     1.8474106950     0.8276889287
  115      H       7.0920195510     1.3386674276    -0.0306860199
  116      C       6.3939792554    -0.4789141296     3.3990237431
  117      C       5.2960319466    -0.8062714948     4.1938527875
  118      H       4.3237930960    -0.3910425684     3.9623606025
  119      C       5.4450768433    -1.6591208890     5.2757420582
  120      H       4.5812691099    -1.9024513914     5.8810789200
  121      C       6.6887223191    -2.1857241506     5.5948972219
  122      H       6.8029487383    -2.8463319337     6.4441194944
  123      C       7.7844213097    -1.8563111509     4.8086936179
  124      H       8.7598749128    -2.2659692728     5.0385595013
  125      C       7.6410163072    -1.0195849262     3.7145410880
  126      H       8.4996655286    -0.7808848426     3.0997430899
  127      C       3.0042995770    -2.4197941421    -0.0814495292
  128      H       2.3763141017    -2.3696665609    -0.9735438478
  129      H       3.8693688137    -3.0322480354    -0.3510101925
  130      C       2.4791762608     2.6253909327     0.0877871347
  131      H       1.4116898032     2.4454535326    -0.0571883086
  132      H       2.5587218454     3.3349848879     0.9161640446
  133      C       2.2347295105    -3.1038612753     1.0462765090
  134      H       1.3434802349    -2.5342273773     1.3104072682
  135      H       1.9160415185    -4.1058330597     0.7555072334
  136      H       2.8509461985    -3.1939077177     1.9424203398
  137      C       3.0630163692     3.2558263884    -1.1746714952
  138      H       2.9797423137     2.5759593207    -2.0228625296
  139      H       2.5390295329     4.1775539918    -1.4322284615
  140      H       4.1190433143     3.4971813123    -1.0423947784
 ----------------------------------------------------------------
 Nuclear Repulsion Energy = 12135.5905833380 hartrees
 There are      270 alpha and      270 beta electrons
 Requested basis set is def2-mSVP
 There are 680 shells and 1320 basis functions

 Total QAlloc Memory Limit  14000 MB
 Mega-Array Size      1001 MB
 MEM_STATIC part      1024 MB
 Discretize the solute cavity surface with Lebedev spheres
	Using 302 Lebedev grid points for each H atom
	Using 302 Lebedev grid points for other atoms
	Atomic van der Waals radii will be scaled by 1.20
 Remove points where switching function is < 1.0e-08
 Keep 14628 surface tesserae and discard 27652 interior tesserae
 Molecular Surface Area = 1077.363 Angst**2
 A cutoff of  1.0D-11 yielded  62888 shell pairs
 There are    244140 function pairs (    268429 Cartesian)
 
 -------------------------------------------------------
 OpenMP Integral Computing Module                       
 Release: version 1.0, May 2013, Q-Chem Inc. Pittsburgh 
 -------------------------------------------------------
 Integral Job Info:
 Integral job number is                      11
 Integral operator is                         1
 short-range coefficients                     0
 long-range coefficients              100000000
 Omega coefficients                           0
 if combine SR and LR in K                    0
 Integral screening is                        0
 Integral computing path is                   2
 max size of driver memory is            800000
 size of driver memory is                593474
 size of scratch memory is              1809772
 max col of scratch BK array               1296
 max len of scratch array in speh3          155
 max len of scratch index in speh4           18
 max int batch size is                      520
 min int batch size is                       52
 fixed nKL is                                52
 max L of basis functions is                  2
 order of int derivative is                   0
 number of shells is                        680
 number of basis is                        1400
 number of cartesian basis is              1400
 number of contracted shell pairs         62888
 number of primitive shell pairs         129750
 maxK2 (contraction) of shell pair           25
 max number of K2 of shell pair               1
 max number of CS2 of shell pair          15568
 max number of PS2 of shell pair          22755
 mem total for path MDJ                 1128316
 -------------------------------------------------------
 Smallest overlap matrix eigenvalue = 1.96E-04

 Scale SEOQF with 1.000000e-02/1.000000e-01/1.000000e-02

 Standard Electronic Orientation quadrupole field applied
 Nucleus-field energy     =     0.0000000484 hartrees
 Guess from superposition of atomic densities
 Warning:  Energy on first SCF cycle will be non-variational
 SAD guess density has 540.000001 electrons

 -----------------------------------------------------------------------
  General SCF calculation program by
  Eric Jon Sundstrom, Paul Horn, Yuezhi Mao, Dmitri Zuev, Alec White,
  David Stuck, Shaama M.S., Shane Yost, Joonho Lee, David Small,
  Daniel Levine, Susi Lehtola, Hugh Burton, Evgeny Epifanovsky
 -----------------------------------------------------------------------
 Exchange:     0.4200 Hartree-Fock + 0.5800 PBEh-3c
 Correlation:  1.0000 PBEh-3c
 Using SG-1 standard quadrature grid
 Dispersion:   Grimme D3
 using 8 threads for integral computing
 -------------------------------------------------------
 OpenMP Integral computing Module                
 Release: version 2.0, May 2017, Q-Chem Inc. Pleasanton 
 -------------------------------------------------------
 -------------------------------------------------------
 OpenMP BLAS3 based DFT computing Module                
 Release: version 1.0, May 2013, Q-Chem Inc. Pittsburgh 
 -------------------------------------------------------
 A restricted SCF calculation will be
 performed using DIIS
 SCF converges when DIIS error is below 1.0e-08
 ---------------------------------------
  Cycle       Energy         DIIS error
 ---------------------------------------
    1   -3111.1565512390      2.35e-02  
    2   -3084.1567098050      1.59e-03  
    3   -3084.3612496679      1.38e-03  
    4   -3084.7436622679      4.70e-04  
    5   -3084.7919237269      1.52e-04  
    6   -3084.7971300189      4.20e-05  
    7   -3084.7975012114      1.31e-05  
    8   -3084.7975402066      4.04e-06  
    9   -3084.7975442880      1.24e-06  
   10   -3084.7975447549      4.02e-07  
   11   -3084.7975446145      1.47e-07  
   12   -3084.7975445259      5.53e-08  
   13   -3084.7975446288      1.87e-08  
   14   -3084.7975446675      8.29e-09  Convergence criterion met
 ---------------------------------------
 SCF time:   CPU 25096.53s  wall 3454.00s 

************** Final PCM Free Energy Summary **************
 G_electrostatic  =      -0.02439679 hartree =     -15.30921425 kcal/mol
 G_cavitation     =       0.00000000 hartree =       0.00000000 kcal/mol
 G_dispersion     =       0.00000000 hartree =       0.00000000 kcal/mol
 G_repulsion      =       0.00000000 hartree =       0.00000000 kcal/mol
 --------------------------------------------------
 Non-electrostatic Free Energy =       0.00000000 hartree =       0.00000000 kcal/mol
 Total                         =      -0.02439679 hartree =     -15.30921425 kcal/mol
 --------------------------------------------------
 SCF Energy (H0 + V/2)                       =   -3084.79754467 
 Solute Internal Energy (H0)                 =   -3084.77314788 
 Total Free Energy (H0 + V/2 + non-elec)     =   -3084.79754467 hartree
                                             = -1935739.67539639 kcal/mol
***********************************************************

 SCF   energy in the final basis set =    -3084.7975446675
 Total energy in the final basis set =    -3084.7975446675
 
 Direct TDDFT/TDA calculation will be performed
 Exchange:     0.4200 Hartree-Fock + 0.5800 PBEh-3c
 Correlation:  1.0000 PBEh-3c
 Using SG-1 standard quadrature grid
 Dispersion:   Grimme D3
 Triplet excitation energies requested
 Adding PCM contribution to the XC response
 CIS energy converged when residual is below 10e- 6
 ---------------------------------------------------
 Iter    Rts Conv    Rts Left    Ttl Dev     Max Dev
 ---------------------------------------------------
   1         0           2      0.000045    0.000025
   2         0           2      0.000015    0.000008
   3         0           2      0.000006    0.000003
   4         0           2      0.000007    0.000004
   5         0           2      0.000034    0.000032
   6         0           2      0.000025    0.000023
   7         0           2      0.000015    0.000014
   8         1           1      0.000006    0.000006
   9         1           1      0.000004    0.000003
  10         1           1      0.000002    0.000001
  11         2           0      0.000001    0.000001    Roots Converged
 ---------------------------------------------------
 
 ---------------------------------------------------
         TDDFT/TDA Excitation Energies              
 ---------------------------------------------------

 Excited state   1: excitation energy (eV) =    2.0983
 Total energy for state  1:                 -3084.72043368 au
    Multiplicity: Triplet
    Trans. Mom.:  0.0000 X   0.0000 Y   0.0000 Z
    Strength   :     0.0000000000
    D(270) --> V(  1) amplitude =  0.9477

 Excited state   2: excitation energy (eV) =    2.2156
 Total energy for state  2:                 -3084.71612331 au
    Multiplicity: Triplet
    Trans. Mom.:  0.0000 X   0.0000 Y   0.0000 Z
    Strength   :     0.0000000000
    D(267) --> V(  1) amplitude =  0.7600
    D(268) --> V(  1) amplitude =  0.4935
 
 ---------------------------------------------------
 Calculating Relaxed Density
 ---------------------------------------------------
 Iter    Rts Conv    Rts Left    Ttl Dev     Max Dev
 ---------------------------------------------------
   1         0           2      0.000137    0.000097
   2         0           2      0.000056    0.000038
   3         0           2      0.000019    0.000014
   4         0           2      0.000007    0.000005
   5         1           1      0.000002    0.000002
   6         2           0      0.000000    0.000000    Roots Converged
 ---------------------------------------------------
  SETman timing summary (seconds)
  CPU time             19631.03s
  System time              0.00s
  Wall time             4263.08s



*********SPIN-ORBIT COUPLING JOB BEGINS HERE*********


=======================================================================================
    SPIN-ORBIT COUPLING BETWEEN THE SINGLET GROUND STATE AND EXCITED TRIPLET STATE
=======================================================================================

SOC between the singlet ground state and excited triplet states (ms=0):
T1(ms=0)      0.000000  +  2.173363i    cm-1
T2(ms=0)      0.000000  +  -0.428719i    cm-1
SOC between the singlet ground state and excited triplet states (ms=1):
T1(ms=1)      0.082994  + (2.955446i)    cm-1
T2(ms=1)      -0.245718  + (-0.745064i)    cm-1
SOC between the singlet ground state and excited triplet states (ms=-1):
T1(ms=-1)     0.082994  - (2.955446i)    cm-1
T2(ms=-1)     -0.245718  - (-0.745064i)    cm-1
Total SOC between the singlet ground state and excited triplet states:
T1      4.712389    cm-1
T2      1.189452    cm-1




=======================================================================================
                     SPIN-ORBIT COUPLING BETWEEN EXCITED TRIPLET STATES
=======================================================================================

SOC between the T1 (ms=0) state and excited triplet states (ms=1):
T2(ms=1)      0.033475  + (0.182703i)    cm-1
SOC between the T1 (ms=0) state and excited triplet states (ms=-1):
T2(ms=-1)     -0.033475  + (0.182703i)    cm-1
SOC between the T1 (ms=1) state and excited triplet states (ms=0):
T2(ms=0)      -0.033475  + (0.182703i)    cm-1
SOC between the T1 (ms=1) state and excited triplet states (ms=1):
T2(ms=1)      0.000000  + (-0.297336i)    cm-1
SOC between the T1 (ms=-1) state and excited triplet states (ms=0):
T2(ms=0)      0.033475  + (0.182703i)    cm-1
SOC between the T1 (ms=-1) state and excited triplet states (ms=-1):
T2(ms=-1)     0.000000  + (0.297336i)    cm-1
Total SOC between the T1 state and excited triplet states:
T2      0.561089    cm-1







=======================================================================================
         SPIN-ORBIT COUPLING BETWEEN EXCITED SINGLET STATES AND TRIPLET STATES
=======================================================================================

SOC between the S1 state and excited triplet states (ms=0):
T1(ms=0)      0.000000  +  0.113607i    cm-1
T2(ms=0)      0.000000  +  0.149279i    cm-1
SOC between the S1 state and excited triplet states (ms=1):
T1(ms=1)      (0.044335)  + (0.005104i)    cm-1
T2(ms=1)      (-0.023118)  + (0.026756i)    cm-1
SOC between the S1 state and excited triplet states (ms=-1):
T1(ms=-1)    -(0.044335)  + (0.005104i)    cm-1
T2(ms=-1)    -(-0.023118)  + (0.026756i)    cm-1
Total SOC between the S1 state and excited triplet states:
T1      0.129961    cm-1
T2      0.157432    cm-1



SOC between the S2 state and excited triplet states (ms=0):
T1(ms=0)      0.000000  +  -0.045083i    cm-1
T2(ms=0)      0.000000  +  -0.056016i    cm-1
SOC between the S2 state and excited triplet states (ms=1):
T1(ms=1)      (-0.025890)  + (-0.072376i)    cm-1
T2(ms=1)      (0.029966)  + (-0.069546i)    cm-1
SOC between the S2 state and excited triplet states (ms=-1):
T1(ms=-1)    -(-0.025890)  + (-0.072376i)    cm-1
T2(ms=-1)    -(0.029966)  + (-0.069546i)    cm-1
Total SOC between the S2 state and excited triplet states:
T1      0.117684    cm-1
T2      0.120859    cm-1






            *********SOC CODE ENDS HERE*********



 
 --------------------------------------------------------------
 
                    Orbital Energies (a.u.)
 --------------------------------------------------------------
 
 Alpha MOs
 -- Occupied --
-14.670 -14.670 -10.492 -10.492 -10.491 -10.491 -10.486 -10.485
-10.467 -10.466 -10.466 -10.466 -10.466 -10.466 -10.465 -10.465
-10.465 -10.464 -10.464 -10.464 -10.462 -10.462 -10.462 -10.462
-10.462 -10.462 -10.459 -10.459 -10.459 -10.459 -10.457 -10.456
-10.454 -10.454 -10.452 -10.452 -10.450 -10.450 -10.450 -10.450
-10.450 -10.449 -10.449 -10.448 -10.448 -10.448 -10.448 -10.448
-10.447 -10.447 -10.447 -10.447 -10.446 -10.445 -10.445 -10.444
-10.444 -10.444 -10.443 -10.442 -10.437 -10.437 -10.436 -10.436
-10.436 -10.436 -10.434 -10.434 -10.432 -10.431 -10.431 -10.430
-10.425 -10.420 -10.420 -10.419 -10.418 -10.417  -6.949  -6.942
 -1.087  -1.080  -1.017  -1.017  -0.964  -0.964  -0.961  -0.960
 -0.960  -0.958  -0.940  -0.940  -0.934  -0.934  -0.909  -0.900
 -0.890  -0.888  -0.869  -0.865  -0.856  -0.856  -0.853  -0.851
 -0.847  -0.847  -0.843  -0.842  -0.840  -0.837  -0.826  -0.822
 -0.821  -0.814  -0.813  -0.805  -0.800  -0.800  -0.792  -0.786
 -0.736  -0.732  -0.728  -0.721  -0.717  -0.717  -0.712  -0.711
 -0.699  -0.699  -0.699  -0.697  -0.690  -0.685  -0.682  -0.681
 -0.680  -0.676  -0.669  -0.667  -0.649  -0.646  -0.638  -0.637
 -0.631  -0.629  -0.606  -0.604  -0.597  -0.595  -0.592  -0.589
 -0.587  -0.585  -0.583  -0.576  -0.576  -0.562  -0.562  -0.555
 -0.554  -0.544  -0.544  -0.543  -0.541  -0.537  -0.528  -0.526
 -0.525  -0.523  -0.518  -0.514  -0.511  -0.508  -0.504  -0.502
 -0.502  -0.500  -0.498  -0.497  -0.496  -0.496  -0.495  -0.490
 -0.489  -0.489  -0.486  -0.486  -0.486  -0.486  -0.484  -0.483
 -0.483  -0.481  -0.478  -0.477  -0.476  -0.468  -0.466  -0.464
 -0.462  -0.455  -0.455  -0.451  -0.443  -0.441  -0.437  -0.436
 -0.436  -0.435  -0.432  -0.429  -0.428  -0.427  -0.427  -0.427
 -0.421  -0.421  -0.420  -0.417  -0.414  -0.412  -0.410  -0.406
 -0.405  -0.403  -0.400  -0.399  -0.399  -0.398  -0.397  -0.396
 -0.396  -0.394  -0.393  -0.392  -0.392  -0.387  -0.385  -0.384
 -0.380  -0.373  -0.369  -0.364  -0.358  -0.357  -0.352  -0.350
 -0.346  -0.336  -0.321  -0.316  -0.308  -0.304  -0.302  -0.300
 -0.298  -0.297  -0.296  -0.296  -0.287  -0.284  -0.282  -0.276
 -0.275  -0.263  -0.258  -0.256  -0.223  -0.215
 -- Virtual --
 -0.097  -0.061  -0.038  -0.033  -0.007   0.001   0.003   0.004
  0.006   0.006   0.007   0.009   0.014   0.024   0.027   0.029
  0.036   0.042   0.056   0.056   0.069   0.081   0.088   0.090
  0.116   0.120   0.140   0.142   0.147   0.149   0.149   0.151
  0.155   0.159   0.162   0.162   0.164   0.165   0.168   0.170
  0.172   0.172   0.180   0.182   0.184   0.186   0.187   0.191
  0.193   0.196   0.198   0.200   0.202   0.202   0.204   0.204
  0.205   0.205   0.206   0.207   0.208   0.212   0.213   0.213
  0.213   0.215   0.216   0.216   0.217   0.219   0.220   0.220
  0.221   0.225   0.226   0.228   0.231   0.232   0.233   0.237
  0.237   0.238   0.238   0.239   0.240   0.240   0.241   0.242
  0.245   0.247   0.249   0.251   0.251   0.252   0.253   0.254
  0.255   0.256   0.261   0.269   0.269   0.270   0.271   0.275
  0.280   0.280   0.282   0.284   0.288   0.290   0.291   0.295
  0.296   0.298   0.300   0.300   0.302   0.308   0.310   0.310
  0.313   0.314   0.316   0.318   0.321   0.323   0.325   0.326
  0.327   0.330   0.333   0.334   0.334   0.336   0.338   0.346
  0.347   0.351   0.354   0.357   0.359   0.364   0.369   0.373
  0.375   0.381   0.383   0.391   0.398   0.399   0.401   0.403
  0.408   0.413   0.416   0.418   0.423   0.427   0.435   0.440
  0.444   0.445   0.449   0.452   0.454   0.456   0.459   0.460
  0.464   0.466   0.467   0.470   0.478   0.481   0.483   0.490
  0.491   0.494   0.497   0.499   0.502   0.508   0.512   0.513
  0.514   0.518   0.521   0.522   0.525   0.525   0.526   0.526
  0.528   0.533   0.534   0.536   0.537   0.539   0.539   0.540
  0.542   0.546   0.547   0.549   0.553   0.554   0.557   0.558
  0.559   0.559   0.562   0.563   0.564   0.566   0.568   0.570
  0.574   0.575   0.577   0.579   0.581   0.583   0.584   0.587
  0.587   0.588   0.590   0.591   0.592   0.592   0.594   0.596
  0.596   0.598   0.599   0.600   0.601   0.601   0.603   0.605
  0.608   0.609   0.612   0.614   0.615   0.616   0.617   0.618
  0.618   0.619   0.621   0.622   0.622   0.625   0.625   0.627
  0.627   0.628   0.629   0.630   0.630   0.633   0.637   0.641
  0.644   0.646   0.647   0.649   0.649   0.651   0.652   0.653
  0.654   0.655   0.656   0.656   0.658   0.659   0.661   0.663
  0.668   0.670   0.671   0.672   0.675   0.678   0.680   0.681
  0.683   0.687   0.690   0.692   0.694   0.695   0.696   0.698
  0.700   0.702   0.703   0.705   0.707   0.709   0.711   0.712
  0.714   0.716   0.718   0.721   0.722   0.729   0.732   0.735
  0.738   0.741   0.744   0.746   0.748   0.751   0.758   0.759
  0.762   0.763   0.768   0.771   0.773   0.776   0.777   0.779
  0.782   0.787   0.789   0.795   0.796   0.799   0.804   0.805
  0.808   0.811   0.814   0.818   0.822   0.823   0.830   0.832
  0.834   0.837   0.840   0.846   0.850   0.852   0.859   0.860
  0.865   0.868   0.871   0.881   0.884   0.891   0.898   0.900
  0.903   0.908   0.911   0.913   0.918   0.918   0.923   0.925
  0.932   0.938   0.941   0.942   0.946   0.947   0.949   0.950
  0.952   0.952   0.955   0.956   0.957   0.958   0.960   0.962
  0.963   0.964   0.967   0.967   0.971   0.973   0.976   0.978
  0.981   0.982   0.985   0.988   0.988   0.989   0.991   0.993
  0.994   0.996   1.001   1.002   1.006   1.008   1.009   1.011
  1.012   1.015   1.018   1.021   1.023   1.026   1.029   1.031
  1.034   1.036   1.040   1.041   1.044   1.044   1.045   1.048
  1.050   1.051   1.052   1.054   1.055   1.056   1.058   1.061
  1.066   1.068   1.069   1.072   1.074   1.075   1.077   1.079
  1.079   1.083   1.085   1.086   1.088   1.088   1.091   1.096
  1.098   1.100   1.103   1.108   1.111   1.111   1.116   1.120
  1.126   1.128   1.130   1.134   1.141   1.147   1.148   1.149
  1.151   1.152   1.153   1.157   1.160   1.162   1.166   1.169
  1.170   1.173   1.173   1.174   1.181   1.187   1.189   1.192
  1.195   1.198   1.201   1.204   1.206   1.212   1.217   1.222
  1.225   1.226   1.228   1.235   1.241   1.245   1.253   1.254
  1.256   1.258   1.260   1.265   1.268   1.271   1.273   1.277
  1.282   1.283   1.289   1.290   1.295   1.298   1.298   1.300
  1.302   1.307   1.308   1.311   1.314   1.317   1.320   1.321
  1.323   1.327   1.329   1.334   1.338   1.342   1.344   1.347
  1.349   1.351   1.357   1.360   1.364   1.369   1.370   1.371
  1.375   1.375   1.379   1.385   1.389   1.392   1.402   1.407
  1.409   1.412   1.414   1.416   1.420   1.426   1.439   1.439
  1.443   1.445   1.449   1.451   1.453   1.463   1.465   1.473
  1.479   1.481   1.486   1.491   1.494   1.502   1.504   1.510
  1.511   1.511   1.512   1.514   1.517   1.517   1.518   1.526
  1.531   1.531   1.531   1.537   1.539   1.540   1.543   1.544
  1.547   1.548   1.549   1.552   1.557   1.558   1.558   1.561
  1.561   1.565   1.566   1.569   1.571   1.572   1.577   1.578
  1.585   1.585   1.592   1.594   1.596   1.599   1.600   1.603
  1.604   1.615   1.620   1.624   1.626   1.631   1.636   1.648
  1.659   1.660   1.672   1.677   1.693   1.702   1.713   1.721
  1.738   1.740   1.742   1.745   1.750   1.756   1.761   1.765
  1.769   1.771   1.776   1.783   1.785   1.787   1.795   1.800
  1.804   1.806   1.808   1.808   1.810   1.813   1.817   1.818
  1.819   1.823   1.828   1.830   1.832   1.847   1.853   1.856
  1.861   1.864   1.867   1.870   1.875   1.886   1.892   1.893
  1.897   1.900   1.902   1.903   1.905   1.916   1.917   1.921
  1.926   1.928   1.934   1.938   1.939   1.941   1.945   1.948
  1.951   1.966   1.973   1.978   1.980   1.981   1.984   1.986
  1.989   1.993   2.001   2.006   2.009   2.018   2.023   2.024
  2.025   2.026   2.031   2.034   2.035   2.036   2.038   2.046
  2.059   2.063   2.064   2.068   2.068   2.069   2.071   2.072
  2.075   2.076   2.078   2.080   2.087   2.098   2.103   2.105
  2.109   2.110   2.123   2.129   2.131   2.139   2.141   2.144
  2.149   2.150   2.152   2.156   2.158   2.159   2.160   2.163
  2.168   2.169   2.178   2.181   2.192   2.192   2.196   2.199
  2.200   2.201   2.202   2.203   2.203   2.208   2.209   2.213
  2.218   2.222   2.223   2.226   2.229   2.230   2.236   2.246
  2.247   2.250   2.252   2.254   2.258   2.259   2.262   2.266
  2.267   2.272   2.274   2.278   2.285   2.285   2.288   2.289
  2.305   2.306   2.310   2.313   2.320   2.320   2.321   2.324
  2.328   2.333   2.336   2.340   2.343   2.343   2.347   2.350
  2.355   2.356   2.357   2.358   2.362   2.366   2.367   2.369
  2.373   2.375   2.377   2.384   2.386   2.386   2.387   2.389
  2.390   2.391   2.402   2.402   2.403   2.408   2.410   2.412
  2.414   2.416   2.420   2.432   2.433   2.438   2.443   2.448
  2.456   2.462   2.471   2.475   2.478   2.481   2.484   2.489
  2.496   2.496   2.498   2.499   2.501   2.508   2.511   2.516
  2.523   2.529   2.538   2.552   2.561   2.567   2.574   2.592
  2.606   2.609   2.614   2.622   2.629   2.636   2.638   2.642
  2.642   2.643   2.649   2.657   2.660   2.668   2.676   2.678
  2.680   2.685   2.685   2.690   2.691   2.699   2.708   2.713
  2.721   2.725   2.728   2.733   2.734   2.736   2.736   2.737
  2.738   2.748   2.751   2.754   2.757   2.761   2.761   2.765
  2.775   2.778   2.783   2.784   2.787   2.788   2.788   2.788
  2.789   2.791   2.800   2.805   2.806   2.808   2.808   2.812
  2.813   2.819   2.820   2.824   2.827   2.831   2.842   2.846
  2.853   2.856   2.859   2.862   2.868   2.872   2.888   2.899
  2.901   2.903   2.908   2.912   2.919   2.924   2.931   2.935
  2.942   2.943   2.954   2.974   2.984   3.001   3.002   3.006
  3.013   3.014   3.026   3.033   3.046   3.056   3.077   3.080
  3.082   3.103   3.125   3.144   3.151   3.237   3.254   3.257
  3.305   3.317   3.331   3.360   3.401   3.439   3.448   3.480
  3.483   3.486   3.489   3.490   3.510   3.516   3.539   3.550
  3.662   3.673   9.598   9.754  13.141  13.176  13.246  13.247
 13.277  13.286  13.438  13.496  13.510  13.519  13.523  13.548
 13.668  13.671  13.672  13.678  13.684  13.689  13.707  13.713
 13.715  13.726  13.731  13.764  13.772  13.793  13.800  13.803
 13.860  13.866  13.889  13.917  13.924  13.997  14.001  14.029
 14.031  14.035  14.040  14.047  14.052  14.055  14.151  14.152
 14.152  14.155  14.160  14.161  14.161  14.178  14.179  14.183
 14.184  14.202  14.219  14.234  14.259  14.267  14.279  14.286
 14.312  14.316  14.336  14.340  14.508  14.513  14.556  14.563
 14.576  14.578  14.580  14.581  14.582  14.584  14.586  14.604
 19.687  19.688
 --------------------------------------------------------------
 
          Ground-State Mulliken Net Atomic Charges

     Atom                 Charge (a.u.)
  ----------------------------------------
      1 C                    -0.150861
      2 C                    -0.393568
      3 H                     0.243444
      4 C                     0.081268
      5 C                     0.107209
      6 C                    -0.397837
      7 H                     0.244786
      8 C                    -0.149471
      9 C                     0.182586
     10 C                    -0.383025
     11 H                     0.240548
     12 C                    -0.068589
     13 C                     0.231401
     14 C                     0.187414
     15 C                    -0.393355
     16 H                     0.240935
     17 C                    -0.224977
     18 H                     0.247386
     19 C                    -0.340874
     20 H                     0.243785
     21 C                    -0.221782
     22 H                     0.246883
     23 C                    -0.346094
     24 H                     0.244161
     25 B                     0.627503
     26 C                    -0.142154
     27 C                    -0.398182
     28 H                     0.244943
     29 C                     0.103758
     30 C                     0.083017
     31 C                    -0.397366
     32 H                     0.242788
     33 C                    -0.146273
     34 C                     0.185125
     35 C                    -0.384496
     36 H                     0.241752
     37 C                    -0.068976
     38 C                     0.229445
     39 C                     0.188127
     40 C                    -0.393206
     41 H                     0.241317
     42 C                    -0.224758
     43 H                     0.247678
     44 C                    -0.340238
     45 H                     0.244118
     46 C                    -0.344702
     47 H                     0.244251
     48 C                    -0.221863
     49 H                     0.247130
     50 B                     0.648739
     51 C                    -0.243930
     52 C                     0.095684
     53 C                    -0.390416
     54 H                     0.248282
     55 C                     0.322773
     56 N                    -0.657974
     57 C                     0.280681
     58 C                    -0.286031
     59 H                     0.256436
     60 C                    -0.235037
     61 H                     0.240842
     62 C                    -0.254505
     63 H                     0.236589
     64 C                    -0.235627
     65 H                     0.240093
     66 C                    -0.280159
     67 H                     0.260550
     68 C                    -0.394815
     69 H                     0.248905
     70 C                     0.080381
     71 C                     0.252465
     72 C                    -0.272881
     73 H                     0.255832
     74 C                    -0.237623
     75 H                     0.241777
     76 C                    -0.250402
     77 H                     0.237991
     78 C                    -0.236643
     79 H                     0.241095
     80 C                    -0.265394
     81 H                     0.258172
     82 C                    -0.548044
     83 H                     0.248096
     84 H                     0.236806
     85 C                    -0.555328
     86 H                     0.256706
     87 H                     0.238963
     88 C                    -0.657995
     89 H                     0.242885
     90 H                     0.225032
     91 H                     0.220842
     92 C                    -0.654738
     93 H                     0.243705
     94 H                     0.222728
     95 H                     0.220506
     96 C                    -0.226856
     97 C                     0.068016
     98 C                    -0.349839
     99 H                     0.240880
    100 C                     0.296288
    101 C                    -0.357170
    102 H                     0.243016
    103 C                     0.056958
    104 N                    -0.671533
    105 C                     0.300917
    106 C                    -0.298827
    107 H                     0.256419
    108 C                    -0.231617
    109 H                     0.239017
    110 C                    -0.259200
    111 H                     0.235980
    112 C                    -0.231592
    113 H                     0.238416
    114 C                    -0.291388
    115 H                     0.253176
    116 C                     0.288381
    117 C                    -0.289097
    118 H                     0.252344
    119 C                    -0.233073
    120 H                     0.238311
    121 C                    -0.256319
    122 H                     0.236915
    123 C                    -0.233340
    124 H                     0.239693
    125 C                    -0.284580
    126 H                     0.255876
    127 C                    -0.549124
    128 H                     0.251042
    129 H                     0.239287
    130 C                    -0.552743
    131 H                     0.256225
    132 H                     0.240341
    133 C                    -0.653390
    134 H                     0.236488
    135 H                     0.225554
    136 H                     0.221897
    137 C                    -0.651290
    138 H                     0.237166
    139 H                     0.224638
    140 H                     0.221611
  ----------------------------------------
  Sum of atomic charges =    -0.000000

 -----------------------------------------------------------------
                    Cartesian Multipole Moments
 -----------------------------------------------------------------
    Charge (ESU x 10^10)
                -0.0000
    Dipole Moment (Debye)
         X      -1.0263      Y       0.0730      Z      -0.2869
       Tot       1.0681
    Quadrupole Moments (Debye-Ang)
        XX    -408.3166     XY      -3.3232     YY    -459.3746
        XZ     -10.9179     YZ       1.1989     ZZ    -388.4671
    Octopole Moments (Debye-Ang^2)
       XXX     -78.0638    XXY     -65.9925    XYY      -8.9083
       YYY    -388.1219    XXZ     513.7201    XYZ     -29.6526
       YYZ     613.0194    XZZ      29.4572    YZZ    -227.8840
       ZZZ    1506.8027
    Hexadecapole Moments (Debye-Ang^3)
      XXXX  -64556.1036   XXXY     821.9819   XXYY  -11852.1971
      XYYY     708.2064   YYYY   -7872.7885   XXXZ   -9632.9249
      XXYZ     352.8050   XYYZ   -2474.3283   YYYZ     919.4516
      XXZZ  -17745.8017   XYZZ     350.1102   YYZZ  -10248.4278
      XZZZ  -10019.9816   YZZZ    1350.2667   ZZZZ  -44461.1182
 -----------------------------------------------------------------
 -----------------------------------------------------------------
               TDA Excited-State Multipoles, State  1
 -----------------------------------------------------------------
    Charge (ESU x 10^10)
                -0.0000
    Dipole Moment (Debye)
         X     -21.0041      Y       2.7051      Z     -10.6509
       Tot      23.7051
    Quadrupole Moments (Debye-Ang)
        XX    -314.4232     XY     -22.1564     YY    -449.2841
        XZ     100.1726     YZ      -5.6994     ZZ    -377.1265
    Octopole Moments (Debye-Ang^2)
       XXX   -1102.5247    XXY      74.0965    XYY    -132.5964
       YYY    -349.5891    XXZ    -108.2439    XYZ      10.5398
       YYZ     551.8732    XZZ    -561.6595    YZZ    -213.3705
       ZZZ    1307.0526
    Hexadecapole Moments (Debye-Ang^3)
      XXXX  -58060.5666   XXXY    -472.1018   XXYY  -11099.4859
      XYYY     356.9129   YYYY   -7687.4216   XXXZ   -4493.7592
      XXYZ       0.6236   XYYZ   -2035.1607   YYYZ     787.6542
      XXZZ  -14903.8191   XYZZ     357.6950   YYZZ  -10023.3045
      XZZZ   -5722.0498   YZZZ    1432.7960   ZZZZ  -44775.2667
 -----------------------------------------------------------------
 -----------------------------------------------------------------
               TDA Excited-State Multipoles, State  2
 -----------------------------------------------------------------
    Charge (ESU x 10^10)
                -0.0000
    Dipole Moment (Debye)
         X      -1.6526      Y       0.0912      Z      -0.4347
       Tot       1.7112
    Quadrupole Moments (Debye-Ang)
        XX    -409.9494     XY      -3.9070     YY    -460.5452
        XZ     -13.4746     YZ       1.1493     ZZ    -385.2680
    Octopole Moments (Debye-Ang^2)
       XXX    -104.0929    XXY     -64.9235    XYY     -13.1397
       YYY    -388.2676    XXZ     496.8065    XYZ     -28.2359
       YYZ     612.8080    XZZ      28.2980    YZZ    -227.3422
       ZZZ    1498.3225
    Hexadecapole Moments (Debye-Ang^3)
      XXXX  -64581.4144   XXXY     784.5047   XXYY  -11864.8238
      XYYY     698.5582   YYYY   -7889.5072   XXXZ   -9600.1877
      XXYZ     345.9480   XYYZ   -2478.6455   YYYZ     918.3047
      XXZZ  -17689.3105   XYZZ     348.4169   YYZZ  -10249.2486
      XZZZ  -10049.1677   YZZZ    1353.5031   ZZZZ  -44413.3107
 -----------------------------------------------------------------
Archival summary:
1\1\ctcp007\SP\ProcedureUnspecified\BasisUnspecified\276260\mewes\SunNov415:11:342018SunNov415:11:342018\0\\#,ProcedureUnspecified,BasisUnspecified,\\0,1\C\C,1,1.40602\H,2,1.08529,1,119.199\C,2,1.37257,1,120.88,3,-179.9,0\C,4,1.42606,2,120.655,1,-0.296461,0\C,5,1.37356,4,119.44,2,-0.450195,0\H,6,1.08637,5,119.496,4,-179.705,0\C,6,1.41607,5,120.851,4,0.715732,0\C,4,1.45499,2,130.816,1,179.383,0\C,9,1.3731,4,134.874,2,0.388806,0\H,10,1.0834,9,121.788,4,0.253758,0\C,9,1.40933,4,106.266,2,-179.457,0\C,12,1.39164,9,123.786,4,179.609,0\C,12,1.41162,9,111.377,4,-0.116635,0\C,14,1.372,12,117.896,9,179.615,0\H,15,1.08317,14,121.828,12,-179.651,0\C,10,1.41334,9,118.44,4,-179.734,0\H,17,1.08288,10,118.529,9,-179.988,0\C,17,1.37658,10,122.458,9,0.086308,0\H,19,1.08323,17,119.866,10,179.866,0\C,15,1.41517,14,118.626,12,0.090086,0\H,21,1.08267,15,118.385,14,-179.863,0\C,21,1.37647,15,122.814,14,-0.004846,0\H,23,1.08322,21,119.981,15,-179.937,0\B,8,1.53054,6,121.721,5,-179.269,0\C,25,1.52721,8,121.076,6,-177.335,0\C,26,1.41596,25,121.49,8,177.87,0\H,27,1.08641,26,119.696,25,-0.463921,0\C,27,1.37222,26,120.792,25,179.409,0\C,29,1.42711,27,119.583,26,-0.534039,0\C,30,1.37206,29,120.599,27,-0.043247,0\H,31,1.08559,30,119.911,29,-179.467,0\C,31,1.40591,30,120.772,29,0.464864,0\C,30,1.45666,29,108.47,27,-179.831,0\C,34,1.37406,30,135.087,29,-179.85,0\H,35,1.08327,34,121.812,30,-0.169457,0\C,34,1.40931,30,106.208,29,-0.06569,0\C,37,1.39319,34,123.778,30,-179.723,0\C,37,1.41122,34,111.498,30,0.020875,0\C,39,1.37262,37,117.873,34,-179.704,0\H,40,1.08309,39,121.822,37,179.812,0\C,35,1.4137,34,118.581,30,179.749,0\H,42,1.08293,35,118.51,34,-179.988,0\C,42,1.37623,35,122.46,34,-0.05801,0\H,44,1.08336,42,119.951,35,-179.912,0\C,38,1.41492,37,116.036,34,179.736,0\H,46,1.08339,38,120.09,37,-179.953,0\C,46,1.37633,38,119.869,37,-0.049206,0\H,48,1.08271,46,118.821,38,-179.925,0\B,33,1.53575,31,120.16,30,-179.369,0\C,25,1.57854,8,118.975,6,7.13399,0\C,51,1.42067,25,122.2,8,-101.516,0\C,52,1.37447,51,120.304,25,176.378,0\H,53,1.08295,52,119.857,51,-176.663,0\C,53,1.41176,52,120.276,51,-0.333853,0\N,55,1.36634,53,120.957,52,-177.356,0\C,56,1.40982,55,121.653,53,-28.4026,0\C,57,1.39298,56,119.612,55,137.267,0\H,58,1.08216,57,120.244,56,-1.31375,0\C,58,1.38301,57,119.301,56,179.897,0\H,60,1.0814,58,119.5,57,179.171,0\C,60,1.38951,58,120.343,57,-0.242556,0\H,62,1.08158,60,119.99,58,179.957,0\C,62,1.38841,60,120.042,58,-0.32325,0\H,64,1.08146,62,120.259,60,-179.022,0\C,64,1.38345,62,120.248,60,0.206897,0\H,66,1.08244,64,120.42,62,-178.37,0\C,55,1.41083,53,119.54,52,2.0387,0\H,68,1.08268,55,119.667,53,176.265,0\C,68,1.37172,55,120.638,53,-1.11495,0\C,56,1.41462,55,119.821,53,151.474,0\C,71,1.39163,56,119.865,55,130.963,0\H,72,1.08231,71,120.246,56,-0.212893,0\C,72,1.3838,71,119.213,56,-178.75,0\H,74,1.0815,72,119.526,71,178.908,0\C,74,1.38931,72,120.338,71,-0.438002,0\H,76,1.08163,74,119.943,72,179.843,0\C,76,1.38832,74,120.094,72,-0.198514,0\H,78,1.08146,76,120.286,74,-179.391,0\C,78,1.38363,76,120.162,74,0.337854,0\H,80,1.0825,78,120.39,76,-179.286,0\C,52,1.50388,51,120.224,25,-0.779083,0\H,82,1.09166,52,109.466,51,-39.9364,0\H,82,1.09256,52,109.263,51,-156.307,0\C,70,1.50536,68,118.964,55,176.622,0\H,85,1.09102,70,109.747,68,143.981,0\H,85,1.09261,70,109.235,68,27.5285,0\C,82,1.52755,52,112.652,51,81.7842,0\H,88,1.08912,82,111.44,52,-61.5211,0\H,88,1.08982,82,110.31,52,179.117,0\H,88,1.09091,82,111.32,52,59.2791,0\C,85,1.5282,70,112.45,68,-94.0682,0\H,92,1.08899,85,111.41,70,-61.6207,0\H,92,1.09004,85,110.272,70,179.044,0\H,92,1.09095,85,111.347,70,59.2661,0\C,50,1.58532,33,121.071,31,3.83071,0\C,96,1.40292,50,121.989,33,-84.8263,0\C,97,1.3903,96,120.687,50,-177.927,0\H,98,1.08489,97,119.67,96,-179.725,0\C,98,1.38832,97,120.86,96,1.51818,0\C,100,1.38772,98,118.899,97,-2.01746,0\H,101,1.08485,100,119.619,98,-179.865,0\C,101,1.38961,100,120.816,98,0.402813,0\N,100,1.41325,98,120.198,97,176.793,0\C,104,1.40189,100,120.21,98,140.399,0\C,105,1.39597,104,120.917,100,136.364,0\H,106,1.08238,105,119.936,104,-0.347532,0\C,106,1.38564,105,120.431,104,179.899,0\H,108,1.08271,106,119.213,105,179.986,0\C,108,1.38726,106,120.695,105,0.99576,0\H,110,1.08199,108,120.511,106,179.472,0\C,110,1.38833,108,119.014,106,-0.432071,0\H,112,1.08261,110,120.038,108,-179.739,0\C,112,1.38503,110,120.726,108,-0.504694,0\H,114,1.08238,112,119.944,110,-179.404,0\C,104,1.40411,100,119.049,98,-49.2518,0\C,116,1.39442,104,120.807,100,-37.8491,0\H,117,1.08224,116,119.693,104,-0.141601,0\C,117,1.38566,116,120.321,104,179.845,0\H,119,1.0825,117,119.284,116,-179.959,0\C,119,1.38774,117,120.631,116,0.836736,0\H,121,1.08196,119,120.452,117,179.605,0\C,121,1.38823,119,119.146,117,-0.531611,0\H,123,1.08267,121,120.072,119,-179.429,0\C,123,1.38486,121,120.603,119,-0.375588,0\H,125,1.0827,123,119.982,121,-179.105,0\C,97,1.50614,96,121.352,50,-0.422751,0\H,127,1.09211,97,110.416,96,27.879,0\H,127,1.09367,97,109.554,96,144.517,0\C,103,1.50706,101,117.85,100,-176.528,0\H,130,1.09221,103,110.426,101,-153.079,0\H,130,1.09365,103,109.695,101,-36.4004,0\C,127,1.52707,97,111.732,96,-94.2643,0\H,133,1.09022,127,110.906,97,60.8056,0\H,133,1.0909,127,111.212,97,-179.245,0\H,133,1.09129,127,111.028,97,-59.0311,0\C,130,1.52713,103,111.704,101,84.9522,0\H,137,1.09022,130,110.887,103,59.4845,0\H,137,1.09109,130,111.118,103,179.42,0\H,137,1.0913,130,111.165,103,-60.4565,0\\\@

 Total job time:  18033.23s(wall), 55062.25s(cpu) 
 Sun Nov  4 15:11:34 2018

        *************************************************************
        *                                                           *
        *  Thank you very much for using Q-Chem.  Have a nice day.  *
        *                                                           *
        *************************************************************


0 sent ACK to 0 
now end server 0 ... 
 
*************************************************************
Job 2 of 2 
*************************************************************
 
mFile = /cm/shared/apps/q-chem/intel/QCHEM_5.1.0_Trunk/bin/mpi/machines
Process 0 of 1 is on ctcp007 - thread support 0
initial socket setup ...start
initial socket setup ...done 
now start server 0 ... 
Q-Chem Developer Version!
                  Welcome to Q-Chem
     A Quantum Leap Into The Future Of Chemistry


 Q-Chem 5.1, Q-Chem, Inc., Pleasanton, CA (2018)

 Yihan Shao,  Zhengting Gan,  E. Epifanovsky,  A. T. B. Gilbert,  M. Wormit,  
 J. Kussmann,  A. W. Lange,  A. Behn,  Jia Deng,  Xintian Feng,  D. Ghosh,  
 M. Goldey,  P. R. Horn,  L. D. Jacobson,  I. Kaliman,  T. Kus,  A. Landau,  
 Jie Liu,  E. I. Proynov,  R. M. Richard,  R. P. Steele,  E. J. Sundstrom,  
 H. L. Woodcock III,  P. M. Zimmerman,  D. Zuev,  B. Albrecht,  E. Alguire,  
 S. A. Baeppler,  D. Barton,  Z. Benda,  Y. A. Bernard,  E. J. Berquist,  
 K. B. Bravaya,  H. Burton,  D. Casanova,  Chun-Min Chang,  Yunqing Chen,  
 A. Chien,  K. D. Closser,  M. P. Coons,  S. Coriani,  S. Dasgupta,  
 A. L. Dempwolff,  M. Diedenhofen,  Hainam Do,  R. G. Edgar,  Po-Tung Fang,  
 S. Faraji,  S. Fatehi,  Qingguo Feng,  K. D. Fenk,  J. Fosso-Tande,  
 Qinghui Ge,  A. Ghysels,  G. Gidofalvi,  J. Gomes,  J. Gonthier,  A. Gunina,  
 D. Hait,  M. W. D. Hanson-Heine,  P. H. P. Harbach,  A. W. Hauser,  
 J. E. Herr,  E. G. Hohenstein,  Z. C. Holden,  Kerwin Hui,  B. C. Huynh,  
 T.-C. Jagau,  Hyunjun Ji,  B. Kaduk,  K. Khistyaev,  Jaehoon Kim,  
 P. Klunzinger,  K. Koh,  D. Kosenkov,  L. Koulias,  T. Kowalczyk,  
 C. M. Krauter,  A. Kunitsa,  Ka Un Lao,  A. Laurent,  K. V. Lawler,  
 Joonho Lee,  D. Lefrancois,  S. Lehtola,  D. S. Levine,  Yi-Pei Li,  
 You-Sheng Lin,  Fenglai Liu,  E. Livshits,  A. Luenser,  P. Manohar,  
 E. Mansoor,  S. F. Manzer,  Shan-Ping Mao,  Yuezhi Mao,  N. Mardirossian,  
 A. V. Marenich,  T. Markovich,  L. A. Martinez-Martinez,  S. A. Maurer,  
 N. J. Mayhall,  S. C. McKenzie,  J.-M. Mewes,  A. F. Morrison,  
 J. W. Mullinax,  K. Nanda,  T. S. Nguyen-Beck,  R. Olivares-Amaya,  
 J. A. Parkhill,  T. M. Perrine,  F. Plasser,  P. Pokhilko,  S. Prager,  
 A. Prociuk,  E. Ramos,  D. R. Rehn,  F. Rob,  M. Schneider,  N. Sergueev,  
 S. M. Sharada,  S. Sharma,  D. W. Small,  T. Stauch,  T. Stein,  
 Yu-Chuan Su,  A. J. W. Thom,  A. Tkatchenko,  T. Tsuchimochi,  N. M. Tubman,  
 L. Vogt,  M. L. Vidal,  O. Vydrov,  M. A. Watson,  J. Wenzel,  
 M. de Wergifosse,  T. A. Wesolowski,  A. White,  J. Witte,  A. Yamada,  
 Jun Yang,  K. Yao,  S. Yeganeh,  S. R. Yost,  Zhi-Qiang You,  A. Zech,  
 Igor Ying Zhang,  Xing Zhang,  Yan Zhao,  Ying Zhu,  B. R. Brooks,  
 G. K. L. Chan,  C. J. Cramer,  M. S. Gordon,  W. J. Hehre,  A. Klamt,  
 M. W. Schmidt,  C. D. Sherrill,  D. G. Truhlar,  A. Aspuru-Guzik,  R. Baer,  
 A. T. Bell,  N. A. Besley,  Jeng-Da Chai,  A. E. DePrince, III,  
 R. A. DiStasio Jr.,  A. Dreuw,  B. D. Dunietz,  T. R. Furlani,  
 Chao-Ping Hsu,  Yousung Jung,  Jing Kong,  D. S. Lambrecht,  WanZhen Liang,  
 C. Ochsenfeld,  V. A. Rassolov,  L. V. Slipchenko,  J. E. Subotnik,  
 T. Van Voorhis,  J. M. Herbert,  A. I. Krylov,  P. M. W. Gill,  M. Head-Gordon

 Contributors to earlier versions of Q-Chem not listed above: 
 R. D. Adamson,  B. Austin,  J. Baker,  G. J. O. Beran,  K. Brandhorst,  
 S. T. Brown,  E. F. C. Byrd,  A. K. Chakraborty,  C.-L. Cheng,  
 Siu Hung Chien,  D. M. Chipman,  D. L. Crittenden,  H. Dachsel,  
 R. J. Doerksen,  A. D. Dutoi,  L. Fusti-Molnar,  W. A. Goddard III,  
 A. Golubeva-Zadorozhnaya,  S. R. Gwaltney,  G. Hawkins,  A. Heyden,  
 S. Hirata,  G. Kedziora,  F. J. Keil,  C. Kelley,  Jihan Kim,  R. A. King,  
 R. Z. Khaliullin,  P. P. Korambath,  W. Kurlancheek,  A. M. Lee,  M. S. Lee,  
 S. V. Levchenko,  Ching Yeh Lin,  D. Liotard,  R. C. Lochan,  I. Lotan,  
 P. E. Maslen,  N. Nair,  D. P. O'Neill,  D. Neuhauser,  E. Neuscamman,  
 C. M. Oana,  R. Olson,  B. Peters,  R. Peverati,  P. A. Pieniazek,  
 Y. M. Rhee,  J. Ritchie,  M. A. Rohrdanz,  E. Rosta,  N. J. Russ,  
 H. F. Schaefer III,  N. E. Schultz,  N. Shenvi,  A. C. Simmonett,  A. Sodt,  
 D. Stuck,  K. S. Thanthiriwatte,  V. Vanovschi,  Tao Wang,  A. Warshel,  
 C. F. Williams,  Q. Wu,  X. Xu,  W. Zhang

 Please cite Q-Chem as follows:
 Y. Shao et al., Mol. Phys. 113, 184-215 (2015)
 DOI: 10.1080/00268976.2014.952696

 Q-Chem 5.1.1 for Intel X86 EM64T Linux

 Parts of Q-Chem use Armadillo 8.300.2 (Tropical Shenanigans).
 http://arma.sourceforge.net/

 Q-Chem begins on Sun Nov  4 15:11:37 2018  

Host: ctcp007
0

     Scratch files written to /scratch/mewes/139535/qchem63965//
 Parallel job on  1  processors
The previous job contains 0 fragments, simply inherited here
Symmetry turned off for PCM/SM12/SMD calculation
Input Ideriv = 2
Curr. Ideriv = -1
Max.  Ideriv = 2
Input Ideriv = 1
Curr. Ideriv = 2
Max.  Ideriv = 1

Checking the input file for inconsistencies... 	...done.

--------------------------------------------------------------
User input:
--------------------------------------------------------------
$rem
threads 8
jobtype sp
method PBEh-3c
basis def2-mSVP
mem_static      1024
mem_total       14000
sym_ignore      true
cis_n_roots             6
cis_singlets            true
cis_triplets            true
rpa                     false
calc_soc                true
cis_moments             true
cis_relaxed_density     true
solvent_method          pcm
$end

$molecule
read
$end

$pcm
statespecific           Marcus 
$end

$solvent
dielectric      2.38 
dielectric_infi 2.25
$end

--------------------------------------------------------------
 Adding empirical dispersion correction 
 ----------------------------------------------------------------
 Doing -D3(BJ) with
 s6 =   1.00000
 s8 =   0.00000
 a1 =   0.48600
 a2 =   4.50000
 -D3 energy including 3body term =     -0.1347607387 hartrees
 ----------------------------------------------------------------
 Adding gCP correction 
 ----------------------------------------------------------------
 gCP energy =      0.1917546677 hartrees
 ----------------------------------------------------------------
             Standard Nuclear Orientation (Angstroms)
    I     Atom           X                Y                Z
 ----------------------------------------------------------------
    1      C       0.0000000000     0.0000000000     0.0000000000
    2      C       0.0000000000     0.0000000000     1.4060240000
    3      H       0.9473861595     0.0000000000     1.9354707385
    4      C      -1.1780024432    -0.0020540510     2.1104831294
    5      C      -2.4316694825     0.0021075376     1.4308066122
    6      C      -2.4550653399     0.0176261672     0.0575355591
    7      H      -3.4095974862     0.0256731117    -0.4611177284
    8      C      -1.2519598323     0.0143235417    -0.6893171516
    9      C      -1.4290853294    -0.0143404706     3.5435944817
   10      C      -0.6378032655    -0.0210909079     4.6657453176
   11      H       0.4436663472    -0.0133524271     4.6015309405
   12      C      -2.8298079539    -0.0232978346     3.6988767446
   13      C      -3.4714277854    -0.0441480880     4.9336016459
   14      C      -3.4861044457    -0.0147669877     2.4491229861
   15      C      -4.8580106801    -0.0301878576     2.4444086616
   16      H      -5.4261088532    -0.0304512165     1.5221690084
   17      C      -1.2655560092    -0.0388897371     5.9318990616
   18      H      -0.6428933386    -0.0440323826     6.8178438554
   19      C      -2.6343236288    -0.0513713969     6.0777693549
   20      H      -3.0710411456    -0.0670639154     7.0689430469
   21      C      -5.5400654303    -0.0517403654     3.6841783114
   22      H      -6.6226129472    -0.0661308174     3.6758750537
   23      C      -4.8860528416    -0.0580014958     4.8953339550
   24      H      -5.4543768071    -0.0757395434     5.8173238137
   25      B      -1.2545549991     0.0480102682    -2.2194841887
   26      C       0.0495390677    -0.0168018861    -3.0116307761
   27      C       0.0549568934    -0.0311041717    -4.4275041764
   28      H      -0.8861034572    -0.0030476522    -4.9696301678
   29      C       1.2357594859    -0.0774216529    -5.1250377927
   30      C       2.4732842834    -0.1000129467    -4.4146440619
   31      C       2.4917376408    -0.0749527813    -3.0429350573
   32      H       3.4397390026    -0.0837869130    -2.5140525732
   33      C       1.2938075546    -0.0363473724    -2.3080442527
   34      C       3.5605468870    -0.1444624518    -5.3830181913
   35      C       4.9318633683    -0.1829951491    -5.3053073244
   36      H       5.4501376234    -0.1823945323    -4.3540586741
   37      C       2.9542694241    -0.1492241057    -6.6552433373
   38      C       3.6658203052    -0.1931002746    -7.8522204357
   39      C       1.5469742733    -0.1100573631    -6.5576307704
   40      C       0.8224358034    -0.1161903497    -7.7234306294
   41      H      -0.2603528343    -0.0906877853    -7.7230218183
   42      C       5.6763842600    -0.2261365809    -6.5063000933
   43      H       6.7570692736    -0.2566796730    -6.4437068957
   44      C       5.0787898305    -0.2320746662    -7.7460017327
   45      H       5.6890332539    -0.2672180060    -8.6404434389
   46      C       2.8905356539    -0.1969026463    -9.0358265854
   47      H       3.3766450107    -0.2307555162   -10.0034484480
   48      C       1.5170463228    -0.1595029850    -8.9556792079
   49      H       0.9404155991    -0.1643038572    -9.8720544400
   50      B       1.3311273290     0.0059731212    -0.7733271587
   51      C      -2.6231214237     0.2586767080    -2.9773922656
   52      C      -3.3301327908    -0.8180096317    -3.5767195765
   53      C      -4.5547512100    -0.6028664716    -4.1625563060
   54      H      -5.1119669450    -1.4376705775    -4.5692395564
   55      C      -5.1241902631     0.6889425374    -4.1677017933
   56      N      -6.3639859170     0.9084236356    -4.6983700973
   57      C      -6.8771737811     0.1046600136    -5.7367329954
   58      C      -8.2043045727    -0.3159456700    -5.6897732748
   59      H      -8.8324052890    -0.0456273564    -4.8510289193
   60      C      -8.7016684597    -1.1024504516    -6.7128815391
   61      H      -9.7276116680    -1.4419725287    -6.6729639334
   62      C      -7.8874417643    -1.4649741907    -7.7788823854
   63      H      -8.2821224730    -2.0808347275    -8.5755968308
   64      C      -6.5689668896    -1.0323176916    -7.8249887174
   65      H      -5.9367310419    -1.2992448514    -8.6607991804
   66      C      -6.0585818535    -0.2431209509    -6.8098047664
   67      H      -5.0390331168     0.1175392096    -6.8558588199
   68      C      -4.4083862029     1.7668813104    -3.6054718123
   69      H      -4.8157599394     2.7683878198    -3.6622623715
   70      C      -3.1770603903     1.5666410416    -3.0350740626
   71      C      -7.1650768966     1.9633076013    -4.2017530776
   72      C      -7.7646951253     2.8540145440    -5.0870417098
   73      H      -7.6175682070     2.7446405001    -6.1537101659
   74      C      -8.5242178119     3.8963654829    -4.5855200792
   75      H      -8.9778574192     4.6018810002    -5.2682345498
   76      C      -8.6929356134     4.0454199985    -3.2145727599
   77      H      -9.2858383226     4.8639850219    -2.8294247708
   78      C      -8.1023481080     3.1447786359    -2.3385143123
   79      H      -8.2397389839     3.2521369792    -1.2712039066
   80      C      -7.3380048666     2.0997304490    -2.8264630546
   81      H      -6.8853273274     1.3886600949    -2.1472909541
   82      C      -2.7740389721    -2.2141154743    -3.5191154594
   83      H      -1.6933158820    -2.1817318134    -3.6698225927
   84      H      -3.1864052573    -2.8006530228    -4.3435018491
   85      C      -2.4125218629     2.7546869755    -2.5153333511
   86      H      -1.8679481095     2.4760935361    -1.6119293147
   87      H      -3.1174397511     3.5372042458    -2.2245477086
   88      C      -3.0763318409    -2.9136276178    -2.1952133122
   89      H      -2.6287893195    -2.3852859404    -1.3545292619
   90      H      -2.6707592345    -3.9251591103    -2.2006051555
   91      H      -4.1507669359    -2.9827909369    -2.0194445618
   92      C      -1.4319097150     3.3137472420    -3.5454971753
   93      H      -0.6785047650     2.5762688103    -3.8182593983
   94      H      -0.9109543392     4.1808180729    -3.1393161167
   95      H      -1.9468745518     3.6269920637    -4.4548184413
   96      C       2.7066635860     0.0978583187     0.0094242637
   97      C       3.4658836568    -1.0418124003     0.3142475840
   98      C       4.6472285667    -0.9343228035     1.0393692978
   99      H       5.2237189683    -1.8259995234     1.2620045044
  100      C       5.0871907530     0.2972111201     1.5054056614
  101      C       4.3495672641     1.4323047004     1.2000427591
  102      H       4.6838682300     2.4008992858     1.5563730206
  103      C       3.1845421242     1.3431863613     0.4478598159
  104      N       6.2539264626     0.3816604758     2.2984270726
  105      C       7.1568848215     1.4381439483     2.1145443438
  106      C       7.7099295466     2.1074767768     3.2076454963
  107      H       7.4379354770     1.8155612349     4.2138063512
  108      C       8.6031023148     3.1490354407     3.0142717803
  109      H       9.0199163104     3.6546256291     3.8761927535
  110      C       8.9474255348     3.5582186970     1.7342269517
  111      H       9.6386469838     4.3774520796     1.5867031314
  112      C       8.3903006687     2.9021663446     0.6448830390
  113      H       8.6506664106     3.2050536472    -0.3613563485
  114      C       7.5114519404     1.8474106950     0.8276889287
  115      H       7.0920195510     1.3386674276    -0.0306860199
  116      C       6.3939792554    -0.4789141296     3.3990237431
  117      C       5.2960319466    -0.8062714948     4.1938527875
  118      H       4.3237930960    -0.3910425684     3.9623606025
  119      C       5.4450768433    -1.6591208890     5.2757420582
  120      H       4.5812691099    -1.9024513914     5.8810789200
  121      C       6.6887223191    -2.1857241506     5.5948972219
  122      H       6.8029487383    -2.8463319337     6.4441194944
  123      C       7.7844213097    -1.8563111509     4.8086936179
  124      H       8.7598749128    -2.2659692728     5.0385595013
  125      C       7.6410163072    -1.0195849262     3.7145410880
  126      H       8.4996655286    -0.7808848426     3.0997430899
  127      C       3.0042995770    -2.4197941421    -0.0814495292
  128      H       2.3763141017    -2.3696665609    -0.9735438478
  129      H       3.8693688137    -3.0322480354    -0.3510101925
  130      C       2.4791762608     2.6253909327     0.0877871347
  131      H       1.4116898032     2.4454535326    -0.0571883086
  132      H       2.5587218454     3.3349848879     0.9161640446
  133      C       2.2347295105    -3.1038612753     1.0462765090
  134      H       1.3434802349    -2.5342273773     1.3104072682
  135      H       1.9160415185    -4.1058330597     0.7555072334
  136      H       2.8509461985    -3.1939077177     1.9424203398
  137      C       3.0630163692     3.2558263884    -1.1746714952
  138      H       2.9797423137     2.5759593207    -2.0228625296
  139      H       2.5390295329     4.1775539918    -1.4322284615
  140      H       4.1190433143     3.4971813123    -1.0423947784
 ----------------------------------------------------------------
 Nuclear Repulsion Energy = 12135.5905833380 hartrees
 There are      270 alpha and      270 beta electrons
 Requested basis set is def2-mSVP
 There are 680 shells and 1320 basis functions

 Total QAlloc Memory Limit  14000 MB
 Mega-Array Size      1001 MB
 MEM_STATIC part      1024 MB
 Discretize the solute cavity surface with Lebedev spheres
	Using 302 Lebedev grid points for each H atom
	Using 302 Lebedev grid points for other atoms
	Atomic van der Waals radii will be scaled by 1.20
 Remove points where switching function is < 1.0e-08
 Keep 14628 surface tesserae and discard 27652 interior tesserae
 Molecular Surface Area = 1077.363 Angst**2
 A cutoff of  1.0D-11 yielded  62888 shell pairs
 There are    244140 function pairs (    268429 Cartesian)
 
 -------------------------------------------------------
 OpenMP Integral Computing Module                       
 Release: version 1.0, May 2013, Q-Chem Inc. Pittsburgh 
 -------------------------------------------------------
 Integral Job Info:
 Integral job number is                      11
 Integral operator is                         1
 short-range coefficients                     0
 long-range coefficients              100000000
 Omega coefficients                           0
 if combine SR and LR in K                    0
 Integral screening is                        0
 Integral computing path is                   2
 max size of driver memory is            800000
 size of driver memory is                593474
 size of scratch memory is              1809772
 max col of scratch BK array               1296
 max len of scratch array in speh3          155
 max len of scratch index in speh4           18
 max int batch size is                      520
 min int batch size is                       52
 fixed nKL is                                52
 max L of basis functions is                  2
 order of int derivative is                   0
 number of shells is                        680
 number of basis is                        1400
 number of cartesian basis is              1400
 number of contracted shell pairs         62888
 number of primitive shell pairs         129750
 maxK2 (contraction) of shell pair           25
 max number of K2 of shell pair               1
 max number of CS2 of shell pair          15568
 max number of PS2 of shell pair          22755
 mem total for path MDJ                 1128316
 -------------------------------------------------------
 Smallest overlap matrix eigenvalue = 1.96E-04

 Scale SEOQF with 1.000000e-02/1.000000e-01/1.000000e-02

 Standard Electronic Orientation quadrupole field applied
 Nucleus-field energy     =     0.0000000484 hartrees
 Guess from superposition of atomic densities
 Warning:  Energy on first SCF cycle will be non-variational
 SAD guess density has 540.000001 electrons

 -----------------------------------------------------------------------
  General SCF calculation program by
  Eric Jon Sundstrom, Paul Horn, Yuezhi Mao, Dmitri Zuev, Alec White,
  David Stuck, Shaama M.S., Shane Yost, Joonho Lee, David Small,
  Daniel Levine, Susi Lehtola, Hugh Burton, Evgeny Epifanovsky
 -----------------------------------------------------------------------
 Exchange:     0.4200 Hartree-Fock + 0.5800 PBEh-3c
 Correlation:  1.0000 PBEh-3c
 Using SG-1 standard quadrature grid
 Dispersion:   Grimme D3
 using 8 threads for integral computing
 -------------------------------------------------------
 OpenMP Integral computing Module                
 Release: version 2.0, May 2017, Q-Chem Inc. Pleasanton 
 -------------------------------------------------------
 -------------------------------------------------------
 OpenMP BLAS3 based DFT computing Module                
 Release: version 1.0, May 2013, Q-Chem Inc. Pittsburgh 
 -------------------------------------------------------
 A restricted SCF calculation will be
 performed using DIIS
 SCF converges when DIIS error is below 1.0e-08
 ---------------------------------------
  Cycle       Energy         DIIS error
 ---------------------------------------
    1   -3111.1565512390      2.35e-02  
    2   -3084.1560236864      1.59e-03  
    3   -3084.3583909393      1.38e-03  
    4   -3084.7422347511      4.74e-04  
    5   -3084.7913780600      1.53e-04  
    6   -3084.7966474718      4.26e-05  
    7   -3084.7970297287      1.33e-05  
    8   -3084.7970695851      4.10e-06  
    9   -3084.7970737897      1.25e-06  
   10   -3084.7970742614      4.06e-07  
   11   -3084.7970741474      1.48e-07  
   12   -3084.7970740488      5.65e-08  
   13   -3084.7970741620      1.89e-08  
   14   -3084.7970741941      8.34e-09  Convergence criterion met
 ---------------------------------------
 SCF time:   CPU 24874.91s  wall 3437.00s 

************** Final PCM Free Energy Summary **************
 G_electrostatic  =      -0.02394358 hartree =     -15.02482506 kcal/mol
 G_cavitation     =       0.00000000 hartree =       0.00000000 kcal/mol
 G_dispersion     =       0.00000000 hartree =       0.00000000 kcal/mol
 G_repulsion      =       0.00000000 hartree =       0.00000000 kcal/mol
 --------------------------------------------------
 Non-electrostatic Free Energy =       0.00000000 hartree =       0.00000000 kcal/mol
 Total                         =      -0.02394358 hartree =     -15.02482506 kcal/mol
 --------------------------------------------------
 SCF Energy (H0 + V/2)                       =   -3084.79707419 
 Solute Internal Energy (H0)                 =   -3084.77313061 
 Total Free Energy (H0 + V/2 + non-elec)     =   -3084.79707419 hartree
                                             = -1935739.38016990 kcal/mol
***********************************************************

 SCF   energy in the final basis set =    -3084.7970741941
 Total energy in the final basis set =    -3084.7970741941
 
 Direct TDDFT/TDA calculation will be performed
 Exchange:     0.4200 Hartree-Fock + 0.5800 PBEh-3c
 Correlation:  1.0000 PBEh-3c
 Using SG-1 standard quadrature grid
 Dispersion:   Grimme D3
 Triplet excitation energies requested
 Singlet excitation energies requested
 Adding PCM contribution to the XC response
 CIS energy converged when residual is below 10e- 6
 ---------------------------------------------------
 Iter    Rts Conv    Rts Left    Ttl Dev     Max Dev
 ---------------------------------------------------
   1         0           6      0.000172    0.000056
   2         0           6      0.000067    0.000022
   3         0           6      0.000107    0.000065
   4         0           6      0.000094    0.000053
   5         2           4      0.000045    0.000027
   6         3           3      0.000024    0.000014
   7         3           3      0.000014    0.000009
   8         5           1      0.000005    0.000003
   9         5           1      0.000003    0.000001
  10         6           0      0.000003    0.000001    Roots Converged
 ---------------------------------------------------
 Triplets done: starting singlet calculation
 ---------------------------------------------------
 Iter    Rts Conv    Rts Left    Ttl Dev     Max Dev
 ---------------------------------------------------
  11         0           6      0.000281    0.000119
  12         0           6      0.000113    0.000032
  13         0           6      0.000041    0.000013
  14         0           6      0.000016    0.000004
  15         2           4      0.000077    0.000070
  16         4           2      0.000037    0.000032
  17         4           2      0.000022    0.000017
  18         4           2      0.000013    0.000009
  19         5           1      0.000008    0.000005
  20         5           1      0.000005    0.000002
  21         5           1      0.000004    0.000001
  22         6           0      0.000003    0.000001    Roots Converged
 ---------------------------------------------------
 
 ---------------------------------------------------
         TDDFT/TDA Excitation Energies              
 ---------------------------------------------------

 Excited state   1: excitation energy (eV) =    2.0725
 Total energy for state  1:                 -3084.72091276 au
    Multiplicity: Triplet
    Trans. Mom.:  0.0000 X   0.0000 Y   0.0000 Z
    Strength   :     0.0000000000
    D(270) --> V(  1) amplitude =  0.9537

 Excited state   2: excitation energy (eV) =    2.1214
 Total energy for state  2:                 -3084.71911440 au
    Multiplicity: Singlet
    Trans. Mom.: -0.8018 X   0.1102 Y  -0.2426 Z
    Strength   :     0.0371067051
    D(270) --> V(  1) amplitude =  0.9730

 Excited state   3: excitation energy (eV) =    2.2159
 Total energy for state  3:                 -3084.71564234 au
    Multiplicity: Triplet
    Trans. Mom.:  0.0000 X   0.0000 Y   0.0000 Z
    Strength   :     0.0000000000
    D(267) --> V(  1) amplitude =  0.7551
    D(268) --> V(  1) amplitude =  0.5086

 Excited state   4: excitation energy (eV) =    2.4309
 Total energy for state  4:                 -3084.70774045 au
    Multiplicity: Triplet
    Trans. Mom.:  0.0000 X   0.0000 Y   0.0000 Z
    Strength   :     0.0000000000
    D(266) --> V(  2) amplitude = -0.4636
    D(267) --> V(  1) amplitude = -0.4581
    D(268) --> V(  1) amplitude =  0.6467

 Excited state   5: excitation energy (eV) =    2.4771
 Total energy for state  5:                 -3084.70604219 au
    Multiplicity: Triplet
    Trans. Mom.:  0.0000 X   0.0000 Y   0.0000 Z
    Strength   :     0.0000000000
    D(266) --> V(  1) amplitude =  0.4130
    D(268) --> V(  2) amplitude = -0.2660
    D(269) --> V(  1) amplitude =  0.7904

 Excited state   6: excitation energy (eV) =    2.4945
 Total energy for state  6:                 -3084.70540475 au
    Multiplicity: Triplet
    Trans. Mom.:  0.0000 X   0.0000 Y   0.0000 Z
    Strength   :     0.0000000000
    D(266) --> V(  1) amplitude = -0.6121
    D(268) --> V(  2) amplitude =  0.4314
    D(269) --> V(  1) amplitude =  0.5211

 Excited state   7: excitation energy (eV) =    2.5013
 Total energy for state  7:                 -3084.70515247 au
    Multiplicity: Singlet
    Trans. Mom.: -0.2978 X  -0.0220 Y  -0.2604 Z
    Strength   :     0.0096200837
    D(269) --> V(  1) amplitude =  0.9727

 Excited state   8: excitation energy (eV) =    2.7306
 Total energy for state  8:                 -3084.69672690 au
    Multiplicity: Triplet
    Trans. Mom.:  0.0000 X   0.0000 Y   0.0000 Z
    Strength   :     0.0000000000
    D(261) --> V(  1) amplitude =  0.2360
    D(262) --> V(  1) amplitude =  0.5002
    D(263) --> V(  1) amplitude = -0.4329
    D(267) --> V(  2) amplitude =  0.5187

 Excited state   9: excitation energy (eV) =    2.8783
 Total energy for state  9:                 -3084.69129982 au
    Multiplicity: Singlet
    Trans. Mom.: -0.1907 X   0.0123 Y   0.4176 Z
    Strength   :     0.0148707991
    D(267) --> V(  1) amplitude =  0.8104
    D(268) --> V(  1) amplitude =  0.5305

[...]
    Charge (ESU x 10^10)
                -0.0000
    Dipole Moment (Debye)
         X     -21.3672      Y       2.7534      Z     -10.8078
       Tot      24.1028
    Quadrupole Moments (Debye-Ang)
        XX    -312.7600     XY     -22.5080     YY    -449.0999
        XZ     102.2373     YZ      -5.8289     ZZ    -376.9585
    Octopole Moments (Debye-Ang^2)
       XXX   -1121.7886    XXY      76.7533    XYY    -134.8327
       YYY    -348.8562    XXZ    -119.1801    XYZ      11.2828
       YYZ     550.8019    XZZ    -573.0213    YZZ    -213.0910
       ZZZ    1303.6695
    Hexadecapole Moments (Debye-Ang^3)
      XXXX  -57940.4620   XXXY    -496.6721   XXYY  -11085.4842
      XYYY     350.2612   YYYY   -7684.0529   XXXZ   -4396.7823
      XXYZ      -6.2550   XYYZ   -2027.0585   YYYZ     785.1288
      XXZZ  -14854.1028   XYZZ     357.8825   YYZZ  -10019.2879
      XZZZ   -5640.6700   YZZZ    1434.3167   ZZZZ  -44776.4514
 -----------------------------------------------------------------
 -----------------------------------------------------------------
               TDA Excited-State Multipoles, State  2
 -----------------------------------------------------------------
    Charge (ESU x 10^10)
                -0.0000
    Dipole Moment (Debye)
         X     -22.1773      Y       2.8663      Z     -11.2596
       Tot      25.0365
    Quadrupole Moments (Debye-Ang)
        XX    -308.6875     XY     -23.3856     YY    -448.6500
        XZ     107.1151     YZ      -6.1162     ZZ    -376.2006
    Octopole Moments (Debye-Ang^2)
       XXX   -1168.2770    XXY      83.4248    XYY    -140.2952
       YYY    -346.9991    XXZ    -147.4698    XYZ      13.1004
       YYZ     548.1397    XZZ    -598.9313    YZZ    -212.6176
       ZZZ    1290.2780
    Hexadecapole Moments (Debye-Ang^3)
      XXXX  -57635.4325   XXXY    -558.3872   XXYY  -11049.7237
      XYYY     333.5484   YYYY   -7675.8344   XXXZ   -4154.6395
      XXYZ     -22.7472   XYYZ   -2006.8402   YYYZ     778.7282
      XXZZ  -14723.3680   XYZZ     358.6710   YYZZ  -10009.0203
      XZZZ   -5447.8870   YZZZ    1439.5821   ZZZZ  -44743.5679
 -----------------------------------------------------------------
 -----------------------------------------------------------------
               TDA Excited-State Multipoles, State  3
 -----------------------------------------------------------------
    Charge (ESU x 10^10)
                -0.0000
    Dipole Moment (Debye)
         X      -1.4985      Y       0.0735      Z      -0.3681
       Tot       1.5448
    Quadrupole Moments (Debye-Ang)
        XX    -410.5930     XY      -3.7237     YY    -460.6513
        XZ     -14.2904     YZ       1.1728     ZZ    -385.0712
    Octopole Moments (Debye-Ang^2)
       XXX     -93.7539    XXY     -66.2552    XYY     -11.7008
       YYY    -388.6530    XXZ     501.4092    XYZ     -28.3770
       YYZ     613.4355    XZZ      33.7056    YZZ    -227.1816
       ZZZ    1500.8532
    Hexadecapole Moments (Debye-Ang^3)
      XXXX  -64633.3680   XXXY     800.2519   XXYY  -11872.5396
      XYYY     703.2339   YYYY   -7891.5026   XXXZ   -9642.8369
      XXYZ     348.3195   XYYZ   -2482.5189   YYYZ     919.6101
      XXZZ  -17710.3702   XYZZ     346.0932   YYZZ  -10251.0444
      XZZZ  -10089.9896   YZZZ    1350.0990   ZZZZ  -44404.3636
 -----------------------------------------------------------------
 -----------------------------------------------------------------
               TDA Excited-State Multipoles, State  4
 -----------------------------------------------------------------
    Charge (ESU x 10^10)
                -0.0000
    Dipole Moment (Debye)
         X      -0.6193      Y       0.0391      Z      -0.1461
       Tot       0.6375
    Quadrupole Moments (Debye-Ang)
        XX    -404.6460     XY      -2.9495     YY    -460.2661
        XZ     -17.0370     YZ       1.3659     ZZ    -377.0165
    Octopole Moments (Debye-Ang^2)
       XXX     -52.6323    XXY     -65.4853    XYY      -4.9447
       YYY    -389.0780    XXZ     530.2848    XYZ     -29.1421
       YYZ     615.9787    XZZ      57.2481    YZZ    -230.0369
       ZZZ    1447.5332
    Hexadecapole Moments (Debye-Ang^3)
      XXXX  -64421.1993   XXXY     864.7845   XXYY  -11855.9052
      XYYY     718.2254   YYYY   -7887.3003   XXXZ   -9747.7375
      XXYZ     356.6631   XYYZ   -2486.8451   YYYZ     924.1324
      XXZZ  -17631.8652   XYZZ     339.1816   YYZZ  -10243.5435
      XZZZ  -10333.2863   YZZZ    1356.5517   ZZZZ  -43653.4421
 -----------------------------------------------------------------
 -----------------------------------------------------------------
               TDA Excited-State Multipoles, State  5
 -----------------------------------------------------------------
    Charge (ESU x 10^10)
                -0.0000
    Dipole Moment (Debye)
         X      13.6065      Y       1.1771      Z       9.6020
       Tot      16.6950
    Quadrupole Moments (Debye-Ang)
        XX    -332.6764     XY       8.7997     YY    -452.2214
        XZ      39.4600     YZ      -0.8473     ZZ    -415.3207
    Octopole Moments (Debye-Ang^2)
       XXX     716.5858    XXY      30.8531    XYY      86.2762
       YYY    -373.2441    XXZ     860.2550    XYZ     -38.8718
       YYZ     652.7255    XZZ     141.6416    YZZ    -241.0920
       ZZZ    1838.1832
    Hexadecapole Moments (Debye-Ang^3)
      XXXX  -59410.6003   XXXY    1884.4722   XXYY  -11270.5340
      XYYY     917.1012   YYYY   -7771.6001   XXXZ   -7508.4557
      XXYZ     382.7606   XYYZ   -2295.4145   YYYZ     940.6821
      XXZZ  -17421.2686   XYZZ     260.4042   YYZZ  -10206.1191
      XZZZ   -8590.4171   YZZZ    1160.4553   ZZZZ  -46431.0301
 -----------------------------------------------------------------
 -----------------------------------------------------------------
               TDA Excited-State Multipoles, State  6
 -----------------------------------------------------------------
    Charge (ESU x 10^10)
                -0.0000
    Dipole Moment (Debye)
         X       6.1769      Y       0.5336      Z       3.5052
       Tot       7.1222
    Quadrupole Moments (Debye-Ang)
        XX    -373.6583     XY       2.0953     YY    -456.5706
        XZ       7.2987     YZ       0.4942     ZZ    -393.0084
    Octopole Moments (Debye-Ang^2)
       XXX     301.9494    XXY     -23.7503    XYY      34.9424
       YYY    -381.8715    XXZ     654.8142    XYZ     -33.0429
       YYZ     630.9564    XZZ     112.6736    YZZ    -235.2992
       ZZZ    1609.4955
    Hexadecapole Moments (Debye-Ang^3)
      XXXX  -62239.7180   XXXY    1308.0049   XXYY  -11598.8221
      XYYY     804.9540   YYYY   -7834.0403   XXXZ   -8786.7464
      XXYZ     372.3793   XYYZ   -2402.4518   YYYZ     931.1483
      XXZZ  -17493.2273   XYZZ     301.7000   YYZZ  -10224.3290
      XZZZ   -9633.9858   YZZZ    1273.5767   ZZZZ  -44859.2643
 -----------------------------------------------------------------
 -----------------------------------------------------------------
               TDA Excited-State Multipoles, State  7
 -----------------------------------------------------------------
    Charge (ESU x 10^10)
                -0.0000
    Dipole Moment (Debye)
         X      22.2467      Y       1.7617      Z      14.1091
       Tot      26.4024
    Quadrupole Moments (Debye-Ang)
        XX    -293.3428     XY      15.4385     YY    -448.0376
        XZ      68.8808     YZ      -1.8990     ZZ    -431.2657
    Octopole Moments (Debye-Ang^2)
       XXX    1171.4698    XXY      83.5120    XYY     139.2094
       YYY    -364.8151    XXZ    1044.1012    XYZ     -44.4963
       YYZ     673.4732    XZZ     218.8585    YZZ    -248.8174
       ZZZ    1998.0460
    Hexadecapole Moments (Debye-Ang^3)
      XXXX  -56644.4990   XXXY    2473.1691   XXYY  -10950.0983
      XYYY    1032.6898   YYYY   -7712.0305   XXXZ   -6307.2363
      XXYZ     402.6973   XYYZ   -2193.3877   YYYZ     952.1609
      XXZZ  -17297.1242   XYZZ     210.8173   YYZZ  -10183.4277
      XZZZ   -7774.0155   YZZZ    1057.7619   ZZZZ  -47534.9473
 -----------------------------------------------------------------
 -----------------------------------------------------------------
               TDA Excited-State Multipoles, State  8
 -----------------------------------------------------------------
    Charge (ESU x 10^10)
                -0.0000
    Dipole Moment (Debye)
         X      -1.1972      Y       0.1232      Z      -0.4650
       Tot       1.2902
    Quadrupole Moments (Debye-Ang)
        XX    -410.2633     XY      -3.2176     YY    -459.5231
        XZ      -8.8256     YZ       1.0461     ZZ    -392.1117
    Octopole Moments (Debye-Ang^2)
       XXX     -82.7038    XXY     -63.3299    XYY      -8.3084
       YYY    -387.7774    XXZ     526.6789    XYZ     -29.7115
       YYZ     613.4594    XZZ      23.3045    YZZ    -227.0354
       ZZZ    1508.7330
    Hexadecapole Moments (Debye-Ang^3)
      XXXX  -64572.9480   XXXY     835.1165   XXYY  -11848.5657
      XYYY     710.1915   YYYY   -7876.2417   XXXZ   -9484.8179
      XXYZ     346.8519   XYYZ   -2471.1481   YYYZ     919.2042
      XXZZ  -17817.7541   XYZZ     349.0198   YYZZ  -10250.9293
      XZZZ   -9897.7107   YZZZ    1341.8728   ZZZZ  -44733.8557
 -----------------------------------------------------------------
 -----------------------------------------------------------------
               TDA Excited-State Multipoles, State  9
 -----------------------------------------------------------------
    Charge (ESU x 10^10)
                -0.0000
    Dipole Moment (Debye)
         X      -1.1187      Y      -0.0530      Z      -0.0451
       Tot       1.1209
    Quadrupole Moments (Debye-Ang)
        XX    -412.6963     XY      -3.2915     YY    -462.1027
        XZ     -23.4939     YZ       1.5860     ZZ    -377.8257
    Octopole Moments (Debye-Ang^2)
       XXX     -70.1683    XXY     -72.8103    XYY      -8.9675
       YYY    -390.8012    XXZ     514.6068    XYZ     -28.8383
       YYZ     616.4151    XZZ      64.6338    YZZ    -228.5300
       ZZZ    1476.6381
    Hexadecapole Moments (Debye-Ang^3)
      XXXX  -64857.2668   XXXY     830.6657   XXYY  -11915.7958
      XYYY     712.7547   YYYY   -7912.5647   XXXZ   -9949.3314
      XXYZ     362.1271   XYYZ   -2508.1511   YYYZ     926.1229
      XXZZ  -17711.9281   XYZZ     343.1828   YYZZ  -10260.2781
      XZZZ  -10432.2804   YZZZ    1357.0985   ZZZZ  -43955.9460
 -----------------------------------------------------------------
 -----------------------------------------------------------------
               TDA Excited-State Multipoles, State 10
 -----------------------------------------------------------------
    Charge (ESU x 10^10)
                -0.0000
    Dipole Moment (Debye)
         X      -1.4166      Y      -0.1090      Z      -0.1228
       Tot       1.4261
    Quadrupole Moments (Debye-Ang)
        XX    -406.7375     XY      -3.2704     YY    -462.2121
        XZ     -29.8711     YZ       1.8631     ZZ    -363.2781
    Octopole Moments (Debye-Ang^2)
       XXX     -83.8112    XXY     -74.6461    XYY      -8.4945
       YYY    -391.6353    XXZ     521.4538    XYZ     -28.0044
       YYZ     616.8222    XZZ      77.3893    YZZ    -231.1637
       ZZZ    1388.8003
    Hexadecapole Moments (Debye-Ang^3)
      XXXX  -64728.0826   XXXY     832.1148   XXYY  -11919.5192
      XYYY     714.2641   YYYY   -7915.8942   XXXZ  -10166.4882
      XXYZ     365.5931   XYYZ   -2518.1675   YYYZ     928.7714
      XXZZ  -17537.9141   XYZZ     338.2139   YYZZ  -10251.4277
      XZZZ  -10815.7912   YZZZ    1378.5867   ZZZZ  -42754.4445
 -----------------------------------------------------------------
 -----------------------------------------------------------------
               TDA Excited-State Multipoles, State 11
 -----------------------------------------------------------------
    Charge (ESU x 10^10)
                -0.0000
    Dipole Moment (Debye)
         X     -22.8036      Y       3.3220      Z     -12.3882
       Tot      26.1631
    Quadrupole Moments (Debye-Ang)
        XX    -304.7591     XY     -24.8871     YY    -444.0880
        XZ     144.2528     YZ      -7.5320     ZZ    -413.6745
    Octopole Moments (Debye-Ang^2)
       XXX   -1247.9745    XXY     110.1325    XYY    -149.4016
       YYY    -338.3989    XXZ    -202.6081    XYZ      13.5861
       YYZ     539.0256    XZZ    -716.6386    YZZ    -207.6646
       ZZZ    1429.5401
    Hexadecapole Moments (Debye-Ang^3)
      XXXX  -56801.2762   XXXY    -680.8442   XXYY  -10881.0636
      XYYY     295.7280   YYYY   -7600.4211   XXXZ   -2842.8771
      XXYZ     -74.7684   XYYZ   -1900.4668   YYYZ     752.9300
      XXZZ  -14797.9576   XYZZ     377.6654   YYZZ   -9995.1773
      XZZZ   -3910.2934   YZZZ    1409.7150   ZZZZ  -47192.9954
 -----------------------------------------------------------------
 -----------------------------------------------------------------
               TDA Excited-State Multipoles, State 12
 -----------------------------------------------------------------
    Charge (ESU x 10^10)
                -0.0000
    Dipole Moment (Debye)
         X      -1.5794      Y       0.0304      Z      -0.7788
       Tot       1.7613
    Quadrupole Moments (Debye-Ang)
        XX    -400.9610     XY      -4.1053     YY    -461.0633
        XZ     -23.3246     YZ       1.5211     ZZ    -363.9697
    Octopole Moments (Debye-Ang^2)
       XXX    -104.2572    XXY     -66.6014    XYY     -13.0031
       YYY    -389.0551    XXZ     475.6621    XYZ     -26.1173
       YYZ     613.3145    XZZ      61.9647    YZZ    -230.9679
       ZZZ    1394.8950
    Hexadecapole Moments (Debye-Ang^3)
      XXXX  -64301.4839   XXXY     778.7689   XXYY  -11866.5068
      XYYY     699.0289   YYYY   -7897.5819   XXXZ   -9884.1035
      XXYZ     352.8899   XYYZ   -2490.3850   YYYZ     921.5175
      XXZZ  -17331.3430   XYZZ     336.3249   YYZZ  -10236.4452
      XZZZ  -10609.8246   YZZZ    1381.0064   ZZZZ  -42901.4524
 -----------------------------------------------------------------
Archival summary:
1\1\ctcp007\SP\ProcedureUnspecified\BasisUnspecified\276260\mewes\MonNov501:40:312018MonNov501:40:312018\0\\#,ProcedureUnspecified,BasisUnspecified,\\0,1\C\C,1,1.40602\H,2,1.08529,1,119.199\C,2,1.37257,1,120.88,3,-179.9,0\C,4,1.42606,2,120.655,1,-0.296461,0\C,5,1.37356,4,119.44,2,-0.450195,0\H,6,1.08637,5,119.496,4,-179.705,0\C,6,1.41607,5,120.851,4,0.715732,0\C,4,1.45499,2,130.816,1,179.383,0\C,9,1.3731,4,134.874,2,0.388806,0\H,10,1.0834,9,121.788,4,0.253758,0\C,9,1.40933,4,106.266,2,-179.457,0\C,12,1.39164,9,123.786,4,179.609,0\C,12,1.41162,9,111.377,4,-0.116635,0\C,14,1.372,12,117.896,9,179.615,0\H,15,1.08317,14,121.828,12,-179.651,0\C,10,1.41334,9,118.44,4,-179.734,0\H,17,1.08288,10,118.529,9,-179.988,0\C,17,1.37658,10,122.458,9,0.086308,0\H,19,1.08323,17,119.866,10,179.866,0\C,15,1.41517,14,118.626,12,0.090086,0\H,21,1.08267,15,118.385,14,-179.863,0\C,21,1.37647,15,122.814,14,-0.004846,0\H,23,1.08322,21,119.981,15,-179.937,0\B,8,1.53054,6,121.721,5,-179.269,0\C,25,1.52721,8,121.076,6,-177.335,0\C,26,1.41596,25,121.49,8,177.87,0\H,27,1.08641,26,119.696,25,-0.463921,0\C,27,1.37222,26,120.792,25,179.409,0\C,29,1.42711,27,119.583,26,-0.534039,0\C,30,1.37206,29,120.599,27,-0.043247,0\H,31,1.08559,30,119.911,29,-179.467,0\C,31,1.40591,30,120.772,29,0.464864,0\C,30,1.45666,29,108.47,27,-179.831,0\C,34,1.37406,30,135.087,29,-179.85,0\H,35,1.08327,34,121.812,30,-0.169457,0\C,34,1.40931,30,106.208,29,-0.06569,0\C,37,1.39319,34,123.778,30,-179.723,0\C,37,1.41122,34,111.498,30,0.020875,0\C,39,1.37262,37,117.873,34,-179.704,0\H,40,1.08309,39,121.822,37,179.812,0\C,35,1.4137,34,118.581,30,179.749,0\H,42,1.08293,35,118.51,34,-179.988,0\C,42,1.37623,35,122.46,34,-0.05801,0\H,44,1.08336,42,119.951,35,-179.912,0\C,38,1.41492,37,116.036,34,179.736,0\H,46,1.08339,38,120.09,37,-179.953,0\C,46,1.37633,38,119.869,37,-0.049206,0\H,48,1.08271,46,118.821,38,-179.925,0\B,33,1.53575,31,120.16,30,-179.369,0\C,25,1.57854,8,118.975,6,7.13399,0\C,51,1.42067,25,122.2,8,-101.516,0\C,52,1.37447,51,120.304,25,176.378,0\H,53,1.08295,52,119.857,51,-176.663,0\C,53,1.41176,52,120.276,51,-0.333853,0\N,55,1.36634,53,120.957,52,-177.356,0\C,56,1.40982,55,121.653,53,-28.4026,0\C,57,1.39298,56,119.612,55,137.267,0\H,58,1.08216,57,120.244,56,-1.31375,0\C,58,1.38301,57,119.301,56,179.897,0\H,60,1.0814,58,119.5,57,179.171,0\C,60,1.38951,58,120.343,57,-0.242556,0\H,62,1.08158,60,119.99,58,179.957,0\C,62,1.38841,60,120.042,58,-0.32325,0\H,64,1.08146,62,120.259,60,-179.022,0\C,64,1.38345,62,120.248,60,0.206897,0\H,66,1.08244,64,120.42,62,-178.37,0\C,55,1.41083,53,119.54,52,2.0387,0\H,68,1.08268,55,119.667,53,176.265,0\C,68,1.37172,55,120.638,53,-1.11495,0\C,56,1.41462,55,119.821,53,151.474,0\C,71,1.39163,56,119.865,55,130.963,0\H,72,1.08231,71,120.246,56,-0.212893,0\C,72,1.3838,71,119.213,56,-178.75,0\H,74,1.0815,72,119.526,71,178.908,0\C,74,1.38931,72,120.338,71,-0.438002,0\H,76,1.08163,74,119.943,72,179.843,0\C,76,1.38832,74,120.094,72,-0.198514,0\H,78,1.08146,76,120.286,74,-179.391,0\C,78,1.38363,76,120.162,74,0.337854,0\H,80,1.0825,78,120.39,76,-179.286,0\C,52,1.50388,51,120.224,25,-0.779083,0\H,82,1.09166,52,109.466,51,-39.9364,0\H,82,1.09256,52,109.263,51,-156.307,0\C,70,1.50536,68,118.964,55,176.622,0\H,85,1.09102,70,109.747,68,143.981,0\H,85,1.09261,70,109.235,68,27.5285,0\C,82,1.52755,52,112.652,51,81.7842,0\H,88,1.08912,82,111.44,52,-61.5211,0\H,88,1.08982,82,110.31,52,179.117,0\H,88,1.09091,82,111.32,52,59.2791,0\C,85,1.5282,70,112.45,68,-94.0682,0\H,92,1.08899,85,111.41,70,-61.6207,0\H,92,1.09004,85,110.272,70,179.044,0\H,92,1.09095,85,111.347,70,59.2661,0\C,50,1.58532,33,121.071,31,3.83071,0\C,96,1.40292,50,121.989,33,-84.8263,0\C,97,1.3903,96,120.687,50,-177.927,0\H,98,1.08489,97,119.67,96,-179.725,0\C,98,1.38832,97,120.86,96,1.51818,0\C,100,1.38772,98,118.899,97,-2.01746,0\H,101,1.08485,100,119.619,98,-179.865,0\C,101,1.38961,100,120.816,98,0.402813,0\N,100,1.41325,98,120.198,97,176.793,0\C,104,1.40189,100,120.21,98,140.399,0\C,105,1.39597,104,120.917,100,136.364,0\H,106,1.08238,105,119.936,104,-0.347532,0\C,106,1.38564,105,120.431,104,179.899,0\H,108,1.08271,106,119.213,105,179.986,0\C,108,1.38726,106,120.695,105,0.99576,0\H,110,1.08199,108,120.511,106,179.472,0\C,110,1.38833,108,119.014,106,-0.432071,0\H,112,1.08261,110,120.038,108,-179.739,0\C,112,1.38503,110,120.726,108,-0.504694,0\H,114,1.08238,112,119.944,110,-179.404,0\C,104,1.40411,100,119.049,98,-49.2518,0\C,116,1.39442,104,120.807,100,-37.8491,0\H,117,1.08224,116,119.693,104,-0.141601,0\C,117,1.38566,116,120.321,104,179.845,0\H,119,1.0825,117,119.284,116,-179.959,0\C,119,1.38774,117,120.631,116,0.836736,0\H,121,1.08196,119,120.452,117,179.605,0\C,121,1.38823,119,119.146,117,-0.531611,0\H,123,1.08267,121,120.072,119,-179.429,0\C,123,1.38486,121,120.603,119,-0.375588,0\H,125,1.0827,123,119.982,121,-179.105,0\C,97,1.50614,96,121.352,50,-0.422751,0\H,127,1.09211,97,110.416,96,27.879,0\H,127,1.09367,97,109.554,96,144.517,0\C,103,1.50706,101,117.85,100,-176.528,0\H,130,1.09221,103,110.426,101,-153.079,0\H,130,1.09365,103,109.695,101,-36.4004,0\C,127,1.52707,97,111.732,96,-94.2643,0\H,133,1.09022,127,110.906,97,60.8056,0\H,133,1.0909,127,111.212,97,-179.245,0\H,133,1.09129,127,111.028,97,-59.0311,0\C,130,1.52713,103,111.704,101,84.9522,0\H,137,1.09022,130,110.887,103,59.4845,0\H,137,1.09109,130,111.118,103,179.42,0\H,137,1.0913,130,111.165,103,-60.4565,0\\\@

 Total job time:  37733.89s(wall), 107196.58s(cpu) 
 Mon Nov  5 01:40:31 2018

        *************************************************************
        *                                                           *
        *  Thank you very much for using Q-Chem.  Have a nice day.  *
        *                                                           *
        *************************************************************


0 sent ACK to 0 
now end server 0 ... 
