
                                 *****************
                                 * O   R   C   A *
                                 *****************

           --- An Ab Initio, DFT and Semiempirical electronic structure package ---

                  #######################################################
                  #                        -***-                        #
                  #  Department of molecular theory and spectroscopy    #
                  #              Directorship: Frank Neese              #
                  # Max Planck Institute for Chemical Energy Conversion #
                  #                  D-45470 Muelheim/Ruhr              #
                  #                       Germany                       #
                  #                                                     #
                  #                  All rights reserved                #
                  #                        -***-                        #
                  #######################################################


                         Program Version 4.0.1 -  RELEASE  -


 With contributions from (in alphabetic order):
   Daniel Aravena         : Magnetic Properties
   Michael Atanasov       : Ab Initio Ligand Field Theory
   Ute Becker             : Parallelization
   Martin Brehm           : Molecular dynamics
   Dmytro Bykov           : SCF Hessian
   Vijay G. Chilkuri      : MRCI spin determinant printing
   Dipayan Datta          : RHF DLPNO-CCSD density
   Achintya Kumar Dutta   : EOM-CC, STEOM-CC
   Dmitry Ganyushin       : Spin-Orbit,Spin-Spin,Magnetic field MRCI
   Yang Guo               : DLPNO-NEVPT2, CIM, IAO-localization
   Andreas Hansen         : Spin unrestricted coupled pair/coupled cluster methods
   Lee Huntington         : MR-EOM, pCC
   Robert Izsak           : Overlap fitted RIJCOSX, COSX-SCS-MP3, EOM
   Christian Kollmar      : KDIIS, OOCD, Brueckner-CCSD(T), CCSD density
   Simone Kossmann        : Meta GGA functionals, TD-DFT gradient, OOMP2, MP2 Hessian
   Martin Krupicka        : AUTO-CI
   Dagmar Lenk            : GEPOL surface
   Dimitrios Liakos       : Extrapolation schemes; parallel MDCI
   Dimitrios Manganas     : ROCIS; embedding schemes
   Dimitrios Pantazis     : SARC Basis sets
   Taras Petrenko         : DFT Hessian,TD-DFT gradient, ASA, ECA, R-Raman, ABS, FL, XAS/XES, NRVS
   Peter Pinski           : DLPNO-MP2
   Christoph Reimann      : Effective Core Potentials
   Marius Retegan         : Local ZFS, SOC
   Christoph Riplinger    : Optimizer, TS searches, QM/MM, DLPNO-CCSD(T), (RO)-DLPNO pert. Triples
   Tobias Risthaus        : Range-separated hybrids, TD-DFT gradient, RPA, STAB
   Michael Roemelt        : Restricted open shell CIS
   Masaaki Saitow         : Open-shell DLPNO
   Barbara Sandhoefer     : DKH picture change effects
   Kantharuban Sivalingam : CASSCF convergence, NEVPT2, FIC-MRCI
   Georgi Stoychev        : AutoAux
   Boris Wezisla          : Elementary symmetry handling
   Frank Wennmohs         : Technical directorship


 We gratefully acknowledge several colleagues who have allowed us to
 interface, adapt or use parts of their codes:
   Stefan Grimme, W. Hujo, H. Kruse,             : VdW corrections, initial TS optimization,
                  C. Bannwarth                     DFT functionals, gCP, sTDA/sTD-DF
   Ed Valeev                                     : LibInt (2-el integral package), F12 methods
   Garnet Chan, S. Sharma, J. Yang, R. Olivares  : DMRG
   Ulf Ekstrom                                   : XCFun DFT Library
   Mihaly Kallay                                 : mrcc  (arbitrary order and MRCC methods)
   Andreas Klamt, Michael Diedenhofen            : otool_cosmo (COSMO solvation model)
   Jiri Pittner, Ondrej Demel                    : Mk-CCSD
   Frank Weinhold                                : gennbo (NPA and NBO analysis)
   Christopher J. Cramer and Donald G. Truhlar   : smd solvation model


 Your calculation uses the libint2 library for the computation of 2-el integrals
 For citations please refer to: http://libint.valeyev.net

 This ORCA versions uses:
   CBLAS   interface :  Fast vector & matrix operations
   LAPACKE interface :  Fast linear algebra routines
   SCALAPACK package :  Parallel linear algebra routines




*****************************************
The coordinations will be read from file: gsopt.xyz
*****************************************


Your calculation utilizes the geometrical counterpoise correction gCP
Please cite in your paper:
H.Kruse, S. Grimme J.Chem.Phys., 136, (2012), 154101 
   

Your calculation utilizes the atom-pairwise dispersion correction
with the Becke-Johnson damping scheme (D3BJ)
Cite in your paper:
S.Grimme, S.Ehrlich, L.Goerigk, J Comput Chem, (2011), 32, 1456–1465 
S.Grimme, J.Antony, S.Ehrlich and H.Krieg, J.Chem.Phys., 132, (2010), 154104 
   

Your calculation employs the composite approach PBEh-3c.
Please cite in your paper:
S. Grimme, J. G. Brandenburg, C. Bannwarth, A. Hansen J.Chem.Phys., 143, (2015), 054107 
   

Your calculation utilizes the basis: def2-mSVP

Your calculation utilizes the auxiliary basis: def2/J
   F. Weigend, Phys. Chem. Chem. Phys. 8, 1057 (2006).

================================================================================
                                        WARNINGS
                       Please study these warnings very carefully!
================================================================================

Warning: TCutStore was < 0. Adjusted to Thresh (uncritical)

WARNING: Split-RI-J cannot be used together with RIJONX
  ===> : Split-RI-J will be disabled

INFO   : the flag for use of LIBINT has been found!

================================================================================
                                       INPUT FILE
================================================================================
NAME = orca_mos.in
|  1> %maxcore 1700
|  2> %pal nprocs 4 end
|  3> !PBEh-3c RIJCOSX 
|  4> 
|  5> *xyzfile 0 1 gsopt.xyz 
|  6> 
|  7> 
|  8>                          ****END OF INPUT****
================================================================================

                       ****************************
                       * Single Point Calculation *
                       ****************************

---------------------------------
CARTESIAN COORDINATES (ANGSTROEM)
---------------------------------
  C      2.604341   -1.453144    0.060459
  C      3.552833   -1.120443   -0.936982
  B      4.589421   -2.186968   -1.396422
  C      4.673559   -3.551991   -0.654812
  C      3.711010   -3.889295    0.323813
  B      2.601455   -2.870740    0.704779
  C      5.636590   -4.491814   -1.032658
  C      5.637601   -5.748795   -0.459194
  C      4.655306   -6.095620    0.494407
  C      3.707270   -5.169465    0.884389
  C      1.597335   -0.543698    0.389887
  C      1.525383    0.672857   -0.261803
  C      2.479653    1.014922   -1.244493
  C      3.479405    0.119073   -1.579443
  C      7.504983   -7.230486   -1.550076
  C      8.006634   -8.553599   -1.561802
  C      7.471906   -9.552602   -0.783240
  C      6.380688   -9.275559    0.074240
  C      5.925053   -7.961421    0.080940
  C      6.457112   -6.934022   -0.719268
  C      5.673777  -10.186719    0.895100
  C      4.596058   -9.756444    1.632267
  C      4.150832   -8.413288    1.612559
  C      4.825149   -7.509996    0.833399
  C      1.852132    4.280432   -3.150776
  C      2.576159    3.110872   -2.817075
  C      2.095518    2.306805   -1.818039
  C      0.903049    2.683738   -1.171646
  C      0.153972    3.808483   -1.496581
  C      0.677808    4.627436   -2.525325
  C      0.514323    1.726855   -0.216689
  C     -0.669574    1.903972    0.448768
  C     -1.447246    3.046850    0.148749
  C     -1.061135    3.974774   -0.789555
  C      7.385484   -1.071087   -3.848270
  C      6.644667   -1.241589   -2.677208
  C      5.454819   -1.964501   -2.686366
  C      5.009802   -2.518613   -3.901772
  C      5.745079   -2.338563   -5.058004
  C      6.936807   -1.616415   -5.040964
  C      7.189196   -0.675793   -1.391707
  C      3.724928   -3.300088   -3.954490
  O      7.571118   -1.499277   -6.226514
  C      8.768349   -0.772283   -6.276363
  C      0.637086   -3.559993    3.954775
  C      1.648368   -3.199641    3.083363
  C      1.456157   -3.290537    1.694543
  C      0.231707   -3.754278    1.217120
  C     -0.784965   -4.115130    2.102335
  C     -0.587214   -4.018348    3.470582
  C      2.961798   -2.701752    3.617940
  C     -0.015414   -3.931101   -0.260550
  O     -1.512178   -4.336714    4.400842
  C     -2.772031   -4.773940    3.968664
  H      6.355937   -4.243758   -1.805512
  H      2.936411   -5.439281    1.598384
  H      0.848619   -0.817822    1.124904
  H      4.184817    0.353572   -2.368906
  H      7.945976   -6.487099   -2.202130
  H      8.833644   -8.786722   -2.219671
  H      7.877772  -10.555467   -0.837486
  H      5.972303  -11.227329    0.932781
  H      4.060166  -10.469470    2.245226
  H      3.285104   -8.130546    2.198485
  H      2.231897    4.913542   -3.941955
  H      3.478360    2.866235   -3.363649
  H      0.147885    5.521369   -2.830443
  H     -1.027354    1.189049    1.179426
  H     -2.384951    3.186231    0.670752
  H     -1.696277    4.827397   -0.996333
  H      8.305846   -0.501809   -3.801568
  H      5.398536   -2.751247   -5.998274
  H      7.706056    0.266460   -1.592503
  C      8.147770   -1.638240   -0.693449
  H      6.368812   -0.426356   -0.712483
  H      9.105048   -0.797094   -7.310784
  H      9.549313   -1.211895   -5.647037
  H      8.632658    0.273241   -5.980616
  H      0.779693   -3.481158    5.025946
  H     -1.725695   -4.463509    1.693080
  H      0.626387   -3.260593   -0.838815
  H     -1.040228   -3.632999   -0.499391
  C      0.211087   -5.369555   -0.721322
  H     -3.361464   -4.960201    4.864096
  H     -3.288892   -4.021564    3.363579
  H     -2.716233   -5.702964    3.391529
  H      1.239409   -5.684700   -0.542453
  H      0.012402   -5.474076   -1.788550
  H     -0.444106   -6.061037   -0.190139
  H      8.988255   -1.894250   -1.339810
  H      7.647193   -2.567052   -0.419507
  H      8.549557   -1.198892    0.220223
  H      3.461451   -3.567999   -4.977178
  H      2.889170   -2.730593   -3.541469
  H      3.794189   -4.226076   -3.380184
  H      3.775818   -3.389257    3.377511
  H      2.940571   -2.583792    4.700684
  H      3.225067   -1.733214    3.186983

----------------------------
CARTESIAN COORDINATES (A.U.)
----------------------------
  NO LB      ZA    FRAG     MASS         X           Y           Z
   0 C     6.0000    0    12.011    4.921491   -2.746045    0.114251
   1 C     6.0000    0    12.011    6.713882   -2.117330   -1.770640
   2 B     5.0000    0    10.810    8.672748   -4.132770   -2.638856
   3 C     6.0000    0    12.011    8.831747   -6.712290   -1.237415
   4 C     6.0000    0    12.011    7.012793   -7.349703    0.611917
   5 B     5.0000    0    10.810    4.916037   -5.424912    1.331839
   6 C     6.0000    0    12.011   10.651612   -8.488298   -1.951441
   7 C     6.0000    0    12.011   10.653522  -10.863648   -0.867750
   8 C     6.0000    0    12.011    8.797253  -11.519052    0.934294
   9 C     6.0000    0    12.011    7.005725   -9.768873    1.671252
  10 C     6.0000    0    12.011    3.018525   -1.027440    0.736780
  11 C     6.0000    0    12.011    2.882557    1.271515   -0.494737
  12 C     6.0000    0    12.011    4.685865    1.917925   -2.351751
  13 C     6.0000    0    12.011    6.575123    0.225016   -2.984714
  14 C     6.0000    0    12.011   14.182362  -13.663639   -2.929219
  15 C     6.0000    0    12.011   15.130345  -16.163960   -2.951377
  16 C     6.0000    0    12.011   14.119857  -18.051801   -1.480110
  17 C     6.0000    0    12.011   12.057752  -17.528267    0.140293
  18 C     6.0000    0    12.011   11.196727  -15.044906    0.152954
  19 C     6.0000    0    12.011   12.202173  -13.103403   -1.359220
  20 C     6.0000    0    12.011   10.721884  -19.250109    1.691493
  21 C     6.0000    0    12.011    8.685290  -18.437008    3.084537
  22 C     6.0000    0    12.011    7.843936  -15.898810    3.047295
  23 C     6.0000    0    12.011    9.118209  -14.191836    1.574896
  24 C     6.0000    0    12.011    3.500022    8.088844   -5.954105
  25 C     6.0000    0    12.011    4.868236    5.878696   -5.323500
  26 C     6.0000    0    12.011    3.959956    4.359230   -3.435596
  27 C     6.0000    0    12.011    1.706516    5.071529   -2.214089
  28 C     6.0000    0    12.011    0.290966    7.196990   -2.828129
  29 C     6.0000    0    12.011    1.280872    8.744588   -4.772172
  30 C     6.0000    0    12.011    0.971930    3.263284   -0.409482
  31 C     6.0000    0    12.011   -1.265312    3.597987    0.848049
  32 C     6.0000    0    12.011   -2.734898    5.757711    0.281094
  33 C     6.0000    0    12.011   -2.005255    7.511234   -1.492043
  34 C     6.0000    0    12.011   13.956542   -2.024061   -7.272176
  35 C     6.0000    0    12.011   12.556601   -2.346262   -5.059191
  36 C     6.0000    0    12.011   10.308114   -3.712369   -5.076495
  37 C     6.0000    0    12.011    9.467154   -4.759489   -7.373281
  38 C     6.0000    0    12.011   10.856627   -4.419244   -9.558242
  39 C     6.0000    0    12.011   13.108665   -3.054581   -9.526041
  40 C     6.0000    0    12.011   13.585611   -1.277064   -2.629944
  41 C     6.0000    0    12.011    7.039093   -6.236262   -7.472903
  42 O     8.0000    0    15.999   14.307340   -2.833223  -11.766406
  43 C     6.0000    0    12.011   16.569778   -1.459404  -11.860608
  44 C     6.0000    0    12.011    1.203918   -6.727412    7.473441
  45 C     6.0000    0    12.011    3.114964   -6.046446    5.826711
  46 C     6.0000    0    12.011    2.751737   -6.218214    3.202221
  47 C     6.0000    0    12.011    0.437862   -7.094558    2.300024
  48 C     6.0000    0    12.011   -1.483369   -7.776468    3.972837
  49 C     6.0000    0    12.011   -1.109673   -7.593577    6.558449
  50 C     6.0000    0    12.011    5.596987   -5.105571    6.836916
  51 C     6.0000    0    12.011   -0.029129   -7.428705   -0.492368
  52 O     8.0000    0    15.999   -2.857602   -8.195203    8.316385
  53 C     6.0000    0    12.011   -5.238380   -9.021440    7.499688
  54 H     1.0000    0     1.008   12.010980   -8.019540   -3.411923
  55 H     1.0000    0     1.008    5.549013  -10.278751    3.020507
  56 H     1.0000    0     1.008    1.603658   -1.545459    2.125761
  57 H     1.0000    0     1.008    7.908157    0.668155   -4.476584
  58 H     1.0000    0     1.008   15.015718  -12.258841   -4.161423
  59 H     1.0000    0     1.008   16.693168  -16.604499   -4.194570
  60 H     1.0000    0     1.008   14.886831  -19.946942   -1.582619
  61 H     1.0000    0     1.008   11.286017  -21.216578    1.762702
  62 H     1.0000    0     1.008    7.672602  -19.784431    4.242862
  63 H     1.0000    0     1.008    6.207946  -15.364506    4.154534
  64 H     1.0000    0     1.008    4.217673    9.285248   -7.449216
  65 H     1.0000    0     1.008    6.573148    5.416400   -6.356375
  66 H     1.0000    0     1.008    0.279462   10.433875   -5.348762
  67 H     1.0000    0     1.008   -1.941418    2.246976    2.228791
  68 H     1.0000    0     1.008   -4.506905    6.021105    1.267537
  69 H     1.0000    0     1.008   -3.205498    9.122458   -1.882797
  70 H     1.0000    0     1.008   15.695774   -0.948281   -7.183922
  71 H     1.0000    0     1.008   10.201755   -5.199104  -11.335095
  72 H     1.0000    0     1.008   14.562336    0.503537   -3.009395
  73 C     6.0000    0    12.011   15.397054   -3.095825   -1.310428
  74 H     1.0000    0     1.008   12.035310   -0.805695   -1.346397
  75 H     1.0000    0     1.008   17.206047   -1.506289  -13.815380
  76 H     1.0000    0     1.008   18.045587   -2.290150  -10.671352
  77 H     1.0000    0     1.008   16.313360    0.516351  -11.301726
  78 H     1.0000    0     1.008    1.473406   -6.578436    9.497662
  79 H     1.0000    0     1.008   -3.261091   -8.434810    3.199458
  80 H     1.0000    0     1.008    1.183699   -6.161628   -1.585131
  81 H     1.0000    0     1.008   -1.965747   -6.865372   -0.943713
  82 C     6.0000    0    12.011    0.398896  -10.146988   -1.363100
  83 H     1.0000    0     1.008   -6.352246   -9.373422    9.191810
  84 H     1.0000    0     1.008   -6.215105   -7.599655    6.356244
  85 H     1.0000    0     1.008   -5.132937  -10.777040    6.409062
  86 H     1.0000    0     1.008    2.342144  -10.742526   -1.025089
  87 H     1.0000    0     1.008    0.023437  -10.344505   -3.379870
  88 H     1.0000    0     1.008   -0.839239  -11.453699   -0.359310
  89 H     1.0000    0     1.008   16.985340   -3.579613   -2.531874
  90 H     1.0000    0     1.008   14.451100   -4.851025   -0.792753
  91 H     1.0000    0     1.008   16.156321   -2.265577    0.416162
  92 H     1.0000    0     1.008    6.541195   -6.742541   -9.405503
  93 H     1.0000    0     1.008    5.459741   -5.160073   -6.692407
  94 H     1.0000    0     1.008    7.169978   -7.986126   -6.387622
  95 H     1.0000    0     1.008    7.135261   -6.404767    6.382571
  96 H     1.0000    0     1.008    5.556874   -4.882659    8.883005
  97 H     1.0000    0     1.008    6.094493   -3.275300    6.022525

--------------------------------
INTERNAL COORDINATES (ANGSTROEM)
--------------------------------
 C      0   0   0     0.000000000000     0.00000000     0.00000000
 C      1   0   0     1.416056769382     0.00000000     0.00000000
 B      2   1   0     1.556622679871   119.53563818     0.00000000
 C      3   2   1     1.555748956944   119.76710165   353.53024070
 C      4   3   2     1.413499183790   120.17085573     7.61504896
 B      5   4   3     1.553610023661   119.97734635   357.36389876
 C      4   3   2     1.397663774944   119.89313502   182.38770508
 C      7   4   3     1.381616354792   120.00388715   185.80066259
 C      8   7   4     1.412284149867   120.21039569     0.95961408
 C      9   8   7     1.381528121555   120.21620017   358.39315485
 C      1   2   3     1.396308449552   119.75010709   185.78455426
 C     11   1   2     1.381984864946   119.97679044     0.32965440
 C     12  11   1     1.411849470180   120.41839333   358.84458673
 C     13  12  11     1.383560919837   120.00186805     1.28526713
 C      8   7   4     2.621554482538   109.99953003   176.59042891
 C     15   8   7     1.415068513647   141.66865023   186.37610668
 C     16  15   8     1.374808025923   122.46960835   358.76322915
 C     17  16  15     1.415197353149   120.05193079   359.82926785
 C     18  17  16     1.390901087971   116.13365033   359.08396300
 C     15   8   7     1.369731810686    23.12292035   181.89526245
 C     18  17  16     1.415537235040   127.61997534   177.02778769
 C     21  18  17     1.374783580859   120.06408901   182.58647351
 C     22  21  18     1.415162185384   122.42626215   359.81057246
 C     23  22  21     1.370302274891   118.60388826   359.69770134
 C     13  12  11     3.832916800792   116.22679147   173.96141186
 C     25  13  12     1.415430149895    25.18040181   177.76514329
 C     26  25  13     1.369529807099   118.52782222   357.11923757
 C     27  26  25     1.407794075275   118.36047292     0.00000000
 C     28  27  26     1.389875059718   124.46108512     1.51315837
 C     25  13  12     1.375004887823    97.38885417   359.35821406
 C     28  27  26     1.406653606519   111.32493872   177.35893698
 C     31  28  27     1.369604652658   118.73511524   183.73725631
 C     32  31  28     1.414550530661   118.46705573   359.74903674
 C     33  32  31     1.374968608223   122.38543853     0.47408177
 C      3   2   1     3.882617120883   117.97155266   186.49130659
 C     35   3   2     1.396161160219    18.75607804    75.08076937
 C     36  35   3     1.392272867916   120.75422149   359.81737453
 C     37  36  35     1.407939348368   118.69517555   359.83559615
 C     38  37  36     1.381999501414   120.18471059   359.78571073
 C     35   3   2     1.386078197717   101.37326066   255.58941170
 C     36  35   3     1.506370251986   118.56223635   177.29464040
 C     38  37  36     1.504787515259   120.29912805   180.34022672
 O     40  35   3     1.349667266665   124.72020031   179.59570581
 C     43  40  35     1.401558446047   118.53665604   359.69607552
 C      6   5   4     3.859571035953   116.92948353   195.02134580
 C     45   6   5     1.382716103140    18.29315875    74.24049475
 C     46  45   6     1.405001048257   120.40067313   359.47936609
 C     47  46  45     1.393652029665   118.70806644   359.76507839
 C     48  47  46     1.395506818225   120.58542288     0.29229340
 C     49  48  47     1.385847041717   120.28232003   359.88825447
 C     46  45   6     1.502918637644   120.08824634   179.23733252
 C     48  47  46     1.508590091372   121.22977613   182.67218712
 O     50  49  48     1.349925695749   124.48041223   179.62441965
 C     53  50  49     1.401846967679   118.48311332   358.79595743
 H      7   4   3     1.084570957515   119.72595246     3.31228091
 H     10   9   8     1.084809906963   120.44278709   178.49875315
 H     11   1   2     1.084421062454   119.55107112   177.49999810
 H     14  13  12     1.084365376743   120.41752299   176.82459568
 H     15   8   7     1.082715862704    98.78187398     3.88475963
 H     16  15   8     1.082166292990   118.51450868   177.91464419
 H     17  16  15     1.083239594409   119.91035253   178.95468790
 H     21  18  17     1.083239570445   120.05953914     1.71948165
 H     22  21  18     1.082268237957   119.05533697   179.27773307
 H     23  22  21     1.082929936125   119.45762651   178.89676729
 H     25  13  12     1.082133506912   143.57314817   182.24428378
 H     26  25  13     1.082846287004   119.59488579   176.06319836
 H     30  25  13     1.083065173705   119.86918329   182.15373366
 H     32  31  28     1.083043238766   121.86890956   178.75942967
 H     33  32  31     1.082222796103   118.56175250   179.75389978
 H     34  33  32     1.083110469665   119.79294523   179.11576389
 H     35   3   2     1.083201125238   137.36699471    75.27272773
 H     39  38  37     1.083746882639   120.40687525   180.89176033
 H     41  36  35     1.093300152836   109.74717747    35.65486519
 C     41  36  35     1.527328414814   112.35416047   273.84271415
 H     41  36  35     1.093889522679   110.14696863   151.73365629
 H     44  43  40     1.088121597358   106.63689608   180.30702632
 H     44  43  40     1.095087312775   112.36566543    61.61207021
 H     44  43  40     1.094988691335   112.32203523   299.00551126
 H     45   6   5     1.083494166450   138.80764563    75.73581189
 H     49  48  47     1.083434849964   118.43156841   179.50913309
 H     52  48  47     1.093563307637   110.48410390   333.99877608
 H     52  48  47     1.093688383558   109.59999976   218.15303540
 C     52  48  47     1.527338254244   112.43260556    96.43581734
 H     54  53  50     1.088082061819   106.65029281   180.82985262
 H     54  53  50     1.095144604704   112.34693782   299.53245527
 H     54  53  50     1.095117406022   112.41234929    62.13062816
 H     83  52  48     1.090301511307   111.25987666   299.15596723
 H     83  52  48     1.090585668101   111.00608137   179.18351201
 H     83  52  48     1.090678752610   111.16686189    59.14200633
 H     74  41  36     1.090751540496   111.13703953    58.36463620
 H     74  41  36     1.090097847489   111.32154326   298.40649056
 H     74  41  36     1.090530232536   111.12442687   178.52280279
 H     42  38  37     1.089535198196   111.53486260   173.71617269
 H     42  38  37     1.092428963565   111.67024279    53.61059268
 H     42  38  37     1.091823360012   111.58323702   293.95115775
 H     51  46  45     1.092289797270   111.37520739   114.72532913
 H     51  46  45     1.089357119710   111.86231085   354.33749780
 H     51  46  45     1.092291059143   111.34899704   234.01594578

---------------------------
INTERNAL COORDINATES (A.U.)
---------------------------
 C      0   0   0     0.000000000000     0.00000000     0.00000000
 C      1   0   0     2.675959484218     0.00000000     0.00000000
 B      2   1   0     2.941590558806   119.53563818     0.00000000
 C      3   2   1     2.939939461759   119.76710165   353.53024070
 C      4   3   2     2.671126347884   120.17085573     7.61504896
 B      5   4   3     2.935897463634   119.97734635   357.36389876
 C      4   3   2     2.641201761947   119.89313502   182.38770508
 C      7   4   3     2.610876532704   120.00388715   185.80066259
 C      8   7   4     2.668830266527   120.21039569     0.95961408
 C      9   8   7     2.610709796050   120.21620017   358.39315485
 C      1   2   3     2.638640568134   119.75010709   185.78455426
 C     11   1   2     2.611572915971   119.97679044     0.32965440
 C     12  11   1     2.668008840963   120.41839333   358.84458673
 C     13  12  11     2.614551228087   120.00186805     1.28526713
 C      8   7   4     4.954020017151   109.99953003   176.59042891
 C     15   8   7     2.674091951527   141.66865023   186.37610668
 C     16  15   8     2.598010655711   122.46960835   358.76322915
 C     17  16  15     2.674335422902   120.05193079   359.82926785
 C     18  17  16     2.628422135637   116.13365033   359.08396300
 C     15   8   7     2.588417999116    23.12292035   181.89526245
 C     18  17  16     2.674977706593   127.61997534   177.02778769
 C     21  18  17     2.597964461234   120.06408901   182.58647351
 C     22  21  18     2.674268965458   122.42626215   359.81057246
 C     23  22  21     2.589496020232   118.60388826   359.69770134
 C     13  12  11     7.243163047603   116.22679147   173.96141186
 C     25  13  12     2.674775344996    25.18040181   177.76514329
 C     26  25  13     2.588036267659   118.52782222   357.11923757
 C     27  26  25     2.660345255226   118.36047292     0.00000000
 C     28  27  26     2.626483223235   124.46108512     1.51315837
 C     25  13  12     2.598382670788    97.38885417   359.35821406
 C     28  27  26     2.658190081614   111.32493872   177.35893698
 C     31  28  27     2.588177705267   118.73511524   183.73725631
 C     32  31  28     2.673113105543   118.46705573   359.74903674
 C     33  32  31     2.598314112280   122.38543853     0.47408177
 C      3   2   1     7.337083041343   117.97155266   186.49130659
 C     35   3   2     2.638362231631    18.75607804    75.08076937
 C     36  35   3     2.631014424049   120.75422149   359.81737453
 C     37  36  35     2.660619781587   118.69517555   359.83559615
 C     38  37  36     2.611600574889   120.18471059   359.78571073
 C     35   3   2     2.619308193885   101.37326066   255.58941170
 C     36  35   3     2.846627232539   118.56223635   177.29464040
 C     38  37  36     2.843636293584   120.29912805   180.34022672
 O     40  35   3     2.550501505915   124.72020031   179.59570581
 C     43  40  35     2.648561623713   118.53665604   359.69607552
 C      6   5   4     7.293532252366   116.92948353   195.02134580
 C     45   6   5     2.612954755897    18.29315875    74.24049475
 C     46  45   6     2.655067199078   120.40067313   359.47936609
 C     47  46  45     2.633620662050   118.70806644   359.76507839
 C     48  47  46     2.637125704464   120.58542288     0.29229340
 C     49  48  47     2.618871372350   120.28232003   359.88825447
 C     46  45   6     2.840104626714   120.08824634   179.23733252
 C     48  47  46     2.850822121041   121.22977613   182.67218712
 O     50  49  48     2.550989866110   124.48041223   179.62441965
 C     53  50  49     2.649106850581   118.48311332   358.79595743
 H      7   4   3     2.049542082508   119.72595246     3.31228091
 H     10   9   8     2.049993631525   120.44278709   178.49875315
 H     11   1   2     2.049258821894   119.55107112   177.49999810
 H     14  13  12     2.049153591151   120.41752299   176.82459568
 H     15   8   7     2.046036461362    98.78187398     3.88475963
 H     16  15   8     2.044997925112   118.51450868   177.91464419
 H     17  16  15     2.047026170852   119.91035253   178.95468790
 H     21  18  17     2.047026125568   120.05953914     1.71948165
 H     22  21  18     2.045190573181   119.05533697   179.27773307
 H     23  22  21     2.046441001501   119.45762651   178.89676729
 H     25  13  12     2.044935968403   143.57314817   182.24428378
 H     26  25  13     2.046282927570   119.59488579   176.06319836
 H     30  25  13     2.046696563490   119.86918329   182.15373366
 H     32  31  28     2.046655112462   121.86890956   178.75942967
 H     33  32  31     2.045104700521   118.56175250   179.75389978
 H     34  33  32     2.046782160449   119.79294523   179.11576389
 H     35   3   2     2.046953474655   137.36699471    75.27272773
 H     39  38  37     2.047984806678   120.40687525   180.89176033
 H     41  36  35     2.066037871035   109.74717747    35.65486519
 C     41  36  35     2.886232420555   112.35416047   273.84271415
 H     41  36  35     2.067151618630   110.14696863   151.73365629
 H     44  43  40     2.056251819411   106.63689608   180.30702632
 H     44  43  40     2.069415113877   112.36566543    61.61207021
 H     44  43  40     2.069228746363   112.32203523   299.00551126
 H     45   6   5     2.047507242293   138.80764563    75.73581189
 H     49  48  47     2.047395150378   118.43156841   179.50913309
 H     52  48  47     2.066535161538   110.48410390   333.99877608
 H     52  48  47     2.066771520775   109.59999976   218.15303540
 C     52  48  47     2.886251014383   112.43260556    96.43581734
 H     54  53  50     2.056177108070   106.65029281   180.82985262
 H     54  53  50     2.069523379933   112.34693782   299.53245527
 H     54  53  50     2.069471981872   112.41234929    62.13062816
 H     83  52  48     2.060371259770   111.25987666   299.15596723
 H     83  52  48     2.060908238290   111.00608137   179.18351201
 H     83  52  48     2.061084142520   111.16686189    59.14200633
 H     74  41  36     2.061221691690   111.13703953    58.36463620
 H     74  41  36     2.059986390931   111.32154326   298.40649056
 H     74  41  36     2.060803480255   111.12442687   178.52280279
 H     42  38  37     2.058923137858   111.53486260   173.71617269
 H     42  38  37     2.064391561901   111.67024279    53.61059268
 H     42  38  37     2.063247137041   111.58323702   293.95115775
 H     51  46  45     2.064128575717   111.37520739   114.72532913
 H     51  46  45     2.058586618289   111.86231085   354.33749780
 H     51  46  45     2.064130960311   111.34899704   234.01594578

---------------------
BASIS SET INFORMATION
---------------------
There are 4 groups of distinct atoms

 Group   1 Type C   : 8s4p1d contracted to 4s2p1d pattern {5111/31/1}
 Group   2 Type B   : 8s4p1d contracted to 4s2p1d pattern {5111/31/1}
 Group   3 Type O   : 8s4p1d contracted to 4s2p1d pattern {5111/31/1}
 Group   4 Type H   : 4s contracted to 2s pattern {31}

Atom   0C    basis set group =>   1
Atom   1C    basis set group =>   1
Atom   2B    basis set group =>   2
Atom   3C    basis set group =>   1
Atom   4C    basis set group =>   1
Atom   5B    basis set group =>   2
Atom   6C    basis set group =>   1
Atom   7C    basis set group =>   1
Atom   8C    basis set group =>   1
Atom   9C    basis set group =>   1
Atom  10C    basis set group =>   1
Atom  11C    basis set group =>   1
Atom  12C    basis set group =>   1
Atom  13C    basis set group =>   1
Atom  14C    basis set group =>   1
Atom  15C    basis set group =>   1
Atom  16C    basis set group =>   1
Atom  17C    basis set group =>   1
Atom  18C    basis set group =>   1
Atom  19C    basis set group =>   1
Atom  20C    basis set group =>   1
Atom  21C    basis set group =>   1
Atom  22C    basis set group =>   1
Atom  23C    basis set group =>   1
Atom  24C    basis set group =>   1
Atom  25C    basis set group =>   1
Atom  26C    basis set group =>   1
Atom  27C    basis set group =>   1
Atom  28C    basis set group =>   1
Atom  29C    basis set group =>   1
Atom  30C    basis set group =>   1
Atom  31C    basis set group =>   1
Atom  32C    basis set group =>   1
Atom  33C    basis set group =>   1
Atom  34C    basis set group =>   1
Atom  35C    basis set group =>   1
Atom  36C    basis set group =>   1
Atom  37C    basis set group =>   1
Atom  38C    basis set group =>   1
Atom  39C    basis set group =>   1
Atom  40C    basis set group =>   1
Atom  41C    basis set group =>   1
Atom  42O    basis set group =>   3
Atom  43C    basis set group =>   1
Atom  44C    basis set group =>   1
Atom  45C    basis set group =>   1
Atom  46C    basis set group =>   1
Atom  47C    basis set group =>   1
Atom  48C    basis set group =>   1
Atom  49C    basis set group =>   1
Atom  50C    basis set group =>   1
Atom  51C    basis set group =>   1
Atom  52O    basis set group =>   3
Atom  53C    basis set group =>   1
Atom  54H    basis set group =>   4
Atom  55H    basis set group =>   4
Atom  56H    basis set group =>   4
Atom  57H    basis set group =>   4
Atom  58H    basis set group =>   4
Atom  59H    basis set group =>   4
Atom  60H    basis set group =>   4
Atom  61H    basis set group =>   4
Atom  62H    basis set group =>   4
Atom  63H    basis set group =>   4
Atom  64H    basis set group =>   4
Atom  65H    basis set group =>   4
Atom  66H    basis set group =>   4
Atom  67H    basis set group =>   4
Atom  68H    basis set group =>   4
Atom  69H    basis set group =>   4
Atom  70H    basis set group =>   4
Atom  71H    basis set group =>   4
Atom  72H    basis set group =>   4
Atom  73C    basis set group =>   1
Atom  74H    basis set group =>   4
Atom  75H    basis set group =>   4
Atom  76H    basis set group =>   4
Atom  77H    basis set group =>   4
Atom  78H    basis set group =>   4
Atom  79H    basis set group =>   4
Atom  80H    basis set group =>   4
Atom  81H    basis set group =>   4
Atom  82C    basis set group =>   1
Atom  83H    basis set group =>   4
Atom  84H    basis set group =>   4
Atom  85H    basis set group =>   4
Atom  86H    basis set group =>   4
Atom  87H    basis set group =>   4
Atom  88H    basis set group =>   4
Atom  89H    basis set group =>   4
Atom  90H    basis set group =>   4
Atom  91H    basis set group =>   4
Atom  92H    basis set group =>   4
Atom  93H    basis set group =>   4
Atom  94H    basis set group =>   4
Atom  95H    basis set group =>   4
Atom  96H    basis set group =>   4
Atom  97H    basis set group =>   4
-------------------------------
AUXILIARY BASIS SET INFORMATION
-------------------------------
There are 4 groups of distinct atoms

 Group   1 Type C   : 12s5p4d2f1g contracted to 6s4p3d1f1g pattern {711111/2111/211/2/1}
 Group   2 Type B   : 12s5p4d2f1g contracted to 6s4p3d1f1g pattern {711111/2111/211/2/1}
 Group   3 Type O   : 12s5p4d2f1g contracted to 6s4p3d1f1g pattern {711111/2111/211/2/1}
 Group   4 Type H   : 5s2p1d contracted to 3s1p1d pattern {311/2/1}

Atom   0C    basis set group =>   1
Atom   1C    basis set group =>   1
Atom   2B    basis set group =>   2
Atom   3C    basis set group =>   1
Atom   4C    basis set group =>   1
Atom   5B    basis set group =>   2
Atom   6C    basis set group =>   1
Atom   7C    basis set group =>   1
Atom   8C    basis set group =>   1
Atom   9C    basis set group =>   1
Atom  10C    basis set group =>   1
Atom  11C    basis set group =>   1
Atom  12C    basis set group =>   1
Atom  13C    basis set group =>   1
Atom  14C    basis set group =>   1
Atom  15C    basis set group =>   1
Atom  16C    basis set group =>   1
Atom  17C    basis set group =>   1
Atom  18C    basis set group =>   1
Atom  19C    basis set group =>   1
Atom  20C    basis set group =>   1
Atom  21C    basis set group =>   1
Atom  22C    basis set group =>   1
Atom  23C    basis set group =>   1
Atom  24C    basis set group =>   1
Atom  25C    basis set group =>   1
Atom  26C    basis set group =>   1
Atom  27C    basis set group =>   1
Atom  28C    basis set group =>   1
Atom  29C    basis set group =>   1
Atom  30C    basis set group =>   1
Atom  31C    basis set group =>   1
Atom  32C    basis set group =>   1
Atom  33C    basis set group =>   1
Atom  34C    basis set group =>   1
Atom  35C    basis set group =>   1
Atom  36C    basis set group =>   1
Atom  37C    basis set group =>   1
Atom  38C    basis set group =>   1
Atom  39C    basis set group =>   1
Atom  40C    basis set group =>   1
Atom  41C    basis set group =>   1
Atom  42O    basis set group =>   3
Atom  43C    basis set group =>   1
Atom  44C    basis set group =>   1
Atom  45C    basis set group =>   1
Atom  46C    basis set group =>   1
Atom  47C    basis set group =>   1
Atom  48C    basis set group =>   1
Atom  49C    basis set group =>   1
Atom  50C    basis set group =>   1
Atom  51C    basis set group =>   1
Atom  52O    basis set group =>   3
Atom  53C    basis set group =>   1
Atom  54H    basis set group =>   4
Atom  55H    basis set group =>   4
Atom  56H    basis set group =>   4
Atom  57H    basis set group =>   4
Atom  58H    basis set group =>   4
Atom  59H    basis set group =>   4
Atom  60H    basis set group =>   4
Atom  61H    basis set group =>   4
Atom  62H    basis set group =>   4
Atom  63H    basis set group =>   4
Atom  64H    basis set group =>   4
Atom  65H    basis set group =>   4
Atom  66H    basis set group =>   4
Atom  67H    basis set group =>   4
Atom  68H    basis set group =>   4
Atom  69H    basis set group =>   4
Atom  70H    basis set group =>   4
Atom  71H    basis set group =>   4
Atom  72H    basis set group =>   4
Atom  73C    basis set group =>   1
Atom  74H    basis set group =>   4
Atom  75H    basis set group =>   4
Atom  76H    basis set group =>   4
Atom  77H    basis set group =>   4
Atom  78H    basis set group =>   4
Atom  79H    basis set group =>   4
Atom  80H    basis set group =>   4
Atom  81H    basis set group =>   4
Atom  82C    basis set group =>   1
Atom  83H    basis set group =>   4
Atom  84H    basis set group =>   4
Atom  85H    basis set group =>   4
Atom  86H    basis set group =>   4
Atom  87H    basis set group =>   4
Atom  88H    basis set group =>   4
Atom  89H    basis set group =>   4
Atom  90H    basis set group =>   4
Atom  91H    basis set group =>   4
Atom  92H    basis set group =>   4
Atom  93H    basis set group =>   4
Atom  94H    basis set group =>   4
Atom  95H    basis set group =>   4
Atom  96H    basis set group =>   4
Atom  97H    basis set group =>   4


           ************************************************************
           *        Program running with 4 parallel MPI-processes     *
           *              working on a common directory               *
           ************************************************************
------------------------------------------------------------------------------
                           ORCA GTO INTEGRAL CALCULATION
                           -- RI-GTO INTEGRALS CHOSEN --
------------------------------------------------------------------------------

                         BASIS SET STATISTICS AND STARTUP INFO

Gaussian basis set:
 # of primitive gaussian shells          ...  896
 # of primitive gaussian functions       ... 1568
 # of contracted shells                  ...  476
 # of contracted basis functions         ...  924
 Highest angular momentum                ...    2
 Maximum contraction depth               ...    5
Auxiliary gaussian basis set:
 # of primitive gaussian shells          ... 1680
 # of primitive gaussian functions       ... 4592
 # of contracted shells                  ... 1050
 # of contracted aux-basis functions     ... 3206
 Highest angular momentum                ...    4
 Maximum contraction depth               ...    7
Ratio of auxiliary to basis functions    ...  3.47
Integral package used                  ... LIBINT
 One Electron integrals                  ... done
 Ordering auxiliary basis shells         ... done
 Integral threshhold             Thresh  ...  1.000e-10
 Primitive cut-off               TCut    ...  1.000e-11
 Pre-screening matrix                    ... done
 Shell pair data                         ... 
 Ordering of the shell pairs             ... done (   0.009 sec) 47464 of 113526 pairs
 Determination of significant pairs      ... done (   0.000 sec)
 Creation of shell pair data             ... done (   0.006 sec)
 Storage of shell pair data              ... done (   0.008 sec)
 Shell pair data done in (   0.024 sec)
 Computing two index integrals           ... done
 Cholesky decomposition of the V-matrix  ... done


Timings:
 Total evaluation time                   ...   2.276 sec (  0.038 min)
 One electron matrix time                ...   0.735 sec (  0.012 min) = 32.3%
 Schwartz matrix evaluation time         ...   0.533 sec (  0.009 min) = 23.4%
 Two index repulsion integral time       ...   0.358 sec (  0.006 min) = 15.7%
 Cholesky decomposition of V             ...   0.603 sec (  0.010 min) = 26.5%
 Three index repulsion integral time     ...   0.000 sec (  0.000 min) =  0.0%



           ************************************************************
           *        Program running with 4 parallel MPI-processes     *
           *              working on a common directory               *
           ************************************************************
-------------------------------------------------------------------------------
                                 ORCA SCF
-------------------------------------------------------------------------------

------------
SCF SETTINGS
------------
Hamiltonian:
 Density Functional     Method          .... DFT(GTOs)
 Exchange Functional    Exchange        .... PBE
   PBE kappa parameter   XKappa         ....  1.024500
   PBE mue parameter    XMuePBE         ....  0.123457
 Correlation Functional Correlation     .... PBE
   PBE beta parameter  CBetaPBE         ....  0.030000
 LDA part of GGA corr.  LDAOpt          .... PW91-LDA
 Gradients option       PostSCFGGA      .... off
 Hybrid DFT is turned on
   Fraction HF Exchange ScalHFX         ....  0.420000
   Scaling of DF-GGA-X  ScalDFX         ....  0.580000
   Scaling of DF-GGA-C  ScalDFC         ....  1.000000
   Scaling of DF-LDA-C  ScalLDAC        ....  1.000000
   Perturbative correction              ....  0.000000
 RI-approximation to the Coulomb term is turned on
   Number of auxiliary basis functions  .... 3206
   RIJ-ON(X) (HFX calculated with O(N)) .... on


General Settings:
 Integral files         IntName         .... orca_mos
 Hartree-Fock type      HFTyp           .... RHF
 Total Charge           Charge          ....    0
 Multiplicity           Mult            ....    1
 Number of Electrons    NEL             ....  380
 Basis Dimension        Dim             ....  924
 Nuclear Repulsion      ENuc            ....   7057.5037812106 Eh

Convergence Acceleration:
 DIIS                   CNVDIIS         .... on
   Start iteration      DIISMaxIt       ....    12
   Startup error        DIISStart       ....  0.200000
   # of expansion vecs  DIISMaxEq       ....     5
   Bias factor          DIISBfac        ....   1.050
   Max. coefficient     DIISMaxC        ....  10.000
 Newton-Raphson         CNVNR           .... off
 SOSCF                  CNVSOSCF        .... on
   Start iteration      SOSCFMaxIt      ....   150
   Startup grad/error   SOSCFStart      ....  0.003300
 Level Shifting         CNVShift        .... on
   Level shift para.    LevelShift      ....    0.2500
   Turn off err/grad.   ShiftErr        ....    0.0010
 Zerner damping         CNVZerner       .... off
 Static damping         CNVDamp         .... on
   Fraction old density DampFac         ....    0.7000
   Max. Damping (<1)    DampMax         ....    0.9800
   Min. Damping (>=0)   DampMin         ....    0.0000
   Turn off err/grad.   DampErr         ....    0.1000
 Fernandez-Rico         CNVRico         .... off

SCF Procedure:
 Maximum # iterations   MaxIter         ....   125
 SCF integral mode      SCFMode         .... Direct
   Integral package                     .... LIBINT
 Reset frequeny         DirectResetFreq ....    20
 Integral Threshold     Thresh          ....  1.000e-10 Eh
 Primitive CutOff       TCut            ....  1.000e-11 Eh

Convergence Tolerance:
 Convergence Check Mode ConvCheckMode   .... Total+1el-Energy
 Convergence forced     ConvForced      .... 0
 Energy Change          TolE            ....  1.000e-06 Eh
 1-El. energy change                    ....  1.000e-03 Eh
 Orbital Gradient       TolG            ....  5.000e-05
 Orbital Rotation angle TolX            ....  5.000e-05
 DIIS Error             TolErr          ....  1.000e-06


Diagonalization of the overlap matrix:
Smallest eigenvalue                        ... 1.969e-04
Time for diagonalization                   ...    0.295 sec
Threshold for overlap eigenvalues          ... 1.000e-08
Number of eigenvalues below threshold      ... 0
Time for construction of square roots      ...    0.122 sec
Total time needed                          ...    0.421 sec

--------------------------------
INITIAL GUESS: MINIMAL BASIS EHT
--------------------------------
The minimal basis has 322 functions
EHT matrix was diagonalized
Basis set overlap was calculated now projecting the orbitals
Using GuessMode=FMatrix for the initial guess
C*T matrix was formed
Effective Fockian was calculated
Effective Fockian was diagonalized
Initial density was built
                      ------------------
                      INITIAL GUESS DONE
                      ------------------
-------------------
DFT GRID GENERATION
-------------------

General Integration Accuracy     IntAcc      ...  4.340
Radial Grid Type                 RadialGrid  ... Gauss-Chebyshev
Angular Grid (max. acc.)         AngularGrid ... Lebedev-194
Angular grid pruning method      GridPruning ... 3 (G Style)
Weight generation scheme         WeightScheme... Becke
Basis function cutoff            BFCut       ...    1.0000e-10
Integration weight cutoff        WCut        ...    1.0000e-14
Grids for H and He will be reduced by one unit

# of grid points (after initial pruning)     ... 247772 (   0.0 sec)
# of grid points (after weights+screening)   ... 209951 (   2.3 sec)
nearest neighbour list constructed           ...    0.0 sec
Grid point re-assignment to atoms done       ...    0.0 sec
Grid point division into batches done        ...    0.3 sec
Reduced shell lists constructed in    1.4 sec

Total number of grid points                  ...   209951
Total number of batches                      ...     3328
Average number of points per batch           ...       63
Average number of grid points per atom       ...     2142
Average number of shells per batch           ...   126.73 (26.62%)
Average number of basis functions per batch  ...   264.93 (28.67%)
Average number of large shells per batch     ...    72.58 (57.28%)
Average number of large basis fcns per batch ...   159.42 (60.17%)
Maximum spatial batch extension              ...  14.17, 11.12, 16.58 au
Average spatial batch extension              ...   0.48,  0.43,  0.50 au

Time for grid setup =    3.788 sec

--------------
SCF ITERATIONS
--------------
ITER       Energy         Delta-E        Max-DP      RMS-DP      [F,P]     Damp
               ***  Starting incremental Fock matrix formation  ***
  0  -2196.7806115293   0.000000000000 0.16247851  0.00236640  0.4421518 0.7000
  1  -2198.4224889744  -1.641877445077 0.10519797  0.00170271  0.3129550 0.7000
  2  -2199.5580454726  -1.135556498231 0.06947897  0.00122052  0.2199731 0.7000
                               ***Turning on DIIS***
  3  -2200.3631845236  -0.805139050962 0.04902414  0.00088030  0.1544396 0.7000
  4  -2200.9356448737  -0.572460350127 0.03713285  0.00066607  0.1083590 0.7000
  5  -2201.3414617614  -0.405816887635 0.08924574  0.00162554  0.0759699 0.0000
                      *** Initiating the SOSCF procedure ***
                           *** Shutting down DIIS ***
                      *** Re-Reading the Fockian *** 
                      *** Removing any level shift *** 
ITER      Energy       Delta-E        Grad      Rot      Max-DP    RMS-DP
  6  -2202.30842891  -0.9669671497  0.001391  0.001391  0.003200  0.000057
               *** Restarting incremental Fock matrix formation ***
  7  -2202.30889155  -0.0004626407  0.000899  0.005241  0.002051  0.000034
  8  -2202.30899290  -0.0001013461  0.000312  0.001650  0.001088  0.000022
  9  -2202.30899759  -0.0000046949  0.000435  0.000611  0.000604  0.000010
 10  -2202.30900703  -0.0000094340  0.000143  0.000491  0.000438  0.000004
                 **** Energy Check signals convergence ****
              ***Rediagonalizing the Fockian in SOSCF/NRSCF***

               *****************************************************
               *                     SUCCESS                       *
               *           SCF CONVERGED AFTER  11 CYCLES          *
               *****************************************************


----------------
TOTAL SCF ENERGY
----------------

Total Energy       :        -2202.30900719 Eh          -59927.87476 eV

Components:
Nuclear Repulsion  :         7057.50378121 Eh          192044.44124 eV
Electronic Energy  :        -9259.81278841 Eh         -251972.31600 eV
One Electron Energy:       -17041.57011660 Eh         -463724.69818 eV
Two Electron Energy:         7781.75732820 Eh          211752.38218 eV

Virial components:
Potential Energy   :        -4387.69742764 Eh         -119395.31695 eV
Kinetic Energy     :         2185.38842044 Eh           59467.44219 eV
Virial Ratio       :            2.00774260


DFT components:
N(Alpha)           :      189.999824914330 electrons
N(Beta)            :      189.999824914330 electrons
N(Total)           :      379.999649828660 electrons
E(X)               :     -172.420648162747 Eh       
E(C)               :      -16.614639187510 Eh       
E(XC)              :     -189.035287350258 Eh       

---------------
SCF CONVERGENCE
---------------

  Last Energy change         ...   -1.6796e-07  Tolerance :   1.0000e-06
  Last MAX-Density change    ...    2.2230e-04  Tolerance :   1.0000e-05
  Last RMS-Density change    ...    2.4119e-06  Tolerance :   1.0000e-06
  Last Orbital Gradient      ...    1.1650e-04  Tolerance :   5.0000e-05
  Last Orbital Rotation      ...    3.3913e-04  Tolerance :   5.0000e-05

             **** THE GBW FILE WAS UPDATED (orca_mos.gbw) ****
             **** DENSITY FILE WAS UPDATED (orca_mos.scfp.tmp) ****
             **** ENERGY FILE WAS UPDATED (orca_mos.en.tmp) ****
----------------
ORBITAL ENERGIES
----------------

  NO   OCC          E(Eh)            E(eV) 
   0   2.0000     -19.522369      -531.2307 
   1   2.0000     -19.522347      -531.2301 
   2   2.0000     -10.498999      -285.6923 
   3   2.0000     -10.498873      -285.6889 
   4   2.0000     -10.488977      -285.4196 
   5   2.0000     -10.488944      -285.4187 
   6   2.0000     -10.462623      -284.7024 
   7   2.0000     -10.462527      -284.6998 
   8   2.0000     -10.462441      -284.6975 
   9   2.0000     -10.462122      -284.6888 
  10   2.0000     -10.462006      -284.6857 
  11   2.0000     -10.461714      -284.6777 
  12   2.0000     -10.460201      -284.6365 
  13   2.0000     -10.460066      -284.6329 
  14   2.0000     -10.459980      -284.6305 
  15   2.0000     -10.459759      -284.6245 
  16   2.0000     -10.459622      -284.6208 
  17   2.0000     -10.459435      -284.6157 
  18   2.0000     -10.459148      -284.6079 
  19   2.0000     -10.458564      -284.5920 
  20   2.0000     -10.458506      -284.5904 
  21   2.0000     -10.458259      -284.5837 
  22   2.0000     -10.458017      -284.5771 
  23   2.0000     -10.457830      -284.5720 
  24   2.0000     -10.457758      -284.5701 
  25   2.0000     -10.457427      -284.5611 
  26   2.0000     -10.457387      -284.5600 
  27   2.0000     -10.457264      -284.5566 
  28   2.0000     -10.450008      -284.3592 
  29   2.0000     -10.449793      -284.3533 
  30   2.0000     -10.449753      -284.3522 
  31   2.0000     -10.448978      -284.3312 
  32   2.0000     -10.448854      -284.3278 
  33   2.0000     -10.448385      -284.3150 
  34   2.0000     -10.447354      -284.2870 
  35   2.0000     -10.447334      -284.2864 
  36   2.0000     -10.444230      -284.2019 
  37   2.0000     -10.443557      -284.1836 
  38   2.0000     -10.434076      -283.9256 
  39   2.0000     -10.433321      -283.9051 
  40   2.0000     -10.430681      -283.8333 
  41   2.0000     -10.430327      -283.8236 
  42   2.0000     -10.430259      -283.8218 
  43   2.0000     -10.430023      -283.8153 
  44   2.0000     -10.429520      -283.8017 
  45   2.0000     -10.429398      -283.7983 
  46   2.0000     -10.426675      -283.7243 
  47   2.0000     -10.426064      -283.7076 
  48   2.0000     -10.424207      -283.6571 
  49   2.0000     -10.422913      -283.6219 
  50   2.0000     -10.420325      -283.5515 
  51   2.0000     -10.419279      -283.5230 
  52   2.0000     -10.412529      -283.3393 
  53   2.0000     -10.412299      -283.3331 
  54   2.0000      -6.944863      -188.9793 
  55   2.0000      -6.944382      -188.9662 
  56   2.0000      -1.180249       -32.1162 
  57   2.0000      -1.180080       -32.1116 
  58   2.0000      -1.013265       -27.5723 
  59   2.0000      -1.012723       -27.5576 
  60   2.0000      -0.959916       -26.1207 
  61   2.0000      -0.956239       -26.0206 
  62   2.0000      -0.951524       -25.8923 
  63   2.0000      -0.950400       -25.8617 
  64   2.0000      -0.931040       -25.3349 
  65   2.0000      -0.930645       -25.3241 
  66   2.0000      -0.905869       -24.6500 
  67   2.0000      -0.897572       -24.4242 
  68   2.0000      -0.880698       -23.9650 
  69   2.0000      -0.880196       -23.9513 
  70   2.0000      -0.858054       -23.3488 
  71   2.0000      -0.852497       -23.1976 
  72   2.0000      -0.850780       -23.1509 
  73   2.0000      -0.847415       -23.0593 
  74   2.0000      -0.844494       -22.9798 
  75   2.0000      -0.844133       -22.9700 
  76   2.0000      -0.819062       -22.2878 
  77   2.0000      -0.815338       -22.1865 
  78   2.0000      -0.814416       -22.1614 
  79   2.0000      -0.810909       -22.0659 
  80   2.0000      -0.809297       -22.0221 
  81   2.0000      -0.801568       -21.8118 
  82   2.0000      -0.773472       -21.0472 
  83   2.0000      -0.772705       -21.0264 
  84   2.0000      -0.761157       -20.7121 
  85   2.0000      -0.760498       -20.6942 
  86   2.0000      -0.731813       -19.9136 
  87   2.0000      -0.726321       -19.7642 
  88   2.0000      -0.724053       -19.7025 
  89   2.0000      -0.717635       -19.5278 
  90   2.0000      -0.706878       -19.2351 
  91   2.0000      -0.705785       -19.2054 
  92   2.0000      -0.686597       -18.6833 
  93   2.0000      -0.678780       -18.4706 
  94   2.0000      -0.676872       -18.4186 
  95   2.0000      -0.662079       -18.0161 
  96   2.0000      -0.656834       -17.8734 
  97   2.0000      -0.645738       -17.5714 
  98   2.0000      -0.644625       -17.5411 
  99   2.0000      -0.643085       -17.4992 
 100   2.0000      -0.634906       -17.2767 
 101   2.0000      -0.634379       -17.2623 
 102   2.0000      -0.592372       -16.1193 
 103   2.0000      -0.590092       -16.0572 
 104   2.0000      -0.590057       -16.0563 
 105   2.0000      -0.586050       -15.9472 
 106   2.0000      -0.582791       -15.8586 
 107   2.0000      -0.582452       -15.8493 
 108   2.0000      -0.580826       -15.8051 
 109   2.0000      -0.572720       -15.5845 
 110   2.0000      -0.571758       -15.5583 
 111   2.0000      -0.558732       -15.2039 
 112   2.0000      -0.558179       -15.1888 
 113   2.0000      -0.541406       -14.7324 
 114   2.0000      -0.540844       -14.7171 
 115   2.0000      -0.534046       -14.5321 
 116   2.0000      -0.533345       -14.5130 
 117   2.0000      -0.533178       -14.5085 
 118   2.0000      -0.525552       -14.3010 
 119   2.0000      -0.521382       -14.1875 
 120   2.0000      -0.510178       -13.8827 
 121   2.0000      -0.504714       -13.7340 
 122   2.0000      -0.499810       -13.6005 
 123   2.0000      -0.497474       -13.5370 
 124   2.0000      -0.495985       -13.4964 
 125   2.0000      -0.495485       -13.4828 
 126   2.0000      -0.494236       -13.4488 
 127   2.0000      -0.490688       -13.3523 
 128   2.0000      -0.488897       -13.3036 
 129   2.0000      -0.486895       -13.2491 
 130   2.0000      -0.483012       -13.1434 
 131   2.0000      -0.481174       -13.0934 
 132   2.0000      -0.480480       -13.0745 
 133   2.0000      -0.478845       -13.0300 
 134   2.0000      -0.476583       -12.9685 
 135   2.0000      -0.473305       -12.8793 
 136   2.0000      -0.472046       -12.8450 
 137   2.0000      -0.469335       -12.7712 
 138   2.0000      -0.465993       -12.6803 
 139   2.0000      -0.465488       -12.6666 
 140   2.0000      -0.462671       -12.5899 
 141   2.0000      -0.460887       -12.5414 
 142   2.0000      -0.459044       -12.4912 
 143   2.0000      -0.451743       -12.2925 
 144   2.0000      -0.445693       -12.1279 
 145   2.0000      -0.442404       -12.0384 
 146   2.0000      -0.438164       -11.9230 
 147   2.0000      -0.437847       -11.9144 
 148   2.0000      -0.431745       -11.7484 
 149   2.0000      -0.425820       -11.5871 
 150   2.0000      -0.425543       -11.5796 
 151   2.0000      -0.421961       -11.4821 
 152   2.0000      -0.420580       -11.4446 
 153   2.0000      -0.420171       -11.4334 
 154   2.0000      -0.416416       -11.3312 
 155   2.0000      -0.413024       -11.2390 
 156   2.0000      -0.411153       -11.1880 
 157   2.0000      -0.407729       -11.0949 
 158   2.0000      -0.404326       -11.0023 
 159   2.0000      -0.403502       -10.9798 
 160   2.0000      -0.396280       -10.7833 
 161   2.0000      -0.392318       -10.6755 
 162   2.0000      -0.391919       -10.6647 
 163   2.0000      -0.391815       -10.6618 
 164   2.0000      -0.389533       -10.5997 
 165   2.0000      -0.388154       -10.5622 
 166   2.0000      -0.383360       -10.4318 
 167   2.0000      -0.382594       -10.4109 
 168   2.0000      -0.375648       -10.2219 
 169   2.0000      -0.369967       -10.0673 
 170   2.0000      -0.365413        -9.9434 
 171   2.0000      -0.361827        -9.8458 
 172   2.0000      -0.359552        -9.7839 
 173   2.0000      -0.353247        -9.6123 
 174   2.0000      -0.352047        -9.5797 
 175   2.0000      -0.347860        -9.4658 
 176   2.0000      -0.336818        -9.1653 
 177   2.0000      -0.334876        -9.1125 
 178   2.0000      -0.314760        -8.5651 
 179   2.0000      -0.309445        -8.4204 
 180   2.0000      -0.292737        -7.9658 
 181   2.0000      -0.291913        -7.9434 
 182   2.0000      -0.277190        -7.5427 
 183   2.0000      -0.272093        -7.4040 
 184   2.0000      -0.272034        -7.4024 
 185   2.0000      -0.259036        -7.0487 
 186   2.0000      -0.253345        -6.8939 
 187   2.0000      -0.252827        -6.8798 
 188   2.0000      -0.247513        -6.7352 
 189   2.0000      -0.244903        -6.6642 
 190   0.0000      -0.087401        -2.3783 
 191   0.0000      -0.055693        -1.5155 
 192   0.0000      -0.032886        -0.8949 
 193   0.0000      -0.026162        -0.7119 
 194   0.0000      -0.001655        -0.0450 
 195   0.0000       0.008482         0.2308 
 196   0.0000       0.018849         0.5129 
 197   0.0000       0.029750         0.8095 
 198   0.0000       0.031496         0.8570 
 199   0.0000       0.039224         1.0673 
 200   0.0000       0.040401         1.0994 
 201   0.0000       0.050011         1.3609 
 202   0.0000       0.072351         1.9688 
 203   0.0000       0.084681         2.3043 
 204   0.0000       0.089397         2.4326 
 205   0.0000       0.094184         2.5629 
 206   0.0000       0.123804         3.3689 
 207   0.0000       0.125751         3.4218 
 208   0.0000       0.142135         3.8677 
 209   0.0000       0.144919         3.9434 
 210   0.0000       0.145384         3.9561 
 211   0.0000       0.151669         4.1271 
 212   0.0000       0.155534         4.2323 
 213   0.0000       0.155931         4.2431 
 214   0.0000       0.158648         4.3170 
 215   0.0000       0.160563         4.3691 
 216   0.0000       0.165409         4.5010 
 217   0.0000       0.168454         4.5839 
 218   0.0000       0.168762         4.5923 
 219   0.0000       0.172233         4.6867 
 220   0.0000       0.180843         4.9210 
 221   0.0000       0.181399         4.9361 
 222   0.0000       0.184169         5.0115 
 223   0.0000       0.188314         5.1243 
 224   0.0000       0.188932         5.1411 
 225   0.0000       0.190109         5.1731 
 226   0.0000       0.192274         5.2320 
 227   0.0000       0.194473         5.2919 
 228   0.0000       0.195804         5.3281 
 229   0.0000       0.197010         5.3609 
 230   0.0000       0.200560         5.4575 
 231   0.0000       0.204401         5.5620 
 232   0.0000       0.204781         5.5724 
 233   0.0000       0.205788         5.5998 
 234   0.0000       0.208526         5.6743 
 235   0.0000       0.211721         5.7612 
 236   0.0000       0.213776         5.8171 
 237   0.0000       0.215106         5.8533 
 238   0.0000       0.217686         5.9235 
 239   0.0000       0.217974         5.9314 
 240   0.0000       0.219111         5.9623 
 241   0.0000       0.221721         6.0333 
 242   0.0000       0.223360         6.0779 
 243   0.0000       0.225646         6.1401 
 244   0.0000       0.226273         6.1572 
 245   0.0000       0.228482         6.2173 
 246   0.0000       0.232041         6.3142 
 247   0.0000       0.232665         6.3311 
 248   0.0000       0.234838         6.3903 
 249   0.0000       0.237591         6.4652 
 250   0.0000       0.239583         6.5194 
 251   0.0000       0.241986         6.5848 
 252   0.0000       0.249235         6.7820 
 253   0.0000       0.251276         6.8376 
 254   0.0000       0.253051         6.8859 
 255   0.0000       0.254767         6.9326 
 256   0.0000       0.255234         6.9453 
 257   0.0000       0.256434         6.9779 
 258   0.0000       0.262096         7.1320 
 259   0.0000       0.268586         7.3086 
 260   0.0000       0.269336         7.3290 
 261   0.0000       0.270432         7.3588 
 262   0.0000       0.271126         7.3777 
 263   0.0000       0.275306         7.4915 
 264   0.0000       0.283092         7.7033 
 265   0.0000       0.283658         7.7187 
 266   0.0000       0.284043         7.7292 
 267   0.0000       0.287110         7.8127 
 268   0.0000       0.290967         7.9176 
 269   0.0000       0.298189         8.1141 
 270   0.0000       0.299500         8.1498 
 271   0.0000       0.303943         8.2707 
 272   0.0000       0.308050         8.3825 
 273   0.0000       0.310362         8.4454 
 274   0.0000       0.311007         8.4629 
 275   0.0000       0.315485         8.5848 
 276   0.0000       0.320185         8.7127 
 277   0.0000       0.320823         8.7300 
 278   0.0000       0.325742         8.8639 
 279   0.0000       0.325936         8.8692 
 280   0.0000       0.335246         9.1225 
 281   0.0000       0.336003         9.1431 
 282   0.0000       0.337559         9.1855 
 283   0.0000       0.341780         9.3003 
 284   0.0000       0.349638         9.5141 
 285   0.0000       0.351727         9.5710 
 286   0.0000       0.354822         9.6552 
 287   0.0000       0.364981         9.9316 
 288   0.0000       0.367253         9.9935 
 289   0.0000       0.380733        10.3603 
 290   0.0000       0.383672        10.4402 
 291   0.0000       0.393163        10.6985 
 292   0.0000       0.401907        10.9364 
 293   0.0000       0.403944        10.9919 
 294   0.0000       0.407473        11.0879 
 295   0.0000       0.413921        11.2634 
 296   0.0000       0.415841        11.3156 
 297   0.0000       0.420203        11.4343 
 298   0.0000       0.423784        11.5317 
 299   0.0000       0.433346        11.7919 
 300   0.0000       0.436211        11.8699 
 301   0.0000       0.442810        12.0495 
 302   0.0000       0.451829        12.2949 
 303   0.0000       0.456696        12.4273 
 304   0.0000       0.460893        12.5415 
 305   0.0000       0.461712        12.5638 
 306   0.0000       0.467175        12.7125 
 307   0.0000       0.468775        12.7560 
 308   0.0000       0.479934        13.0597 
 309   0.0000       0.487046        13.2532 
 310   0.0000       0.490762        13.3543 
 311   0.0000       0.493351        13.4248 
 312   0.0000       0.497361        13.5339 
 313   0.0000       0.499438        13.5904 
 314   0.0000       0.500365        13.6156 
 315   0.0000       0.502356        13.6698 
 316   0.0000       0.504511        13.7284 
 317   0.0000       0.506778        13.7901 
 318   0.0000       0.510267        13.8851 
 319   0.0000       0.515489        14.0272 
 320   0.0000       0.527719        14.3600 
 321   0.0000       0.528703        14.3867 
 322   0.0000       0.529384        14.4053 
 323   0.0000       0.529820        14.4171 
 324   0.0000       0.532474        14.4894 
 325   0.0000       0.532933        14.5018 
 326   0.0000       0.535031        14.5589 
 327   0.0000       0.537600        14.6289 
 328   0.0000       0.539174        14.6717 
 329   0.0000       0.540254        14.7011 
 330   0.0000       0.543313        14.7843 
 331   0.0000       0.546022        14.8580 
 332   0.0000       0.549091        14.9415 
 333   0.0000       0.551452        15.0058 
 334   0.0000       0.553815        15.0701 
 335   0.0000       0.555714        15.1217 
 336   0.0000       0.557829        15.1793 
 337   0.0000       0.560059        15.2400 
 338   0.0000       0.560262        15.2455 
 339   0.0000       0.564670        15.3655 
 340   0.0000       0.566481        15.4147 
 341   0.0000       0.566812        15.4237 
 342   0.0000       0.569265        15.4905 
 343   0.0000       0.572427        15.5765 
 344   0.0000       0.574396        15.6301 
 345   0.0000       0.576209        15.6795 
 346   0.0000       0.580034        15.7835 
 347   0.0000       0.582323        15.8458 
 348   0.0000       0.584333        15.9005 
 349   0.0000       0.590370        16.0648 
 350   0.0000       0.591394        16.0927 
 351   0.0000       0.591977        16.1085 
 352   0.0000       0.593509        16.1502 
 353   0.0000       0.594478        16.1766 
 354   0.0000       0.599079        16.3018 
 355   0.0000       0.600647        16.3444 
 356   0.0000       0.601545        16.3689 
 357   0.0000       0.603159        16.4128 
 358   0.0000       0.604856        16.4590 
 359   0.0000       0.605513        16.4768 
 360   0.0000       0.607897        16.5417 
 361   0.0000       0.614665        16.7259 
 362   0.0000       0.614977        16.7344 
 363   0.0000       0.619722        16.8635 
 364   0.0000       0.620089        16.8735 
 365   0.0000       0.623355        16.9624 
 366   0.0000       0.625350        17.0166 
 367   0.0000       0.625883        17.0312 
 368   0.0000       0.628991        17.1157 
 369   0.0000       0.630192        17.1484 
 370   0.0000       0.633240        17.2313 
 371   0.0000       0.633531        17.2392 
 372   0.0000       0.637023        17.3343 
 373   0.0000       0.637735        17.3537 
 374   0.0000       0.641119        17.4457 
 375   0.0000       0.644115        17.5273 
 376   0.0000       0.651943        17.7403 
 377   0.0000       0.654653        17.8140 
 378   0.0000       0.657792        17.8994 
 379   0.0000       0.659729        17.9521 
 380   0.0000       0.660817        17.9817 
 381   0.0000       0.661950        18.0126 
 382   0.0000       0.666182        18.1277 
 383   0.0000       0.667688        18.1687 
 384   0.0000       0.673903        18.3378 
 385   0.0000       0.676828        18.4174 
 386   0.0000       0.680742        18.5239 
 387   0.0000       0.682263        18.5653 
 388   0.0000       0.684617        18.6294 
 389   0.0000       0.692268        18.8376 
 390   0.0000       0.701317        19.0838 
 391   0.0000       0.702742        19.1226 
 392   0.0000       0.704452        19.1691 
 393   0.0000       0.707129        19.2420 
 394   0.0000       0.710566        19.3355 
 395   0.0000       0.712293        19.3825 
 396   0.0000       0.716072        19.4853 
 397   0.0000       0.717985        19.5374 
 398   0.0000       0.720189        19.5973 
 399   0.0000       0.723644        19.6914 
 400   0.0000       0.727391        19.7933 
 401   0.0000       0.728597        19.8261 
 402   0.0000       0.730215        19.8702 
 403   0.0000       0.735100        20.0031 
 404   0.0000       0.739076        20.1113 
 405   0.0000       0.745007        20.2727 
 406   0.0000       0.746259        20.3067 
 407   0.0000       0.750631        20.4257 
 408   0.0000       0.754050        20.5188 
 409   0.0000       0.757238        20.6055 
 410   0.0000       0.760576        20.6963 
 411   0.0000       0.766652        20.8617 
 412   0.0000       0.768555        20.9135 
 413   0.0000       0.773076        21.0365 
 414   0.0000       0.775110        21.0918 
 415   0.0000       0.780758        21.2455 
 416   0.0000       0.781504        21.2658 
 417   0.0000       0.782587        21.2953 
 418   0.0000       0.788513        21.4565 
 419   0.0000       0.790089        21.4994 
 420   0.0000       0.796457        21.6727 
 421   0.0000       0.803697        21.8697 
 422   0.0000       0.804235        21.8843 
 423   0.0000       0.809774        22.0351 
 424   0.0000       0.814254        22.1570 
 425   0.0000       0.821713        22.3599 
 426   0.0000       0.828777        22.5522 
 427   0.0000       0.834587        22.7103 
 428   0.0000       0.836418        22.7601 
 429   0.0000       0.842603        22.9284 
 430   0.0000       0.844700        22.9854 
 431   0.0000       0.851518        23.1710 
 432   0.0000       0.854029        23.2393 
 433   0.0000       0.858707        23.3666 
 434   0.0000       0.866693        23.5839 
 435   0.0000       0.870042        23.6750 
 436   0.0000       0.878230        23.8979 
 437   0.0000       0.888383        24.1741 
 438   0.0000       0.897792        24.4302 
 439   0.0000       0.901790        24.5390 
 440   0.0000       0.906681        24.6720 
 441   0.0000       0.913915        24.8689 
 442   0.0000       0.916138        24.9294 
 443   0.0000       0.917443        24.9649 
 444   0.0000       0.925980        25.1972 
 445   0.0000       0.927781        25.2462 
 446   0.0000       0.936790        25.4914 
 447   0.0000       0.944575        25.7032 
 448   0.0000       0.948327        25.8053 
 449   0.0000       0.953591        25.9485 
 450   0.0000       0.954130        25.9632 
 451   0.0000       0.956477        26.0271 
 452   0.0000       0.959996        26.1228 
 453   0.0000       0.966841        26.3091 
 454   0.0000       0.968028        26.3414 
 455   0.0000       0.974907        26.5286 
 456   0.0000       0.982188        26.7267 
 457   0.0000       0.983224        26.7549 
 458   0.0000       0.984227        26.7822 
 459   0.0000       0.985044        26.8044 
 460   0.0000       0.987129        26.8611 
 461   0.0000       0.987780        26.8789 
 462   0.0000       0.991147        26.9705 
 463   0.0000       0.992239        27.0002 
 464   0.0000       0.998907        27.1816 
 465   0.0000       0.999743        27.2044 
 466   0.0000       1.001570        27.2541 
 467   0.0000       1.004246        27.3269 
 468   0.0000       1.005386        27.3579 
 469   0.0000       1.006751        27.3951 
 470   0.0000       1.009856        27.4796 
 471   0.0000       1.013770        27.5861 
 472   0.0000       1.022240        27.8166 
 473   0.0000       1.023933        27.8626 
 474   0.0000       1.027444        27.9582 
 475   0.0000       1.029581        28.0163 
 476   0.0000       1.032365        28.0921 
 477   0.0000       1.034054        28.1380 
 478   0.0000       1.036372        28.2011 
 479   0.0000       1.038516        28.2595 
 480   0.0000       1.040005        28.3000 
 481   0.0000       1.042616        28.3710 
 482   0.0000       1.045529        28.4503 
 483   0.0000       1.050564        28.5873 
 484   0.0000       1.054158        28.6851 
 485   0.0000       1.057253        28.7693 
 486   0.0000       1.059436        28.8287 
 487   0.0000       1.062196        28.9038 
 488   0.0000       1.065041        28.9813 
 489   0.0000       1.068512        29.0757 
 490   0.0000       1.073799        29.2195 
 491   0.0000       1.076557        29.2946 
 492   0.0000       1.079813        29.3832 
 493   0.0000       1.079960        29.3872 
 494   0.0000       1.082610        29.4593 
 495   0.0000       1.091006        29.6878 
 496   0.0000       1.091871        29.7113 
 497   0.0000       1.093250        29.7488 
 498   0.0000       1.095578        29.8122 
 499   0.0000       1.100800        29.9543 
 500   0.0000       1.107282        30.1307 
 501   0.0000       1.111923        30.2570 
 502   0.0000       1.119217        30.4555 
 503   0.0000       1.120965        30.5030 
 504   0.0000       1.125092        30.6153 
 505   0.0000       1.128996        30.7215 
 506   0.0000       1.134355        30.8674 
 507   0.0000       1.136803        30.9340 
 508   0.0000       1.141656        31.0660 
 509   0.0000       1.149101        31.2686 
 510   0.0000       1.153186        31.3798 
 511   0.0000       1.156980        31.4830 
 512   0.0000       1.160451        31.5775 
 513   0.0000       1.161263        31.5996 
 514   0.0000       1.161619        31.6093 
 515   0.0000       1.168794        31.8045 
 516   0.0000       1.174311        31.9546 
 517   0.0000       1.175332        31.9824 
 518   0.0000       1.180575        32.1251 
 519   0.0000       1.181293        32.1446 
 520   0.0000       1.187903        32.3245 
 521   0.0000       1.193499        32.4768 
 522   0.0000       1.197093        32.5746 
 523   0.0000       1.202136        32.7118 
 524   0.0000       1.205216        32.7956 
 525   0.0000       1.213171        33.0121 
 526   0.0000       1.214686        33.0533 
 527   0.0000       1.225152        33.3381 
 528   0.0000       1.237852        33.6837 
 529   0.0000       1.247010        33.9329 
 530   0.0000       1.248880        33.9838 
 531   0.0000       1.251455        34.0538 
 532   0.0000       1.258069        34.2338 
 533   0.0000       1.264864        34.4187 
 534   0.0000       1.268261        34.5111 
 535   0.0000       1.274276        34.6748 
 536   0.0000       1.276283        34.7294 
 537   0.0000       1.279454        34.8157 
 538   0.0000       1.284092        34.9419 
 539   0.0000       1.286866        35.0174 
 540   0.0000       1.290240        35.1092 
 541   0.0000       1.295108        35.2417 
 542   0.0000       1.296911        35.2907 
 543   0.0000       1.301810        35.4240 
 544   0.0000       1.308286        35.6003 
 545   0.0000       1.311808        35.6961 
 546   0.0000       1.313610        35.7452 
 547   0.0000       1.316735        35.8302 
 548   0.0000       1.318418        35.8760 
 549   0.0000       1.319980        35.9185 
 550   0.0000       1.329316        36.1725 
 551   0.0000       1.334546        36.3148 
 552   0.0000       1.342079        36.5198 
 553   0.0000       1.344224        36.5782 
 554   0.0000       1.349059        36.7098 
 555   0.0000       1.358340        36.9623 
 556   0.0000       1.362518        37.0760 
 557   0.0000       1.364664        37.1344 
 558   0.0000       1.372403        37.3450 
 559   0.0000       1.383904        37.6579 
 560   0.0000       1.389556        37.8117 
 561   0.0000       1.392704        37.8974 
 562   0.0000       1.396750        38.0075 
 563   0.0000       1.398662        38.0595 
 564   0.0000       1.401126        38.1266 
 565   0.0000       1.410062        38.3697 
 566   0.0000       1.413747        38.4700 
 567   0.0000       1.418567        38.6012 
 568   0.0000       1.427250        38.8374 
 569   0.0000       1.429468        38.8978 
 570   0.0000       1.436202        39.0810 
 571   0.0000       1.436979        39.1022 
 572   0.0000       1.441520        39.2258 
 573   0.0000       1.445532        39.3349 
 574   0.0000       1.447448        39.3871 
 575   0.0000       1.450173        39.4612 
 576   0.0000       1.450574        39.4721 
 577   0.0000       1.455620        39.6094 
 578   0.0000       1.456689        39.6385 
 579   0.0000       1.477583        40.2071 
 580   0.0000       1.485236        40.4153 
 581   0.0000       1.487605        40.4798 
 582   0.0000       1.498666        40.7808 
 583   0.0000       1.509877        41.0858 
 584   0.0000       1.512368        41.1536 
 585   0.0000       1.513999        41.1980 
 586   0.0000       1.518534        41.3214 
 587   0.0000       1.519834        41.3568 
 588   0.0000       1.521009        41.3888 
 589   0.0000       1.522498        41.4293 
 590   0.0000       1.524223        41.4762 
 591   0.0000       1.527446        41.5639 
 592   0.0000       1.530041        41.6345 
 593   0.0000       1.532264        41.6950 
 594   0.0000       1.533510        41.7289 
 595   0.0000       1.534011        41.7426 
 596   0.0000       1.537468        41.8366 
 597   0.0000       1.539540        41.8930 
 598   0.0000       1.550394        42.1884 
 599   0.0000       1.553345        42.2687 
 600   0.0000       1.555113        42.3168 
 601   0.0000       1.560927        42.4750 
 602   0.0000       1.566520        42.6272 
 603   0.0000       1.568192        42.6727 
 604   0.0000       1.573522        42.8177 
 605   0.0000       1.578515        42.9536 
 606   0.0000       1.580635        43.0113 
 607   0.0000       1.589372        43.2490 
 608   0.0000       1.591716        43.3128 
 609   0.0000       1.594127        43.3784 
 610   0.0000       1.596877        43.4532 
 611   0.0000       1.604042        43.6482 
 612   0.0000       1.614984        43.9459 
 613   0.0000       1.618306        44.0363 
 614   0.0000       1.623368        44.1741 
 615   0.0000       1.632064        44.4107 
 616   0.0000       1.636649        44.5355 
 617   0.0000       1.640834        44.6494 
 618   0.0000       1.645980        44.7894 
 619   0.0000       1.651667        44.9442 
 620   0.0000       1.668312        45.3971 
 621   0.0000       1.674741        45.5720 
 622   0.0000       1.685679        45.8697 
 623   0.0000       1.695081        46.1255 
 624   0.0000       1.708548        46.4920 
 625   0.0000       1.722582        46.8738 
 626   0.0000       1.747756        47.5589 
 627   0.0000       1.753317        47.7102 
 628   0.0000       1.758692        47.8565 
 629   0.0000       1.760099        47.8947 
 630   0.0000       1.762501        47.9601 
 631   0.0000       1.775173        48.3049 
 632   0.0000       1.778413        48.3931 
 633   0.0000       1.786159        48.6038 
 634   0.0000       1.792584        48.7787 
 635   0.0000       1.800724        49.0002 
 636   0.0000       1.808001        49.1982 
 637   0.0000       1.810523        49.2668 
 638   0.0000       1.812101        49.3098 
 639   0.0000       1.813285        49.3420 
 640   0.0000       1.817507        49.4569 
 641   0.0000       1.821442        49.5640 
 642   0.0000       1.826321        49.6967 
 643   0.0000       1.828882        49.7664 
 644   0.0000       1.836542        49.9749 
 645   0.0000       1.848686        50.3053 
[...]
      px      :     1.064057
      py      :     0.951782
      dz2     :     0.030467  d :     0.115540
      dxz     :     0.036615
      dyz     :     0.015179
      dx2y2   :     0.016792
      dxy     :     0.016487
 48 C s       :     2.882483  s :     2.882483
      pz      :     1.063957  p :     3.233303
      px      :     1.078723
      py      :     1.090624
      dz2     :     0.029337  d :     0.086873
      dxz     :     0.026932
      dyz     :     0.014149
      dx2y2   :     0.008741
      dxy     :     0.007713
 49 C s       :     2.817267  s :     2.817267
      pz      :     1.020551  p :     2.929507
      px      :     0.966812
      py      :     0.942144
      dz2     :     0.045666  d :     0.185329
      dxz     :     0.060416
      dyz     :     0.031434
      dx2y2   :     0.023458
      dxy     :     0.024354
 50 C s       :     2.940122  s :     2.940122
      pz      :     1.120511  p :     3.334736
      px      :     1.084639
      py      :     1.129586
      dz2     :     0.020243  d :     0.068481
      dxz     :     0.009088
      dyz     :     0.007203
      dx2y2   :     0.013361
      dxy     :     0.018586
 51 C s       :     2.900469  s :     2.900469
      pz      :     1.051304  p :     3.237925
      px      :     1.107318
      py      :     1.079304
      dz2     :     0.023726  d :     0.088864
      dxz     :     0.012571
      dyz     :     0.020253
      dx2y2   :     0.017282
      dxy     :     0.015032
 52 O s       :     3.409797  s :     3.409797
      pz      :     1.624063  p :     4.686167
      px      :     1.326920
      py      :     1.735184
      dz2     :     0.012968  d :     0.075749
      dxz     :     0.025811
      dyz     :     0.008475
      dx2y2   :     0.014521
      dxy     :     0.013974
 53 C s       :     2.947099  s :     2.947099
      pz      :     1.126417  p :     3.109566
      px      :     0.879772
      py      :     1.103377
      dz2     :     0.010267  d :     0.126038
      dxz     :     0.034656
      dyz     :     0.022818
      dx2y2   :     0.030653
      dxy     :     0.027644
 54 H s       :     0.849283  s :     0.849283
 55 H s       :     0.849185  s :     0.849185
 56 H s       :     0.848977  s :     0.848977
 57 H s       :     0.850038  s :     0.850038
 58 H s       :     0.857283  s :     0.857283
 59 H s       :     0.860825  s :     0.860825
 60 H s       :     0.860468  s :     0.860468
 61 H s       :     0.860424  s :     0.860424
 62 H s       :     0.860774  s :     0.860774
 63 H s       :     0.857256  s :     0.857256
 64 H s       :     0.861030  s :     0.861030
 65 H s       :     0.857639  s :     0.857639
 66 H s       :     0.860647  s :     0.860647
 67 H s       :     0.857337  s :     0.857337
 68 H s       :     0.861007  s :     0.861007
 69 H s       :     0.860708  s :     0.860708
 70 H s       :     0.863668  s :     0.863668
 71 H s       :     0.858087  s :     0.858087
 72 H s       :     0.871968  s :     0.871968
 73 C s       :     2.953433  s :     2.953433
      pz      :     1.112108  p :     3.331232
      px      :     1.103510
      py      :     1.115614
      dz2     :     0.009815  d :     0.069565
      dxz     :     0.019132
      dyz     :     0.012746
      dx2y2   :     0.011282
      dxy     :     0.016590
 74 H s       :     0.859184  s :     0.859184
 75 H s       :     0.870588  s :     0.870588
 76 H s       :     0.888621  s :     0.888621
 77 H s       :     0.888321  s :     0.888321
 78 H s       :     0.858148  s :     0.858148
 79 H s       :     0.863350  s :     0.863350
 80 H s       :     0.858062  s :     0.858062
 81 H s       :     0.870615  s :     0.870615
 82 C s       :     2.953346  s :     2.953346
      pz      :     1.119452  p :     3.330722
      px      :     1.140104
      py      :     1.071165
      dz2     :     0.019380  d :     0.069551
      dxz     :     0.005359
      dyz     :     0.012314
      dx2y2   :     0.015964
      dxy     :     0.016535
 83 H s       :     0.870605  s :     0.870605
 84 H s       :     0.888251  s :     0.888251
 85 H s       :     0.888622  s :     0.888622
 86 H s       :     0.865984  s :     0.865984
 87 H s       :     0.873985  s :     0.873985
 88 H s       :     0.876108  s :     0.876108
 89 H s       :     0.875523  s :     0.875523
 90 H s       :     0.866497  s :     0.866497
 91 H s       :     0.873509  s :     0.873509
 92 H s       :     0.866507  s :     0.866507
 93 H s       :     0.855051  s :     0.855051
 94 H s       :     0.852780  s :     0.852780
 95 H s       :     0.854548  s :     0.854548
 96 H s       :     0.866367  s :     0.866367
 97 H s       :     0.854626  s :     0.854626


                      *****************************
                      * MAYER POPULATION ANALYSIS *
                      *****************************

  NA   - Mulliken gross atomic population
  ZA   - Total nuclear charge
  QA   - Mulliken gross atomic charge
  VA   - Mayer's total valence
  BVA  - Mayer's bonded valence
  FA   - Mayer's free valence

  ATOM       NA         ZA         QA         VA         BVA        FA
  0 C      6.1597     6.0000    -0.1597     3.8020     3.8020     0.0000
  1 C      6.1540     6.0000    -0.1540     3.7984     3.7984    -0.0000
  2 B      4.3228     5.0000     0.6772     2.7423     2.7423    -0.0000
  3 C      6.1510     6.0000    -0.1510     3.7974     3.7974     0.0000
  4 C      6.1483     6.0000    -0.1483     3.8001     3.8001     0.0000
  5 B      4.3236     5.0000     0.6764     2.7477     2.7477     0.0000
  6 C      6.3979     6.0000    -0.3979     3.7215     3.7215    -0.0000
  7 C      5.9006     6.0000     0.0994     3.6405     3.6405     0.0000
  8 C      5.9062     6.0000     0.0938     3.6424     3.6424    -0.0000
  9 C      6.3965     6.0000    -0.3965     3.7234     3.7234     0.0000
 10 C      6.3783     6.0000    -0.3783     3.7163     3.7163    -0.0000
 11 C      5.9087     6.0000     0.0913     3.6499     3.6499    -0.0000
 12 C      5.8997     6.0000     0.1003     3.6333     3.6333     0.0000
 13 C      6.3837     6.0000    -0.3837     3.7216     3.7216     0.0000
 14 C      6.3822     6.0000    -0.3822     3.7378     3.7378     0.0000
 15 C      6.2031     6.0000    -0.2031     3.8111     3.8111     0.0000
 16 C      6.3339     6.0000    -0.3339     3.7748     3.7748     0.0000
 17 C      5.7508     6.0000     0.2492     3.4997     3.4997    -0.0000
 18 C      6.0607     6.0000    -0.0607     3.7569     3.7569     0.0000
 19 C      5.8056     6.0000     0.1944     3.5128     3.5128     0.0000
 20 C      6.3331     6.0000    -0.3331     3.7747     3.7747     0.0000
 21 C      6.2035     6.0000    -0.2035     3.8110     3.8110     0.0000
 22 C      6.3818     6.0000    -0.3818     3.7375     3.7375     0.0000
 23 C      5.8054     6.0000     0.1946     3.5138     3.5138     0.0000
 24 C      6.2029     6.0000    -0.2029     3.8108     3.8108    -0.0000
 25 C      6.3808     6.0000    -0.3808     3.7399     3.7399     0.0000
 26 C      5.8083     6.0000     0.1917     3.5154     3.5154     0.0000
 27 C      6.0596     6.0000    -0.0596     3.7544     3.7544     0.0000
 28 C      5.7500     6.0000     0.2500     3.4986     3.4986     0.0000
 29 C      6.3341     6.0000    -0.3341     3.7751     3.7751    -0.0000
 30 C      5.8082     6.0000     0.1918     3.5234     3.5234    -0.0000
 31 C      6.3774     6.0000    -0.3774     3.7372     3.7372    -0.0000
 32 C      6.2046     6.0000    -0.2046     3.8117     3.8117     0.0000
 33 C      6.3329     6.0000    -0.3329     3.7742     3.7742     0.0000
 34 C      6.4259     6.0000    -0.4259     3.7306     3.7306    -0.0000
 35 C      5.9046     6.0000     0.0954     3.8006     3.8006    -0.0000
 36 C      6.2192     6.0000    -0.2192     3.7571     3.7571    -0.0000
 37 C      5.9459     6.0000     0.0541     3.8237     3.8237     0.0000
 38 C      6.3839     6.0000    -0.3839     3.8314     3.8314    -0.0000
 39 C      5.5965     6.0000     0.4035     3.7597     3.7597     0.0000
 40 C      6.5447     6.0000    -0.5447     3.7249     3.7249    -0.0000
 41 C      6.7595     6.0000    -0.7595     3.7009     3.7009    -0.0000
 42 O      8.4537     8.0000    -0.4537     2.1202     2.1202     0.0000
 43 C      6.4049     6.0000    -0.4049     3.7133     3.7133    -0.0000
 44 C      6.3801     6.0000    -0.3801     3.8257     3.8257    -0.0000
 45 C      5.9266     6.0000     0.0734     3.8160     3.8160    -0.0000
 46 C      6.2310     6.0000    -0.2310     3.7572     3.7572    -0.0000
 47 C      5.9250     6.0000     0.0750     3.8148     3.8148    -0.0000
 48 C      6.4289     6.0000    -0.4289     3.7275     3.7275    -0.0000
 49 C      5.5962     6.0000     0.4038     3.7572     3.7572    -0.0000
 50 C      6.7586     6.0000    -0.7586     3.7036     3.7036     0.0000
 51 C      6.5504     6.0000    -0.5504     3.7227     3.7227    -0.0000
 52 O      8.4541     8.0000    -0.4541     2.1202     2.1202    -0.0000
 53 C      6.4052     6.0000    -0.4052     3.7135     3.7135    -0.0000
 54 H      0.7614     1.0000     0.2386     0.9116     0.9116     0.0000
 55 H      0.7621     1.0000     0.2379     0.9114     0.9114     0.0000
 56 H      0.7668     1.0000     0.2332     0.9142     0.9142     0.0000
 57 H      0.7697     1.0000     0.2303     0.9162     0.9162     0.0000
 58 H      0.7795     1.0000     0.2205     0.9193     0.9193     0.0000
 59 H      0.7745     1.0000     0.2255     0.9094     0.9094     0.0000
 60 H      0.7811     1.0000     0.2189     0.9153     0.9153     0.0000
 61 H      0.7808     1.0000     0.2192     0.9152     0.9152     0.0000
 62 H      0.7743     1.0000     0.2257     0.9094     0.9094    -0.0000
 63 H      0.7793     1.0000     0.2207     0.9193     0.9193    -0.0000
 64 H      0.7751     1.0000     0.2249     0.9096     0.9096    -0.0000
 65 H      0.7805     1.0000     0.2195     0.9196     0.9196    -0.0000
 66 H      0.7812     1.0000     0.2188     0.9154     0.9154     0.0000
 67 H      0.7801     1.0000     0.2199     0.9195     0.9195    -0.0000
 68 H      0.7748     1.0000     0.2252     0.9095     0.9095     0.0000
 69 H      0.7812     1.0000     0.2188     0.9154     0.9154    -0.0000
 70 H      0.7795     1.0000     0.2205     0.9193     0.9193    -0.0000
 71 H      0.7788     1.0000     0.2212     0.9186     0.9186    -0.0000
 72 H      0.7748     1.0000     0.2252     0.9054     0.9054     0.0000
 73 C      6.6438     6.0000    -0.6438     3.7044     3.7044    -0.0000
 74 H      0.7511     1.0000     0.2489     0.8971     0.8971     0.0000
 75 H      0.7612     1.0000     0.2388     0.9081     0.9081    -0.0000
 76 H      0.7975     1.0000     0.2025     0.9104     0.9104    -0.0000
 77 H      0.7970     1.0000     0.2030     0.9104     0.9104     0.0000
 78 H      0.7794     1.0000     0.2206     0.9192     0.9192    -0.0000
 79 H      0.7782     1.0000     0.2218     0.9183     0.9183    -0.0000
 80 H      0.7442     1.0000     0.2558     0.8929     0.8929    -0.0000
 81 H      0.7725     1.0000     0.2275     0.9031     0.9031    -0.0000
 82 C      6.6400     6.0000    -0.6400     3.7065     3.7065    -0.0000
 83 H      0.7610     1.0000     0.2390     0.9080     0.9080    -0.0000
 84 H      0.7970     1.0000     0.2030     0.9104     0.9104    -0.0000
 85 H      0.7973     1.0000     0.2027     0.9102     0.9102    -0.0000
 86 H      0.7597     1.0000     0.2403     0.9047     0.9047    -0.0000
 87 H      0.7820     1.0000     0.2180     0.9132     0.9132    -0.0000
 88 H      0.7878     1.0000     0.2122     0.9143     0.9143    -0.0000
 89 H      0.7866     1.0000     0.2134     0.9137     0.9137    -0.0000
 90 H      0.7600     1.0000     0.2400     0.9054     0.9054    -0.0000
 91 H      0.7805     1.0000     0.2195     0.9128     0.9128    -0.0000
 92 H      0.7624     1.0000     0.2376     0.9083     0.9083    -0.0000
 93 H      0.7553     1.0000     0.2447     0.9006     0.9006    -0.0000
 94 H      0.7513     1.0000     0.2487     0.8968     0.8968     0.0000
 95 H      0.7552     1.0000     0.2448     0.8995     0.8995    -0.0000
 96 H      0.7633     1.0000     0.2367     0.9095     0.9095     0.0000
 97 H      0.7557     1.0000     0.2443     0.9012     0.9012     0.0000

  Mayer bond orders larger than 0.1
B(  0-C ,  1-C ) :   1.3460 B(  0-C ,  5-B ) :   0.9096 B(  0-C , 10-C ) :   1.4087 
B(  1-C ,  2-B ) :   0.9124 B(  1-C , 13-C ) :   1.4060 B(  2-B ,  3-C ) :   0.9094 
B(  2-B , 36-C ) :   0.8426 B(  3-C ,  4-C ) :   1.3458 B(  3-C ,  6-C ) :   1.3999 
B(  4-C ,  5-B ) :   0.9165 B(  4-C ,  9-C ) :   1.4011 B(  5-B , 46-C ) :   0.8330 
B(  6-C ,  7-C ) :   1.3344 B(  6-C , 54-H ) :   0.9145 B(  7-C ,  8-C ) :   1.3462 
B(  7-C , 19-C ) :   0.9707 B(  8-C ,  9-C ) :   1.3307 B(  8-C , 23-C ) :   0.9720 
B(  9-C , 55-H ) :   0.9155 B( 10-C , 11-C ) :   1.3328 B( 10-C , 56-H ) :   0.9185 
B( 11-C , 12-C ) :   1.3431 B( 11-C , 30-C ) :   0.9785 B( 12-C , 13-C ) :   1.3325 
B( 12-C , 26-C ) :   0.9715 B( 13-C , 57-H ) :   0.9204 B( 14-C , 15-C ) :   1.3106 
B( 14-C , 19-C ) :   1.4030 B( 14-C , 58-H ) :   0.9306 B( 15-C , 16-C ) :   1.5466 
B( 15-C , 59-H ) :   0.9186 B( 16-C , 17-C ) :   1.1878 B( 16-C , 60-H ) :   0.9268 
B( 17-C , 18-C ) :   1.2317 B( 17-C , 20-C ) :   1.1883 B( 18-C , 19-C ) :   1.2232 
B( 18-C , 23-C ) :   1.2228 B( 20-C , 21-C ) :   1.5468 B( 20-C , 61-H ) :   0.9266 
B( 21-C , 22-C ) :   1.3103 B( 21-C , 62-H ) :   0.9185 B( 22-C , 23-C ) :   1.4036 
B( 22-C , 63-H ) :   0.9304 B( 24-C , 25-C ) :   1.3096 B( 24-C , 29-C ) :   1.5479 
B( 24-C , 64-H ) :   0.9188 B( 25-C , 26-C ) :   1.4049 B( 25-C , 65-H ) :   0.9308 
B( 26-C , 27-C ) :   1.2223 B( 27-C , 28-C ) :   1.2329 B( 27-C , 30-C ) :   1.2231 
B( 28-C , 29-C ) :   1.1866 B( 28-C , 33-C ) :   1.1874 B( 29-C , 66-H ) :   0.9269 
B( 30-C , 31-C ) :   1.4045 B( 31-C , 32-C ) :   1.3099 B( 31-C , 67-H ) :   0.9306 
B( 32-C , 33-C ) :   1.5470 B( 32-C , 68-H ) :   0.9187 B( 33-C , 69-H ) :   0.9271 
B( 34-C , 35-C ) :   1.3636 B( 34-C , 39-C ) :   1.3545 B( 34-C , 70-H ) :   0.9085 
B( 35-C , 36-C ) :   1.4525 B( 35-C , 40-C ) :   0.9713 B( 36-C , 37-C ) :   1.3655 
B( 37-C , 38-C ) :   1.4795 B( 37-C , 41-C ) :   0.9772 B( 38-C , 39-C ) :   1.3492 
B( 38-C , 71-H ) :   0.9097 B( 39-C , 42-O ) :   1.0351 B( 40-C , 72-H ) :   0.9218 
B( 40-C , 73-C ) :   0.9755 B( 40-C , 74-H ) :   0.8974 B( 41-C , 92-H ) :   0.9269 
B( 41-C , 93-H ) :   0.9041 B( 41-C , 94-H ) :   0.9007 B( 42-O , 43-C ) :   0.9600 
B( 43-C , 75-H ) :   0.9233 B( 43-C , 76-H ) :   0.9079 B( 43-C , 77-H ) :   0.9079 
B( 44-C , 45-C ) :   1.4689 B( 44-C , 49-C ) :   1.3508 B( 44-C , 78-H ) :   0.9109 
B( 45-C , 46-C ) :   1.3660 B( 45-C , 50-C ) :   0.9803 B( 46-C , 47-C ) :   1.4606 
B( 47-C , 48-C ) :   1.3706 B( 47-C , 51-C ) :   0.9724 B( 48-C , 49-C ) :   1.3515 
B( 48-C , 79-H ) :   0.9077 B( 49-C , 52-O ) :   1.0346 B( 50-C , 95-H ) :   0.9031 
B( 50-C , 96-H ) :   0.9272 B( 50-C , 97-H ) :   0.9054 B( 51-C , 80-H ) :   0.8909 
B( 51-C , 81-H ) :   0.9197 B( 51-C , 82-C ) :   0.9764 B( 52-O , 53-C ) :   0.9603 
B( 53-C , 83-H ) :   0.9230 B( 53-C , 84-H ) :   0.9077 B( 53-C , 85-H ) :   0.9077 
B( 73-C , 89-H ) :   0.9288 B( 73-C , 90-H ) :   0.9117 B( 73-C , 91-H ) :   0.9269 
B( 82-C , 86-H ) :   0.9141 B( 82-C , 87-H ) :   0.9272 B( 82-C , 88-H ) :   0.9286 


-------
TIMINGS
-------

Total SCF time: 0 days 0 hours 14 min 8 sec 

Total time                  ....     848.629 sec
Sum of individual times     ....     846.533 sec  ( 99.8%)

Fock matrix formation       ....     832.940 sec  ( 98.2%)
  XC integration            ....      14.979 sec  (  1.8% of F)
    Basis function eval.    ....       4.901 sec  ( 32.7% of XC)
    Density eval.           ....       4.166 sec  ( 27.8% of XC)
    XC-Functional eval.     ....       0.461 sec  (  3.1% of XC)
    XC-Potential eval.      ....       4.886 sec  ( 32.6% of XC)
Diagonalization             ....       4.046 sec  (  0.5%)
Density matrix formation    ....       0.209 sec  (  0.0%)
Population analysis         ....       1.350 sec  (  0.2%)
Initial guess               ....       0.945 sec  (  0.1%)
Orbital Transformation      ....       0.000 sec  (  0.0%)
Orbital Orthonormalization  ....       0.000 sec  (  0.0%)
DIIS solution               ....       1.404 sec  (  0.2%)
SOSCF solution              ....       1.852 sec  (  0.2%)
Grid generation             ....       3.788 sec  (  0.4%)


-------------------------------------------------------------------------------
                          DFT DISPERSION CORRECTION                            
                                                                               
                              DFTD3 V3.1  Rev 1                                
                          USING Becke-Johnson damping                          
-------------------------------------------------------------------------------
The PBEh-3c composite method is recognized
Using three-body term ABC
Active option DFTDOPT                   ...         4   

molecular C6(AA) [au] = 118095.010111 


            DFT-D V3
 parameters
 s6 scaling factor         :     1.0000 
 a1 scaling factor         :     0.4860 
 s8 scaling factor         :     0.0000 
 a2 scaling factor         :     4.5000 
 Damping factor alpha9(ATM):    16.0000 
 ad hoc parameters k1-k3   :    16.0000     1.3333    -4.0000 

 Edisp/kcal,au: -56.298427244755  -0.089717245024 
 E6   /kcal   : -56.799412070 
 E8   /kcal   :  -0.000000000 
 E6(ABC)      :   0.500984826 
 % E8         :   0.000000000 
 % E6(ABC)    :  -0.889873572 

-------------------------   ----------------
Dispersion correction           -0.089717245
-------------------------   ----------------

------------------   -----------------
gCP correction             0.142032680
------------------   -----------------

-------------------------   --------------------
FINAL SINGLE POINT ENERGY     -2202.256691760198
-------------------------   --------------------


                            ***************************************
                            *     ORCA property calculations      *
                            ***************************************

                                    ---------------------
                                    Active property flags
                                    ---------------------
   (+) Dipole Moment


------------------------------------------------------------------------------
                       ORCA ELECTRIC PROPERTIES CALCULATION
------------------------------------------------------------------------------

Dipole Moment Calculation                       ... on
Quadrupole Moment Calculation                   ... off
Polarizability Calculation                      ... off
GBWName                                         ... orca_mos.gbw
Electron density file                           ... orca_mos.scfp.tmp
The origin for moment calculation is the CENTER OF MASS  = ( 6.439616, -5.113676 -1.128042)

-------------
DIPOLE MOMENT
-------------
                                X             Y             Z
Electronic contribution:     -0.22110       5.27987       3.97576
Nuclear contribution   :      0.02938      -5.36754      -4.40632
                        -----------------------------------------
Total Dipole Moment    :     -0.19172      -0.08768      -0.43056
                        -----------------------------------------
Magnitude (a.u.)       :      0.47940
Magnitude (Debye)      :      1.21855


Timings for individual modules:

Sum of individual times         ...      851.425 sec (=  14.190 min)
GTO integral calculation        ...        2.572 sec (=   0.043 min)   0.3 %
SCF iterations                  ...      848.853 sec (=  14.148 min)  99.7 %
                             ****ORCA TERMINATED NORMALLY****
TOTAL RUN TIME: 0 days 0 hours 14 minutes 12 seconds 710 msec
