mFile = /cm/shared/apps/q-chem/intel/QCHEM_5.0.1_Trunk/bin/mpi/machines
Process 0 of 1 is on ctcp034 - thread support 0
initial socket setup ...start
initial socket setup ...done 
now start server 0 ... 
ctcp034.cm.cluster 10.141.0
Q-Chem Developer Version! Running on 10.141.0.*
                  Welcome to Q-Chem
     A Quantum Leap Into The Future Of Chemistry


 Q-Chem 5.0, Q-Chem, Inc., Pleasanton, CA (2017)

 Yihan Shao,  Zhengting Gan,  E. Epifanovsky,  A. T. B. Gilbert,  M. Wormit,  
 J. Kussmann,  A. W. Lange,  A. Behn,  Jia Deng,  Xintian Feng,  D. Ghosh,  
 M. Goldey,  P. R. Horn,  L. D. Jacobson,  I. Kaliman,  T. Kus,  A. Landau,  
 Jie Liu,  E. I. Proynov,  R. M. Richard,  R. P. Steele,  E. J. Sundstrom,  
 H. L. Woodcock III,  P. M. Zimmerman,  D. Zuev,  B. Albrecht,  E. Alguire,  
 S. A. Baeppler,  Z. Benda,  Y. A. Bernard,  E. J. Berquist,  K. B. Bravaya,  
 D. Casanova,  Chun-Min Chang,  Yunqing Chen,  A. Chien,  K. D. Closser,  
 M. P. Coons,  S. Dasgupta,  M. Diedenhofen,  Hainam Do,  R. G. Edgar,  
 Po-Tung Fang,  S. Fatehi,  Qingguo Feng,  Qinghui Ge,  A. Ghysels,  
 J. Gomes,  J. Gonthier,  A. Gunina,  M. W. D. Hanson-Heine,  
 P. H. P. Harbach,  A. W. Hauser,  J. E. Herr,  E. G. Hohenstein,  
 Z. C. Holden,  Kerwin Hui,  T.-C. Jagau,  Hyunjun Ji,  B. Kaduk,  
 K. Khistyaev,  Jaehoon Kim,  P. Klunzinger,  K. Koh,  D. Kosenkov,  
 T. Kowalczyk,  C. M. Krauter,  A. Kunitsa,  Ka Un Lao,  A. Laurent,  
 K. V. Lawler,  Joonho Lee,  D. Lefrancois,  S. Lehtola,  D. S. Levine,  
 Yi-Pei Li,  You-Sheng Lin,  Fenglai Liu,  E. Livshits,  A. Luenser,  
 P. Manohar,  E. Mansoor,  S. F. Manzer,  Shan-Ping Mao,  Yuezhi Mao,  
 N. Mardirossian,  A. V. Marenich,  L. A. Martinez-Martinez,  S. A. Maurer,  
 N. J. Mayhall,  S. C. McKenzie,  J.-M. Mewes,  A. F. Morrison,  K. Nanda,  
 T. S. Nguyen-Beck,  R. Olivares-Amaya,  J. A. Parkhill,  T. M. Perrine,  
 F. Plasser,  S. Prager,  A. Prociuk,  D. R. Rehn,  F. Rob,  M. Schneider,  
 N. Sergueev,  S. M. Sharada,  S. Sharma,  D. W. Small,  T. Stauch,  
 T. Stein,  Yu-Chuan Su,  A. J. W. Thom,  T. Tsuchimochi,  L. Vogt,  
 O. Vydrov,  M. A. Watson,  J. Wenzel,  M. de Wergifosse,  T. A. Wesolowski,  
 A. White,  J. Witte,  A. Yamada,  Jun Yang,  K. Yao,  S. Yeganeh,  
 S. R. Yost,  Zhi-Qiang You,  A. Zech,  Igor Ying Zhang,  Xing Zhang,  
 Yan Zhao,  Ying Zhu,  B. R. Brooks,  G. K. L. Chan,  C. J. Cramer,  
 M. S. Gordon,  W. J. Hehre,  A. Klamt,  M. W. Schmidt,  C. D. Sherrill,  
 D. G. Truhlar,  A. Aspuru-Guzik,  R. Baer,  A. T. Bell,  N. A. Besley,  
 Jeng-Da Chai,  A. Dreuw,  B. D. Dunietz,  T. R. Furlani,  Chao-Ping Hsu,  
 Yousung Jung,  Jing Kong,  D. S. Lambrecht,  WanZhen Liang,  C. Ochsenfeld,  
 V. A. Rassolov,  L. V. Slipchenko,  J. E. Subotnik,  T. Van Voorhis,  
 J. M. Herbert,  A. I. Krylov,  P. M. W. Gill,  M. Head-Gordon

 Contributors to earlier versions of Q-Chem not listed above: 
 R. D. Adamson,  B. Austin,  J. Baker,  G. J. O. Beran,  K. Brandhorst,  
 S. T. Brown,  E. F. C. Byrd,  A. K. Chakraborty,  C.-L. Cheng,  
 Siu Hung Chien,  D. M. Chipman,  D. L. Crittenden,  H. Dachsel,  
 R. A. DiStasio Jr.,  R. J. Doerksen,  A. D. Dutoi,  L. Fusti-Molnar,  
 W. A. Goddard III,  A. Golubeva-Zadorozhnaya,  S. R. Gwaltney,  G. Hawkins,  
 A. Heyden,  S. Hirata,  G. Kedziora,  F. J. Keil,  C. Kelley,  Jihan Kim,  
 R. A. King,  R. Z. Khaliullin,  P. P. Korambath,  W. Kurlancheek,  
 A. M. Lee,  M. S. Lee,  S. V. Levchenko,  Ching Yeh Lin,  D. Liotard,  
 R. C. Lochan,  I. Lotan,  P. E. Maslen,  N. Nair,  D. P. O'Neill,  
 D. Neuhauser,  E. Neuscamman,  C. M. Oana,  R. Olson,  B. Peters,  
 R. Peverati,  P. A. Pieniazek,  Y. M. Rhee,  J. Ritchie,  M. A. Rohrdanz,  
 E. Rosta,  N. J. Russ,  H. F. Schaefer III,  N. E. Schultz,  N. Shenvi,  
 A. C. Simmonett,  A. Sodt,  D. Stuck,  K. S. Thanthiriwatte,  V. Vanovschi,  
 Tao Wang,  A. Warshel,  C. F. Williams,  Q. Wu,  X. Xu,  W. Zhang

 Please cite Q-Chem as follows:
 Y. Shao et al., Mol. Phys. 113, 184-215 (2015)
 DOI: 10.1080/00268976.2014.952696

 Q-Chem 5.0.1 for Intel X86 EM64T Linux

 Parts of Q-Chem use Armadillo 5.200.1 (Boston Tea Smuggler).
 http://arma.sourceforge.net/

 Q-Chem begins on Wed Oct 24 12:38:14 2018  

Host: 32512

     Scratch files written to /scratch/mewes/138279/qchem23101//
 Parallel job on  1  processors
The previous job contains 0 fragments, simply inherited here
Symmetry turned off for PCM/SM12/SMD calculation

Checking the input file for inconsistencies... 	...done.

--------------------------------------------------------------
User input:
--------------------------------------------------------------
$rem
threads 4
jobtype	opt
method PBEh-3c
basis def2-mSVP
mem_static	1024
mem_total	4000
sym_ignore	true
scf_convergence	9
solvent_method	pcm
$end

$molecule
read gsopt.mol
$end

$solvent
dielectric	2.03 
$end

$pcm
theory iefpcm
$end
--------------------------------------------------------------
 Adding empirical dispersion correction 
 ----------------------------------------------------------------
 Doing -D3(BJ) with
 s6 =   1.00000
 s8 =   0.00000
 a1 =   0.48600
 a2 =   4.50000
 -D3 energy including 3body term =     -0.1279806514 hartrees
 ----------------------------------------------------------------
 Adding gCP correction 
 ----------------------------------------------------------------
 gCP energy =      0.1809100784 hartrees
 ----------------------------------------------------------------
             Standard Nuclear Orientation (Angstroms)
    I     Atom           X                Y                Z
 ----------------------------------------------------------------
    1      N       0.0000000000     0.0000000000     0.0000000000
    2      C       0.0000000000     0.0000000000     1.4044830000
    3      C       1.2024031783     0.0000000000     2.1105539064
    4      H       2.1415901069    -0.0087230669     1.5726929769
    5      C       1.2006036241     0.0165466719     3.4952398763
    6      H       2.1435922462     0.0186649721     4.0266234999
    7      C       0.0061327530     0.0118743932     4.1997540496
    8      H       0.0080869050     0.0175089193     5.2815046103
    9      C      -1.1916096697     0.0008517531     3.4996581433
   10      H      -2.1318621824     0.0053157065     4.0358236006
   11      C      -1.1999675209     0.0056842732     2.1149177979
   12      H      -2.1398358845     0.0140039674     1.5782158875
   13      C       0.9540417173     0.7723896074    -0.6848236774
   14      C       1.6693835010     0.2432623954    -1.7573404039
   15      H       1.4869402386    -0.7757488908    -2.0722105047
   16      C       2.6098758418     1.0170597576    -2.4176459372
   17      H       3.1565841296     0.5922293743    -3.2495167068
   18      C       2.8669865237     2.3179232794    -2.0107637390
   19      H       3.6078138703     2.9157964700    -2.5244663849
   20      C       2.1617864707     2.8436227271    -0.9379101934
   21      H       2.3459629241     3.8594789807    -0.6128039923
   22      C       1.2054078374     2.0847273492    -0.2853821852
   23      H       0.6512347564     2.5068203883     0.5432812792
   24      C      -0.8617639934    -0.8507872250    -0.7145974839
   25      C      -1.1503329768    -2.1270806300    -0.2532516125
   26      H      -0.7122648926    -2.4736178976     0.6763769469
   27      C      -1.9820698047    -2.9761889979    -0.9745634928
   28      C      -1.4301405578    -0.4264283488    -1.9139355003
   29      H      -1.2219285334     0.5731379396    -2.2771831491
   30      C      -2.2372039578    -1.2722793354    -2.6574261868
   31      C      -2.5202080709    -2.5681114835    -2.1975099005
   32      C      -2.8147952035    -0.7922680760    -3.9598575357
   33      H      -2.4617082298     0.2072243633    -4.2112796353
   34      H      -3.9056176293    -0.7571558260    -3.9255335136
   35      H      -2.5422233201    -1.4522069148    -4.7866688840
   36      C      -2.3042737748    -4.3241958596    -0.3838173603
   37      H      -1.3995207342    -4.7655444790     0.0429323823
   38      H      -2.6346157462    -5.0187168232    -1.1610937913
   39      C      -3.3767255109    -4.2271595360     0.6989152354
   40      H      -4.3067254704    -3.8253459134     0.2956424342
   41      H      -3.5952127052    -5.2064793083     1.1257806554
   42      H      -3.0558652535    -3.5725508171     1.5103770076
   43      B      -3.3792760667    -3.5418260396    -3.0833046221
   44      C      -4.9290248923    -3.5085548653    -3.0302967848
   45      C      -5.5729068430    -2.6586340128    -2.1295609925
   46      H      -4.9848862510    -2.0104729447    -1.4878870118
   47      C      -6.9522193382    -2.6499628539    -2.0581123721
   48      C      -7.7174456964    -3.4915619978    -2.8950065434
   49      C      -7.0869550183    -4.3280068557    -3.7981779540
   50      H      -7.6684284791    -4.9715308866    -4.4479249249
   51      C      -5.6910913385    -4.3466441106    -3.8776606943
   52      C      -7.8661921999    -1.8787669016    -1.2162745682
   53      C      -7.7232135374    -0.9270471338    -0.2406374885
   54      H      -6.7503633029    -0.5725627229     0.0773960132
   55      C      -9.1631368629    -2.2857522748    -1.5773904439
   56      C     -10.3255058150    -1.7808498466    -1.0048217763
   57      C      -9.1325347177    -3.2613454502    -2.5912715480
   58      C     -10.3238721055    -3.7538593083    -3.0537827562
   59      H     -10.3681936668    -4.5047768102    -3.8322882746
   60      C      -8.8880949740    -0.3962763399     0.3617925104
   61      H      -8.7751109950     0.3552044916     1.1325242006
   62      C     -10.1522283312    -0.7997866160     0.0017340919
   63      H     -11.0155776030    -0.3645930003     0.4901745928
   64      C     -11.5415550300    -2.3073585877    -1.5008029346
   65      H     -12.4859470198    -1.9587936192    -1.1009215213
   66      C     -11.5255129282    -3.2606139327    -2.4914563344
   67      H     -12.4657215986    -3.6509690304    -2.8579413603
   68      C      -2.6692954897    -4.5485890836    -4.0346987222
   69      C      -1.2764103730    -4.6284427542    -4.0374778822
   70      H      -0.7009970973    -3.9840052056    -3.3820398018
   71      C      -0.6390301529    -5.5304620066    -4.8662213781
   72      C      -1.3829847231    -6.3654773895    -5.7274549449
   73      C      -2.7647352852    -6.2813148983    -5.7414399777
   74      H      -3.3459769109    -6.9103994568    -6.4068057059
   75      C      -3.4230220669    -5.3825154718    -4.8948905663
   76      C       0.7790729953    -5.8232968500    -5.0440427088
   77      C       1.9406003901    -5.3528936864    -4.4912407016
   78      H       1.9423602225    -4.5777626854    -3.7345019357
   79      C       0.8488912562    -6.8339518874    -6.0192993711
   80      C       2.0365960159    -7.3972173278    -6.4688633692
   81      C      -0.4338683046    -7.2006783740    -6.4698412391
   82      C      -0.5297391512    -8.1805138721    -7.4210649068
   83      H      -1.4860541855    -8.5097561596    -7.8073860963
   84      C       3.1654110989    -5.9071556428    -4.9299865127
   85      H       4.0857042539    -5.5390527257    -4.4954580426
   86      C       3.2255589903    -6.8949731886    -5.8851098657
   87      H       4.1870263175    -7.2899030908    -6.1893226818
   88      C       1.9080368497    -8.4060294027    -7.4531481464
   89      H       2.7905621568    -8.8904145740    -7.8523355798
   90      C       0.6617701613    -8.7734852778    -7.9038690592
   91      H       0.5836492158    -9.5470275257    -8.6563010939
   92      B      -4.9769209761    -5.2845208714    -4.8956921493
   93      C      -5.8416988787    -6.1322273278    -5.8963286815
   94      C      -6.3303740815    -5.5746497806    -7.0830053810
   95      C      -7.1137195551    -6.3382870006    -7.9390600833
   96      H      -7.4824002932    -5.9044891402    -8.8616646913
   97      C      -7.4469684155    -7.6473572637    -7.6180308613
   98      C      -6.9794370622    -8.1956603199    -6.4285142169
   99      H      -7.2540985954    -9.2096758522    -6.1633087051
  100      C      -6.1746171624    -7.4553440921    -5.5754725412
  101      N      -8.2672853657    -8.4058813788    -8.4761400405
  102      C      -9.4686370019    -7.8561956284    -8.9460825798
  103      C      -9.9204920540    -8.1299286874   -10.2366076516
  104      H      -9.3372292074    -8.7716020470   -10.8842291152
  105      C     -11.1081990590    -7.5809085695   -10.6897977093
  106      H     -11.4441867891    -7.8036814734   -11.6942017437
  107      C     -11.8542915609    -6.7372174038    -9.8797177148
  108      H     -12.7763744695    -6.3032099457   -10.2420506480
  109      C     -11.4011133468    -6.4567282800    -8.5992470679
  110      H     -11.9735453602    -5.8051759188    -7.9514910368
  111      C     -10.2259442406    -7.0166664675    -8.1287908068
  112      H      -9.8893605158    -6.8009348265    -7.1229597712
  113      C      -7.9234165941    -9.7385775894    -8.7483961006
  114      C      -8.8888288439   -10.7441729223    -8.7496525145
  115      H      -9.9223082627   -10.4971799212    -8.5437069187
  116      C      -8.5275167872   -12.0567203056    -9.0047455922
  117      H      -9.2894928309   -12.8253361495    -8.9994585630
  118      C      -7.2029490224   -12.3934394147    -9.2415901411
  119      H      -6.9243974682   -13.4213880279    -9.4301552290
  120      C      -6.2396832323   -11.3948704136    -9.2305745733
  121      H      -5.2020876777   -11.6396874213    -9.4175997603
  122      C      -6.5935268657   -10.0775103494    -8.9965589310
  123      H      -5.8373140896    -9.3029632520    -8.9977698187
  124      C      -5.6935217608    -8.0544443855    -4.2821733619
  125      H      -6.0948248361    -9.0551436801    -4.1261662162
  126      H      -4.6044411121    -8.1297314615    -4.2530953747
  127      H      -5.9916316139    -7.4449499426    -3.4258022155
  128      C      -5.9729013124    -4.1621990364    -7.4701124213
  129      H      -6.7727679480    -3.7383813154    -8.0822692574
  130      H      -5.9177177378    -3.5320393263    -6.5773183818
  131      C      -4.6536857417    -4.0736072729    -8.2345089950
  132      H      -3.8188849266    -4.4327530351    -7.6329138320
  133      H      -4.6879438763    -4.6721078480    -9.1452884826
  134      H      -4.4367681760    -3.0432068020    -8.5182980181
 ----------------------------------------------------------------
 Nuclear Repulsion Energy = 11430.5063339291 hartrees
 There are      262 alpha and      262 beta electrons
 Requested basis set is def2-mSVP
 There are 658 shells and 1282 basis functions

 Total QAlloc Memory Limit   4000 MB
 Mega-Array Size      1001 MB
 MEM_STATIC part      1024 MB
 Discretize the solute cavity surface with Lebedev spheres
	Using 302 Lebedev grid points for each H atom
	Using 302 Lebedev grid points for other atoms
	Atomic van der Waals radii will be scaled by 1.20
 Remove points where switching function is < 1.0e-08
 Keep 14054 surface tesserae and discard 26414 interior tesserae
 Molecular Surface Area = 1048.928 Angst**2
 A cutoff of  1.0D-12 yielded  63059 shell pairs
 There are    247699 function pairs (    272727 Cartesian)
 
 -------------------------------------------------------
 OpenMP Integral Computing Module                       
 Release: version 1.0, May 2013, Q-Chem Inc. Pittsburgh 
 -------------------------------------------------------
 Integral Job Info:
 Integral job number is                      11
 Integral operator is                         1
 short-range coefficients                     0
 long-range coefficients              100000000
 Omega coefficients                           0
 if combine SR and LR in K                    0
 Integral screening is                        0
 Integral computing path is                   2
 max size of driver memory is            800000
 size of driver memory is                593474
 size of scratch memory is              1809772
 max col of scratch BK array               1296
 max len of scratch array in speh3          155
 max len of scratch index in speh4           18
 max int batch size is                      520
 min int batch size is                       52
 fixed nKL is                                52
 max L of basis functions is                  2
 order of int derivative is                   0
 number of shells is                        658
 number of basis is                        1360
 number of cartesian basis is              1360
 number of contracted shell pairs         63059
 number of primitive shell pairs         131275
 maxK2 (contraction) of shell pair           25
 max number of K2 of shell pair               1
 max number of CS2 of shell pair          15233
 max number of PS2 of shell pair          23190
 mem total for path MDJ                  643128
 -------------------------------------------------------
 Smallest overlap matrix eigenvalue = 1.95E-04

 Scale SEOQF with 1.000000e-02/1.000000e-02/1.000000e-02

 Standard Electronic Orientation quadrupole field applied
 Nucleus-field energy     =     0.0000000213 hartrees
 Guess from superposition of atomic densities
 Warning:  Energy on first SCF cycle will be non-variational
 A restricted hybrid HF-DFT SCF calculation will be
 performed using Pulay DIIS extrapolation
 Polarizable Continuum solvation model will be applied
 Exchange:     0.4200 Hartree-Fock + 0.5800 PBEh-3c
 Correlation:  1.0000 PBEh-3c
 Using SG-1 standard quadrature grid
 Dispersion:   Grimme D3
 SCF converges when DIIS error is below 1.0E-09
 using 4 threads for integral computing
 -------------------------------------------------------
 OpenMP Integral computing Module                
 Release: version 1.0, May 2013, Q-Chem Inc. Pittsburgh 
 -------------------------------------------------------
 ---------------------------------------
  Cycle       Energy         DIIS Error
 ---------------------------------------
    1   -3032.8505676702      2.36E-02
 Using non-symmetric K matrix
