mFile = /cm/shared/apps/q-chem/intel/QCHEM_5.1.0_Trunk/bin/mpi/machines
Process 0 of 1 is on ctcp037 - thread support 0
initial socket setup ...start
initial socket setup ...done 
now start server 0 ... 
Q-Chem Developer Version!
                  Welcome to Q-Chem
     A Quantum Leap Into The Future Of Chemistry


 Q-Chem 5.1, Q-Chem, Inc., Pleasanton, CA (2018)

 Yihan Shao,  Zhengting Gan,  E. Epifanovsky,  A. T. B. Gilbert,  M. Wormit,  
 J. Kussmann,  A. W. Lange,  A. Behn,  Jia Deng,  Xintian Feng,  D. Ghosh,  
 M. Goldey,  P. R. Horn,  L. D. Jacobson,  I. Kaliman,  T. Kus,  A. Landau,  
 Jie Liu,  E. I. Proynov,  R. M. Richard,  R. P. Steele,  E. J. Sundstrom,  
 H. L. Woodcock III,  P. M. Zimmerman,  D. Zuev,  B. Albrecht,  E. Alguire,  
 S. A. Baeppler,  D. Barton,  Z. Benda,  Y. A. Bernard,  E. J. Berquist,  
 K. B. Bravaya,  H. Burton,  D. Casanova,  Chun-Min Chang,  Yunqing Chen,  
 A. Chien,  K. D. Closser,  M. P. Coons,  S. Coriani,  S. Dasgupta,  
 A. L. Dempwolff,  M. Diedenhofen,  Hainam Do,  R. G. Edgar,  Po-Tung Fang,  
 S. Faraji,  S. Fatehi,  Qingguo Feng,  K. D. Fenk,  J. Fosso-Tande,  
 Qinghui Ge,  A. Ghysels,  G. Gidofalvi,  J. Gomes,  J. Gonthier,  A. Gunina,  
 D. Hait,  M. W. D. Hanson-Heine,  P. H. P. Harbach,  A. W. Hauser,  
 J. E. Herr,  E. G. Hohenstein,  Z. C. Holden,  Kerwin Hui,  B. C. Huynh,  
 T.-C. Jagau,  Hyunjun Ji,  B. Kaduk,  K. Khistyaev,  Jaehoon Kim,  
 P. Klunzinger,  K. Koh,  D. Kosenkov,  L. Koulias,  T. Kowalczyk,  
 C. M. Krauter,  A. Kunitsa,  Ka Un Lao,  A. Laurent,  K. V. Lawler,  
 Joonho Lee,  D. Lefrancois,  S. Lehtola,  D. S. Levine,  Yi-Pei Li,  
 You-Sheng Lin,  Fenglai Liu,  E. Livshits,  A. Luenser,  P. Manohar,  
 E. Mansoor,  S. F. Manzer,  Shan-Ping Mao,  Yuezhi Mao,  N. Mardirossian,  
 A. V. Marenich,  T. Markovich,  L. A. Martinez-Martinez,  S. A. Maurer,  
 N. J. Mayhall,  S. C. McKenzie,  J.-M. Mewes,  A. F. Morrison,  
 J. W. Mullinax,  K. Nanda,  T. S. Nguyen-Beck,  R. Olivares-Amaya,  
 J. A. Parkhill,  T. M. Perrine,  F. Plasser,  P. Pokhilko,  S. Prager,  
 A. Prociuk,  E. Ramos,  D. R. Rehn,  F. Rob,  M. Schneider,  N. Sergueev,  
 S. M. Sharada,  S. Sharma,  D. W. Small,  T. Stauch,  T. Stein,  
 Yu-Chuan Su,  A. J. W. Thom,  A. Tkatchenko,  T. Tsuchimochi,  N. M. Tubman,  
 L. Vogt,  M. L. Vidal,  O. Vydrov,  M. A. Watson,  J. Wenzel,  
 M. de Wergifosse,  T. A. Wesolowski,  A. White,  J. Witte,  A. Yamada,  
 Jun Yang,  K. Yao,  S. Yeganeh,  S. R. Yost,  Zhi-Qiang You,  A. Zech,  
 Igor Ying Zhang,  Xing Zhang,  Yan Zhao,  Ying Zhu,  B. R. Brooks,  
 G. K. L. Chan,  C. J. Cramer,  M. S. Gordon,  W. J. Hehre,  A. Klamt,  
 M. W. Schmidt,  C. D. Sherrill,  D. G. Truhlar,  A. Aspuru-Guzik,  R. Baer,  
 A. T. Bell,  N. A. Besley,  Jeng-Da Chai,  A. E. DePrince, III,  
 R. A. DiStasio Jr.,  A. Dreuw,  B. D. Dunietz,  T. R. Furlani,  
 Chao-Ping Hsu,  Yousung Jung,  Jing Kong,  D. S. Lambrecht,  WanZhen Liang,  
 C. Ochsenfeld,  V. A. Rassolov,  L. V. Slipchenko,  J. E. Subotnik,  
 T. Van Voorhis,  J. M. Herbert,  A. I. Krylov,  P. M. W. Gill,  M. Head-Gordon

 Contributors to earlier versions of Q-Chem not listed above: 
 R. D. Adamson,  B. Austin,  J. Baker,  G. J. O. Beran,  K. Brandhorst,  
 S. T. Brown,  E. F. C. Byrd,  A. K. Chakraborty,  C.-L. Cheng,  
 Siu Hung Chien,  D. M. Chipman,  D. L. Crittenden,  H. Dachsel,  
 R. J. Doerksen,  A. D. Dutoi,  L. Fusti-Molnar,  W. A. Goddard III,  
 A. Golubeva-Zadorozhnaya,  S. R. Gwaltney,  G. Hawkins,  A. Heyden,  
 S. Hirata,  G. Kedziora,  F. J. Keil,  C. Kelley,  Jihan Kim,  R. A. King,  
 R. Z. Khaliullin,  P. P. Korambath,  W. Kurlancheek,  A. M. Lee,  M. S. Lee,  
 S. V. Levchenko,  Ching Yeh Lin,  D. Liotard,  R. C. Lochan,  I. Lotan,  
 P. E. Maslen,  N. Nair,  D. P. O'Neill,  D. Neuhauser,  E. Neuscamman,  
 C. M. Oana,  R. Olson,  B. Peters,  R. Peverati,  P. A. Pieniazek,  
 Y. M. Rhee,  J. Ritchie,  M. A. Rohrdanz,  E. Rosta,  N. J. Russ,  
 H. F. Schaefer III,  N. E. Schultz,  N. Shenvi,  A. C. Simmonett,  A. Sodt,  
 D. Stuck,  K. S. Thanthiriwatte,  V. Vanovschi,  Tao Wang,  A. Warshel,  
 C. F. Williams,  Q. Wu,  X. Xu,  W. Zhang

 Please cite Q-Chem as follows:
 Y. Shao et al., Mol. Phys. 113, 184-215 (2015)
 DOI: 10.1080/00268976.2014.952696

 Q-Chem 5.1.1 for Intel X86 EM64T Linux

 Parts of Q-Chem use Armadillo 8.300.2 (Tropical Shenanigans).
 http://arma.sourceforge.net/

 Q-Chem begins on Wed Jan 16 09:44:26 2019  

Host: ctcp037
0

     Scratch files written to /scratch/mewes/143476/qchem1413//
 Parallel job on  1  processors
The previous job contains 0 fragments, simply inherited here
Symmetry turned off for PCM/SM12/SMD calculation
Input Ideriv = 2
Curr. Ideriv = -1
Max.  Ideriv = 2
Input Ideriv = 2
Curr. Ideriv = 2
Max.  Ideriv = 2

Checking the input file for inconsistencies... 	...done.

--------------------------------------------------------------
User input:
--------------------------------------------------------------
$rem
threads 8
jobtype	sp
method PBEh-3c
basis def2-mSVP
mem_static	1024
mem_total	8000
sym_ignore	true
unrestricted true
scf_convergence	9
solvent_method	pcm
$end

$molecule
read incoords.mol
$end

$solvent
dielectric	1.0001
$end

$pcm
theory iefpcm
$end
--------------------------------------------------------------
 Adding empirical dispersion correction 
 ----------------------------------------------------------------
 Doing -D3(BJ) with
 s6 =   1.00000
 s8 =   0.00000
 a1 =   0.48600
 a2 =   4.50000
 -D3 energy including 3body term =     -0.0786436726 hartrees
 ----------------------------------------------------------------
 Adding gCP correction 
 ----------------------------------------------------------------
 gCP energy =      0.1095195205 hartrees
 ----------------------------------------------------------------
             Standard Nuclear Orientation (Angstroms)
    I     Atom           X                Y                Z
 ----------------------------------------------------------------
    1      N       0.0000000000     0.0000000000     0.0000000000
    2      C       0.0000000000     0.0000000000     1.3738420000
    3      C       1.1633572231     0.0000000000    -0.7307854048
    4      C      -1.1767290887     0.3525793702     2.0641012234
    5      H      -2.0671155341     0.6196480320     1.5161915620
    6      C      -1.1796200483     0.3873531427     3.4363216445
    7      H      -2.0798861477     0.6704657286     3.9620911651
    8      C      -0.0208160337     0.0754302211     4.1393957887
    9      H      -0.0157560093     0.1082868727     5.2198304658
   10      C       1.1366278619    -0.2788175561     3.4587177382
   11      H       2.0145307119    -0.5257669053     4.0368773055
   12      C       1.1782302992    -0.3279531376     2.0776536029
   13      C       1.1354102662     0.3004476836    -2.1075752217
   14      H       0.2038722316     0.4825686260    -2.6198413751
   15      C       2.3120145347     0.4076539097    -2.8051838971
   16      H       2.2792760865     0.6746920487    -3.8509185438
   17      C       3.5253284265     0.1920739350    -2.1603863938
   18      H       4.4545445958     0.2883642421    -2.7041033567
   19      C       3.5499700530    -0.1664501536    -0.8176889186
   20      H       4.5057018271    -0.3651830586    -0.3564875557
   21      C       2.3882330204    -0.2823854282    -0.0803340965
   22      C      -1.2696777214     0.0599917706    -0.6726341505
   23      C      -1.6814575326     1.2343533546    -1.2521132288
   24      H      -1.0388289305     2.1018353956    -1.1763340962
   25      C      -2.0585806370    -1.0771505610    -0.7161955503
   26      H      -1.7364130297    -2.0079753928    -0.2673522108
   27      C      -3.2857000155    -0.9656820962    -1.3302374398
   28      H      -3.9420343132    -1.8268141669    -1.3403551557
   29      C      -2.8832053228     1.3299768767    -1.9586367927
   30      C      -3.7289579772     0.2152778247    -1.9403476996
   31      C      -5.1365156421     0.2205481533    -2.4615449492
   32      H      -5.6615620324    -0.6277427210    -2.0166626462
   33      H      -5.1523654060     0.0593901974    -3.5423520184
   34      C       2.3676805458    -0.8561006163     1.3171575240
   35      C       3.6799868791    -0.6185484794     2.0625187477
   36      H       4.5163949388    -1.0744915396     1.5367862698
   37      H       3.6646806411    -1.0889594855     3.0435538814
   38      H       3.8879661645     0.4429425871     2.1926948749
   39      C      -5.8652804281     1.5248418089    -2.1380771657
   40      H      -6.9376622123     1.3316835166    -2.0818420436
   41      H      -5.5714030344     1.8520151223    -1.1322019807
   42      C      -5.6075470575     2.5426342779    -3.2047364065
   43      C      -6.6710819858     3.0159590106    -3.9242834426
   44      H      -7.6727611130     2.7526499797    -3.6036266589
   45      C      -6.5449877745     3.7891333936    -5.0913943727
   46      C      -7.6908803557     4.2399577114    -5.7570685179
   47      N      -8.6602100417     4.5944295539    -6.2903590525
   48      C      -5.2056084971     4.0343521980    -5.5633512908
   49      C      -4.1292590689     3.5747003909    -4.8020035794
   50      H      -3.1452481815     3.8326337690    -5.1676831059
   51      C      -4.2651008900     2.8464054244    -3.6368172277
   52      C      -4.9428549831     4.7182953685    -6.7637338435
   53      N      -4.7019351437     5.2799267038    -7.7489368348
   54      C      -3.0410108466     2.6510562714    -2.7455079298
   55      C      -1.7456667902     2.7832536110    -3.5461246566
   56      C      -1.3054316127     1.9571001808    -4.5621162433
   57      H      -1.9196951794     1.1322185375    -4.9026493102
   58      C      -0.0876017496     2.2363238666    -5.1706633824
   59      H       0.2549707226     1.6216513226    -5.9934755801
   60      C       0.6755837072     3.3225966126    -4.7529217661
   61      H       1.6141456522     3.5389126360    -5.2467147445
   62      C       0.2327264540     4.1477256334    -3.7290505075
   63      H       0.8258558714     4.9991249983    -3.4198907996
   64      C      -0.9877983437     3.8740263001    -3.1277053389
   65      C      -1.7075439618     4.5469023818    -2.0502951181
   66      C      -1.4001693770     5.6916682543    -1.3327240505
   67      H      -0.4931165294     6.2477854481    -1.5343864061
   68      C      -2.2871597863     6.1283369684    -0.3591355590
   69      H      -2.0701474311     7.0270359161     0.2027107066
   70      C      -3.4637351048     5.4290349511    -0.1138721403
   71      H      -4.1553206770     5.7917416427     0.6354251661
   72      C      -3.7714597668     4.2814503326    -0.8323783859
   73      H      -4.7039756419     3.7622284013    -0.6554479664
   74      C      -2.8866873996     3.8421437181    -1.7990587330
   75      C       2.1582071748    -2.3878543870     1.1692463428
   76      H       2.9809558047    -2.8254803805     0.6038484990
   77      H       2.1238764372    -2.8562087270     2.1531170928
   78      H       1.2301578260    -2.6302455481     0.6508594013
 ----------------------------------------------------------------
 Nuclear Repulsion Energy =  5553.7336717546 hartrees
 There are      158 alpha and      158 beta electrons
 Requested basis set is def2-mSVP
 There are 391 shells and 767 basis functions

 Total QAlloc Memory Limit   8000 MB
 Mega-Array Size      1001 MB
 MEM_STATIC part      1024 MB
 Discretize the solute cavity surface with Lebedev spheres
	Using 302 Lebedev grid points for each H atom
	Using 302 Lebedev grid points for other atoms
	Atomic van der Waals radii will be scaled by 1.20
 Remove points where switching function is < 1.0e-08
 Keep 7986 surface tesserae and discard 15570 interior tesserae
 Molecular Surface Area = 610.243 Angst**2
 A cutoff of  1.0D-12 yielded  37513 shell pairs
 There are    150565 function pairs (    166400 Cartesian)
 
 -------------------------------------------------------
 OpenMP Integral Computing Module                       
 Release: version 1.0, May 2013, Q-Chem Inc. Pittsburgh 
 -------------------------------------------------------
 Integral Job Info:
 Integral job number is                      11
 Integral operator is                         1
 short-range coefficients                     0
 long-range coefficients              100000000
 Omega coefficients                           0
 if combine SR and LR in K                    0
 Integral screening is                        0
 Integral computing path is                   2
 max size of driver memory is            800000
 size of driver memory is                593474
 size of scratch memory is              1809772
 max col of scratch BK array               1296
 max len of scratch array in speh3          155
 max len of scratch index in speh4           18
 max int batch size is                      520
 min int batch size is                       52
 fixed nKL is                                52
 max L of basis functions is                  2
 order of int derivative is                   0
 number of shells is                        391
 number of basis is                         814
 number of cartesian basis is               814
 number of contracted shell pairs         37513
 number of primitive shell pairs          79014
 maxK2 (contraction) of shell pair           25
 max number of K2 of shell pair               1
 max number of CS2 of shell pair           8824
 max number of PS2 of shell pair          14210
 mem total for path MDJ                  911164
 -------------------------------------------------------
 Smallest overlap matrix eigenvalue = 2.82E-04

 Scale SEOQF with 1.000000e-02/1.000000e-02/1.000000e-02

 Standard Electronic Orientation quadrupole field applied
 Nucleus-field energy     =    -0.0000000042 hartrees
 Guess from superposition of atomic densities
 Warning:  Energy on first SCF cycle will be non-variational
 SAD guess density has 316.000000 electrons

 -----------------------------------------------------------------------
  General SCF calculation program by
  Eric Jon Sundstrom, Paul Horn, Yuezhi Mao, Dmitri Zuev, Alec White,
  David Stuck, Shaama M.S., Shane Yost, Joonho Lee, David Small,
  Daniel Levine, Susi Lehtola, Hugh Burton, Evgeny Epifanovsky
 -----------------------------------------------------------------------
 Exchange:     0.4200 Hartree-Fock + 0.5800 PBEh-3c
 Correlation:  1.0000 PBEh-3c
 Using SG-1 standard quadrature grid
 Dispersion:   Grimme D3
 using 8 threads for integral computing
 -------------------------------------------------------
 OpenMP Integral computing Module                
 Release: version 2.0, May 2017, Q-Chem Inc. Pleasanton 
 -------------------------------------------------------
 -------------------------------------------------------
 OpenMP BLAS3 based DFT computing Module                
 Release: version 1.0, May 2013, Q-Chem Inc. Pittsburgh 
 -------------------------------------------------------
 A unrestricted SCF calculation will be
 performed using DIIS
 SCF converges when DIIS error is below 1.0e-09
 ---------------------------------------
  Cycle       Energy         DIIS error
 ---------------------------------------
 Using non-symmetric K matrix
 Warning: not using a symmetric Q
    1   -1871.0040114482      1.54e-02  
    2   -1855.1151568324      1.11e-03  
    3   -1855.0293425311      1.33e-03  
    4   -1855.4639810488      4.40e-04  
    5   -1855.5146710195      1.13e-04  
    6   -1855.5174744083      4.95e-05  
    7   -1855.5181341141      1.15e-05  
    8   -1855.5181721969      4.37e-06  
    9   -1855.5181778965      1.20e-06  
   10   -1855.5181782590      5.54e-07  
   11   -1855.5181783475      1.86e-07  
   12   -1855.5181783582      7.34e-08  
   13   -1855.5181783598      3.10e-08  
   14   -1855.5181783602      9.20e-09  
   15   -1855.5181783602      3.42e-09  
   16   -1855.5181783602      1.51e-09  
   17   -1855.5181783602      4.11e-10  Convergence criterion met
 ---------------------------------------
 SCF time:   CPU 9951.14s  wall 1349.00s 
<S^2> =         -0.000000000

************** Final PCM Free Energy Summary **************
 G_electrostatic  =      -0.00000196 hartree =      -0.00123232 kcal/mol
 G_cavitation     =       0.00000000 hartree =       0.00000000 kcal/mol
 G_dispersion     =       0.00000000 hartree =       0.00000000 kcal/mol
 G_repulsion      =       0.00000000 hartree =       0.00000000 kcal/mol
 --------------------------------------------------
 Non-electrostatic Free Energy =       0.00000000 hartree =       0.00000000 kcal/mol
 Total                         =      -0.00000196 hartree =      -0.00123232 kcal/mol
 --------------------------------------------------
 SCF Energy (H0 + V/2)                       =   -1855.51817836 
 Solute Internal Energy (H0)                 =   -1855.51817640 
 Total Free Energy (H0 + V/2 + non-elec)     =   -1855.51817836 hartree
                                             = -1164355.23053367 kcal/mol
***********************************************************

 SCF   energy in the final basis set =    -1855.5181783602
 Total energy in the final basis set =    -1855.5181783602
 
 --------------------------------------------------------------
 
                    Orbital Energies (a.u.)
 --------------------------------------------------------------
 
 Alpha MOs
 -- Occupied --
-14.680 -14.663 -14.660 -10.530 -10.528 -10.514 -10.511 -10.505
-10.505 -10.502 -10.499 -10.496 -10.493 -10.491 -10.491 -10.488
-10.481 -10.479 -10.477 -10.477 -10.475 -10.474 -10.470 -10.469
-10.468 -10.468 -10.468 -10.467 -10.467 -10.466 -10.465 -10.465
-10.465 -10.464 -10.463 -10.450 -10.449 -10.442 -10.442 -10.441
-10.440 -10.440 -10.436 -10.435 -10.433 -10.429 -10.426  -1.097
 -1.041  -1.030  -1.020  -1.002  -0.988  -0.969  -0.959  -0.955
 -0.938  -0.935  -0.909  -0.902  -0.892  -0.885  -0.860  -0.857
 -0.848  -0.847  -0.835  -0.826  -0.818  -0.808  -0.795  -0.777
 -0.771  -0.747  -0.732  -0.728  -0.714  -0.713  -0.706  -0.690
 -0.683  -0.679  -0.673  -0.668  -0.666  -0.646  -0.617  -0.615
 -0.614  -0.611  -0.600  -0.588  -0.582  -0.572  -0.566  -0.562
 -0.541  -0.539  -0.536  -0.533  -0.531  -0.527  -0.524  -0.521
 -0.518  -0.512  -0.509  -0.504  -0.503  -0.500  -0.497  -0.492
 -0.490  -0.488  -0.485  -0.485  -0.473  -0.468  -0.461  -0.452
 -0.449  -0.445  -0.442  -0.441  -0.439  -0.438  -0.436  -0.434
 -0.429  -0.428  -0.427  -0.421  -0.421  -0.418  -0.415  -0.412
 -0.410  -0.403  -0.400  -0.399  -0.398  -0.396  -0.393  -0.375
 -0.374  -0.366  -0.350  -0.336  -0.326  -0.313  -0.306  -0.303
 -0.300  -0.289  -0.285  -0.282  -0.271  -0.219
 -- Virtual --
 -0.079  -0.041  -0.029  -0.016  -0.012  -0.005   0.013   0.016
  0.019   0.034   0.044   0.048   0.057   0.057   0.075   0.108
  0.113   0.119   0.128   0.130   0.132   0.138   0.148   0.149
  0.153   0.156   0.161   0.163   0.167   0.177   0.177   0.181
  0.186   0.190   0.192   0.197   0.198   0.201   0.203   0.207
  0.210   0.213   0.216   0.222   0.223   0.227   0.228   0.231
  0.236   0.236   0.241   0.242   0.245   0.250   0.252   0.253
  0.256   0.260   0.265   0.266   0.269   0.272   0.276   0.279
  0.287   0.291   0.293   0.296   0.298   0.303   0.305   0.307
  0.314   0.318   0.328   0.331   0.337   0.339   0.347   0.358
  0.359   0.369   0.373   0.377   0.381   0.384   0.393   0.399
  0.400   0.410   0.415   0.423   0.426   0.440   0.446   0.453
  0.457   0.464   0.468   0.474   0.477   0.479   0.485   0.490
  0.500   0.502   0.504   0.511   0.514   0.518   0.519   0.521
  0.522   0.527   0.531   0.533   0.538   0.539   0.546   0.547
  0.553   0.554   0.559   0.564   0.565   0.568   0.569   0.573
  0.573   0.579   0.582   0.582   0.584   0.590   0.595   0.595
  0.597   0.600   0.604   0.607   0.613   0.615   0.618   0.619
  0.622   0.624   0.625   0.630   0.632   0.634   0.634   0.642
  0.644   0.646   0.649   0.654   0.657   0.664   0.666   0.668
  0.671   0.675   0.678   0.681   0.687   0.690   0.693   0.697
  0.701   0.703   0.707   0.711   0.714   0.716   0.718   0.723
  0.726   0.732   0.736   0.742   0.746   0.747   0.753   0.756
  0.760   0.763   0.765   0.774   0.778   0.783   0.789   0.797
  0.804   0.810   0.813   0.820   0.826   0.830   0.833   0.842
  0.844   0.850   0.860   0.871   0.875   0.882   0.888   0.900
  0.907   0.908   0.919   0.921   0.926   0.934   0.940   0.941
  0.944   0.948   0.950   0.953   0.960   0.964   0.967   0.967
  0.969   0.973   0.979   0.981   0.987   0.992   0.994   1.000
  1.003   1.007   1.010   1.011   1.012   1.013   1.023   1.025
  1.030   1.035   1.041   1.043   1.047   1.051   1.053   1.056
  1.061   1.066   1.068   1.071   1.075   1.080   1.083   1.092
  1.093   1.098   1.103   1.105   1.109   1.115   1.122   1.124
  1.126   1.130   1.137   1.138   1.144   1.147   1.149   1.154
  1.160   1.167   1.176   1.178   1.187   1.189   1.199   1.206
  1.212   1.214   1.221   1.223   1.232   1.235   1.255   1.270
  1.274   1.275   1.281   1.285   1.296   1.302   1.306   1.310
  1.313   1.319   1.321   1.330   1.335   1.338   1.343   1.349
  1.354   1.362   1.364   1.373   1.378   1.386   1.392   1.399
  1.410   1.416   1.420   1.427   1.432   1.451   1.468   1.474
  1.479   1.493   1.499   1.502   1.505   1.515   1.517   1.525
  1.530   1.535   1.538   1.541   1.546   1.552   1.553   1.554
  1.560   1.564   1.571   1.572   1.576   1.583   1.591   1.594
  1.600   1.602   1.605   1.616   1.618   1.627   1.633   1.643
  1.651   1.666   1.669   1.676   1.695   1.703   1.710   1.733
  1.736   1.737   1.753   1.763   1.775   1.778   1.780   1.790
  1.800   1.807   1.812   1.822   1.827   1.832   1.834   1.839
  1.841   1.850   1.855   1.862   1.868   1.871   1.883   1.885
  1.893   1.901   1.909   1.922   1.924   1.929   1.938   1.944
  1.950   1.953   1.956   1.968   1.972   1.980   1.984   1.992
  1.997   2.003   2.011   2.015   2.020   2.021   2.028   2.037
  2.043   2.048   2.054   2.055   2.059   2.071   2.075   2.078
  2.087   2.094   2.102   2.112   2.128   2.135   2.140   2.143
  2.148   2.153   2.155   2.164   2.170   2.173   2.173   2.177
  2.185   2.191   2.198   2.200   2.211   2.218   2.222   2.229
  2.234   2.243   2.250   2.260   2.262   2.265   2.267   2.273
  2.277   2.286   2.289   2.296   2.301   2.306   2.308   2.314
  2.318   2.332   2.332   2.340   2.345   2.352   2.357   2.364
  2.369   2.371   2.375   2.378   2.386   2.390   2.399   2.407
  2.408   2.414   2.433   2.438   2.450   2.465   2.470   2.488
  2.491   2.508   2.511   2.521   2.531   2.537   2.550   2.571
  2.580   2.588   2.594   2.611   2.613   2.630   2.643   2.649
  2.655   2.669   2.680   2.685   2.689   2.696   2.705   2.711
  2.718   2.724   2.729   2.735   2.737   2.740   2.749   2.755
  2.764   2.767   2.772   2.775   2.776   2.793   2.798   2.814
  2.820   2.824   2.827   2.831   2.840   2.847   2.857   2.863
  2.872   2.880   2.892   2.894   2.898   2.917   2.922   2.942
  2.947   2.970   2.976   2.979   2.984   3.014   3.018   3.031
  3.033   3.054   3.061   3.078   3.141   3.214   3.274   3.310
  3.361   3.369   3.377   3.394   3.405   3.491   3.558   3.566
  3.588   3.644  13.198  13.251  13.263  13.336  13.363  13.419
 13.623  13.659  13.670  13.690  13.720  13.732  13.759  13.770
 13.778  13.809  13.817  13.836  13.887  13.910  13.918  13.979
 14.064  14.122  14.131  14.166  14.176  14.194  14.196  14.213
 14.222  14.246  14.254  14.270  14.272  14.283  14.319  14.389
 14.545  14.571  14.577  14.585  14.600  14.606  19.484  19.543
 19.632
 
 Beta MOs
 -- Occupied --
-14.680 -14.663 -14.660 -10.530 -10.528 -10.514 -10.511 -10.505
-10.505 -10.502 -10.499 -10.496 -10.493 -10.491 -10.491 -10.488
-10.481 -10.479 -10.477 -10.477 -10.475 -10.474 -10.470 -10.469
-10.468 -10.468 -10.468 -10.467 -10.467 -10.466 -10.465 -10.465
-10.465 -10.464 -10.463 -10.450 -10.449 -10.442 -10.442 -10.441
-10.440 -10.440 -10.436 -10.435 -10.433 -10.429 -10.426  -1.097
 -1.041  -1.030  -1.020  -1.002  -0.988  -0.969  -0.959  -0.955
 -0.938  -0.935  -0.909  -0.902  -0.892  -0.885  -0.860  -0.857
 -0.848  -0.847  -0.835  -0.826  -0.818  -0.808  -0.795  -0.777
 -0.771  -0.747  -0.732  -0.728  -0.714  -0.713  -0.706  -0.690
 -0.683  -0.679  -0.673  -0.668  -0.666  -0.646  -0.617  -0.615
 -0.614  -0.611  -0.600  -0.588  -0.582  -0.572  -0.566  -0.562
 -0.541  -0.539  -0.536  -0.533  -0.531  -0.527  -0.524  -0.521
 -0.518  -0.512  -0.509  -0.504  -0.503  -0.500  -0.497  -0.492
 -0.490  -0.488  -0.485  -0.485  -0.473  -0.468  -0.461  -0.452
 -0.449  -0.445  -0.442  -0.441  -0.439  -0.438  -0.436  -0.434
 -0.429  -0.428  -0.427  -0.421  -0.421  -0.418  -0.415  -0.412
 -0.410  -0.403  -0.400  -0.399  -0.398  -0.396  -0.393  -0.375
 -0.374  -0.366  -0.350  -0.336  -0.326  -0.313  -0.306  -0.303
 -0.300  -0.289  -0.285  -0.282  -0.271  -0.219
 -- Virtual --
 -0.079  -0.041  -0.029  -0.016  -0.012  -0.005   0.013   0.016
  0.019   0.034   0.044   0.048   0.057   0.057   0.075   0.108
  0.113   0.119   0.128   0.130   0.132   0.138   0.148   0.149
  0.153   0.156   0.161   0.163   0.167   0.177   0.177   0.181
  0.186   0.190   0.192   0.197   0.198   0.201   0.203   0.207
  0.210   0.213   0.216   0.222   0.223   0.227   0.228   0.231
  0.236   0.236   0.241   0.242   0.245   0.250   0.252   0.253
  0.256   0.260   0.265   0.266   0.269   0.272   0.276   0.279
  0.287   0.291   0.293   0.296   0.298   0.303   0.305   0.307
  0.314   0.318   0.328   0.331   0.337   0.339   0.347   0.358
  0.359   0.369   0.373   0.377   0.381   0.384   0.393   0.399
  0.400   0.410   0.415   0.423   0.426   0.440   0.446   0.453
  0.457   0.464   0.468   0.474   0.477   0.479   0.485   0.490
  0.500   0.502   0.504   0.511   0.514   0.518   0.519   0.521
  0.522   0.527   0.531   0.533   0.538   0.539   0.546   0.547
  0.553   0.554   0.559   0.564   0.565   0.568   0.569   0.573
  0.573   0.579   0.582   0.582   0.584   0.590   0.595   0.595
  0.597   0.600   0.604   0.607   0.613   0.615   0.618   0.619
  0.622   0.624   0.625   0.630   0.632   0.634   0.634   0.642
  0.644   0.646   0.649   0.654   0.657   0.664   0.666   0.668
  0.671   0.675   0.678   0.681   0.687   0.690   0.693   0.697
  0.701   0.703   0.707   0.711   0.714   0.716   0.718   0.723
  0.726   0.732   0.736   0.742   0.746   0.747   0.753   0.756
  0.760   0.763   0.765   0.774   0.778   0.783   0.789   0.797
  0.804   0.810   0.813   0.820   0.826   0.830   0.833   0.842
  0.844   0.850   0.860   0.871   0.875   0.882   0.888   0.900
  0.907   0.908   0.919   0.921   0.926   0.934   0.940   0.941
  0.944   0.948   0.950   0.953   0.960   0.964   0.967   0.967
  0.969   0.973   0.979   0.981   0.987   0.992   0.994   1.000
  1.003   1.007   1.010   1.011   1.012   1.013   1.023   1.025
  1.030   1.035   1.041   1.043   1.047   1.051   1.053   1.056
  1.061   1.066   1.068   1.071   1.075   1.080   1.083   1.092
  1.093   1.098   1.103   1.105   1.109   1.115   1.122   1.124
  1.126   1.130   1.137   1.138   1.144   1.147   1.149   1.154
  1.160   1.167   1.176   1.178   1.187   1.189   1.199   1.206
  1.212   1.214   1.221   1.223   1.232   1.235   1.255   1.270
  1.274   1.275   1.281   1.285   1.296   1.302   1.306   1.310
  1.313   1.319   1.321   1.330   1.335   1.338   1.343   1.349
  1.354   1.362   1.364   1.373   1.378   1.386   1.392   1.399
  1.410   1.416   1.420   1.427   1.432   1.451   1.468   1.474
  1.479   1.493   1.499   1.502   1.505   1.515   1.517   1.525
  1.530   1.535   1.538   1.541   1.546   1.552   1.553   1.554
  1.560   1.564   1.571   1.572   1.576   1.583   1.591   1.594
  1.600   1.602   1.605   1.616   1.618   1.627   1.633   1.643
  1.651   1.666   1.669   1.676   1.695   1.703   1.710   1.733
  1.736   1.737   1.753   1.763   1.775   1.778   1.780   1.790
  1.800   1.807   1.812   1.822   1.827   1.832   1.834   1.839
  1.841   1.850   1.855   1.862   1.868   1.871   1.883   1.885
  1.893   1.901   1.909   1.922   1.924   1.929   1.938   1.944
  1.950   1.953   1.956   1.968   1.972   1.980   1.984   1.992
  1.997   2.003   2.011   2.015   2.020   2.021   2.028   2.037
  2.043   2.048   2.054   2.055   2.059   2.071   2.075   2.078
  2.087   2.094   2.102   2.112   2.128   2.135   2.140   2.143
  2.148   2.153   2.155   2.164   2.170   2.173   2.173   2.177
  2.185   2.191   2.198   2.200   2.211   2.218   2.222   2.229
  2.234   2.243   2.250   2.260   2.262   2.265   2.267   2.273
  2.277   2.286   2.289   2.296   2.301   2.306   2.308   2.314
  2.318   2.332   2.332   2.340   2.345   2.352   2.357   2.364
  2.369   2.371   2.375   2.378   2.386   2.390   2.399   2.407
  2.408   2.414   2.433   2.438   2.450   2.465   2.470   2.488
  2.491   2.508   2.511   2.521   2.531   2.537   2.550   2.571
  2.580   2.588   2.594   2.611   2.613   2.630   2.643   2.649
  2.655   2.669   2.680   2.685   2.689   2.696   2.705   2.711
  2.718   2.724   2.729   2.735   2.737   2.740   2.749   2.755
  2.764   2.767   2.772   2.775   2.776   2.793   2.798   2.814
  2.820   2.824   2.827   2.831   2.840   2.847   2.857   2.863
  2.872   2.880   2.892   2.894   2.898   2.917   2.922   2.942
  2.947   2.970   2.976   2.979   2.984   3.014   3.018   3.031
  3.033   3.054   3.061   3.078   3.141   3.214   3.274   3.310
  3.361   3.369   3.377   3.394   3.405   3.491   3.558   3.566
  3.588   3.644  13.198  13.251  13.263  13.336  13.363  13.419
 13.623  13.659  13.670  13.690  13.720  13.732  13.759  13.770
 13.778  13.809  13.817  13.836  13.887  13.910  13.918  13.979
 14.064  14.122  14.131  14.166  14.176  14.194  14.196  14.213
 14.222  14.246  14.254  14.270  14.272  14.283  14.319  14.389
 14.545  14.571  14.577  14.585  14.600  14.606  19.484  19.543
 19.632
 --------------------------------------------------------------
 
          Ground-State Mulliken Net Atomic Charges

     Atom                 Charge (a.u.)    Spin (a.u.)
  --------------------------------------------------------
      1 N                    -0.697058      -0.000000
      2 C                     0.311728       0.000000
      3 C                     0.316961      -0.000000
      4 C                    -0.292112      -0.000000
      5 H                     0.245640      -0.000000
      6 C                    -0.230098       0.000000
      7 H                     0.213851      -0.000000
      8 C                    -0.227715      -0.000000
      9 H                     0.209947      -0.000000
     10 C                    -0.313922       0.000000
     11 H                     0.208855       0.000000
     12 C                     0.163925      -0.000000
     13 C                    -0.307475      -0.000000
     14 H                     0.267015      -0.000000
     15 C                    -0.225168       0.000000
     16 H                     0.211199       0.000000
     17 C                    -0.229844      -0.000000
     18 H                     0.207202       0.000000
     19 C                    -0.311470      -0.000000
     20 H                     0.209343      -0.000000
     21 C                     0.149854       0.000000
     22 C                     0.180903       0.000000
     23 C                    -0.269725      -0.000000
     24 H                     0.285338      -0.000000
     25 C                    -0.211398      -0.000000
     26 H                     0.239894       0.000000
     27 C                    -0.303431      -0.000000
     28 H                     0.219458       0.000000
     29 C                     0.230166       0.000000
     30 C                     0.059300       0.000000
     31 C                    -0.515053      -0.000000
     32 H                     0.248679      -0.000000
     33 H                     0.254242       0.000000
     34 C                    -0.237247      -0.000000
     35 C                    -0.648465       0.000000
     36 H                     0.224454       0.000000
     37 H                     0.224527       0.000000
     38 H                     0.241752       0.000000
     39 C                    -0.547493       0.000000
     40 H                     0.253037      -0.000000
     41 H                     0.256838       0.000000
     42 C                     0.142492       0.000000
     43 C                    -0.314385      -0.000000
     44 H                     0.246719      -0.000000
     45 C                     0.075749       0.000000
     46 C                    -0.005535      -0.000000
     47 N                    -0.158319       0.000000
     48 C                     0.082617       0.000000
     49 C                    -0.290742       0.000000
     50 H                     0.281113      -0.000000
     51 C                     0.153985      -0.000000
     52 C                    -0.005982      -0.000000
     53 N                    -0.158581      -0.000000
     54 C                    -0.411404       0.000000
     55 C                     0.022247       0.000000
     56 C                    -0.256421      -0.000000
     57 H                     0.231540       0.000000
     58 C                    -0.240309       0.000000
     59 H                     0.232305       0.000000
     60 C                    -0.208374      -0.000000
     61 H                     0.231382      -0.000000
     62 C                    -0.325989      -0.000000
     63 H                     0.215247       0.000000
     64 C                     0.162804      -0.000000
     65 C                     0.129916       0.000000
     66 C                    -0.320296       0.000000
     67 H                     0.214635       0.000000
     68 C                    -0.216380      -0.000000
     69 H                     0.230191      -0.000000
     70 C                    -0.220481       0.000000
     71 H                     0.227470       0.000000
     72 C                    -0.283280      -0.000000
     73 H                     0.215058       0.000000
     74 C                     0.176146      -0.000000
     75 C                    -0.588619       0.000000
     76 H                     0.221262       0.000000
     77 H                     0.219064       0.000000
     78 H                     0.226721      -0.000000
  --------------------------------------------------------
  Sum of atomic charges =    -0.000000
  Sum of spin   charges =     0.000000

 -----------------------------------------------------------------
                    Cartesian Multipole Moments
 -----------------------------------------------------------------
    Charge (ESU x 10^10)
                -0.0000
    Dipole Moment (Debye)
         X       2.3336      Y      -3.4344      Z       5.4266
       Tot       6.8329
    Quadrupole Moments (Debye-Ang)
        XX    -286.4614     XY      37.5621     YY    -287.5044
        XZ     -53.0854     YZ      44.9009     ZZ    -323.8570
    Octopole Moments (Debye-Ang^2)
       XXX    1737.8008    XXY    -794.0995    XYY     689.1993
       YYY   -1568.3921    XXZ     899.1403    XYZ    -375.3726
       YYZ     772.1922    XZZ     955.4575    YZZ    -888.4177
       ZZZ    2000.6623
    Hexadecapole Moments (Debye-Ang^3)
      XXXX  -24208.6701   XXXY    8337.5238   XXYY   -7478.2045
      XYYY    7085.7028   YYYY  -14052.6551   XXXZ  -10107.7703
      XXYZ    4408.7672   XYYZ   -4170.7336   YYYZ    7402.1072
      XXZZ   -9854.4217   XYZZ    4611.7967   YYZZ   -7693.2889
      XZZZ  -10324.9690   YZZZ    8998.6874   ZZZZ  -22493.4267
 -----------------------------------------------------------------
Archival summary:
1\1\ctcp037\SP\ProcedureUnspecified\BasisUnspecified\34431\mewes\WedJan1610:06:582019WedJan1610:06:582019\0\\#,ProcedureUnspecified,BasisUnspecified,\\0,1\N\C,1,1.37384\C,1,1.37384,2,122.136\C,2,1.40906,1,119.332,3,163.32,0\H,4,1.07904,2,120.152,1,-0.016775,0\C,4,1.37266,2,119.855,1,-178.437,0\H,6,1.08031,4,119.665,2,179.212,0\C,6,1.39084,4,119.861,2,0.049043,0\H,8,1.08095,6,120.155,4,179.554,0\C,8,1.3887,6,120.256,4,-0.389228,0\H,10,1.0798,8,118.264,6,-179.303,0\C,10,1.38256,8,121.585,6,0.255864,0\C,3,1.40947,1,120.186,2,-165.723,0\H,13,1.07859,3,121.134,1,-3.27052,0\C,13,1.37206,3,119.756,1,174.578,0\H,15,1.07979,13,119.06,3,-177.723,0\C,15,1.39082,13,120.018,3,1.36994,0\H,17,1.0809,15,120.195,13,-179.205,0\C,17,1.38996,15,120.218,13,1.68141,0\H,19,1.07964,17,118.413,15,177.589,0\C,19,1.38086,17,121.505,15,-1.80931,0\C,1,1.43809,2,117.887,3,-177.295,0\C,22,1.37276,1,119.865,2,104.292,0\H,23,1.08224,22,118.557,1,-0.838526,0\C,22,1.38469,1,118.912,2,-75.4274,0\H,25,1.08245,22,121.573,1,-0.728182,0\C,25,1.3767,22,117.089,1,177.876,0\H,27,1.08279,25,118.69,22,-177.321,0\C,23,1.39733,22,122.003,1,177.609,0\C,29,1.39935,23,117.302,22,6.47204,0\C,30,1.50096,29,124.017,23,170.171,0\H,31,1.09233,30,107.855,29,-160.332,0\H,31,1.09287,30,110.885,29,83.6144,0\C,12,1.50734,10,122.696,8,-172.937,0\C,34,1.52779,12,112.159,10,-30.6133,0\H,35,1.08805,34,111.064,12,175.546,0\H,35,1.08809,34,111.135,12,58.5662,0\H,35,1.08948,34,111.948,12,-62.8489,0\C,31,1.5287,30,112.122,29,-38.6791,0\H,39,1.09109,31,109.172,30,-152.981,0\H,39,1.09781,31,108.695,30,-38.2778,0\C,39,1.49669,31,110.323,30,87.2014,0\C,42,1.36854,39,118.43,31,118.143,0\H,43,1.08421,42,118.586,39,8.94142,0\C,43,1.40565,42,123.854,39,-168.647,0\C,45,1.3998,43,119.905,42,-179.472,0\N,46,1.16174,45,178.371,43,-10.3381,0\C,45,1.44111,43,116.672,42,2.64308,0\C,48,1.39623,45,118.808,43,-4.10246,0\H,49,1.08098,48,116.023,45,-176.58,0\C,49,1.38077,48,123.914,45,2.60597,0\C,48,1.40632,45,122.408,43,175.815,0\N,52,1.15935,48,178.774,45,178.446,0\C,51,1.52676,49,118.767,48,-167.429,0\C,54,1.52852,51,111.26,49,-24.1375,0\C,55,1.38151,54,127.123,51,-64.8185,0\H,56,1.08338,55,120.385,54,2.84789,0\C,56,1.38975,55,118.759,54,-179.627,0\H,58,1.08268,56,119.735,55,-177.693,0\C,58,1.39174,56,120.392,55,0.533485,0\H,60,1.08237,58,119.641,56,-178.955,0\C,60,1.38754,58,120.705,56,-0.319842,0\H,62,1.08271,60,120.231,58,-179.109,0\C,62,1.38788,60,118.89,58,-0.121995,0\C,64,1.46,62,131.482,60,-179.849,0\C,65,1.3856,64,130.812,62,2.31182,0\H,66,1.0829,65,120.908,64,-0.061734,0\C,66,1.38755,65,118.788,64,179.005,0\H,68,1.08186,66,119.841,65,-179.233,0\C,68,1.39051,66,120.424,65,-0.179799,0\H,70,1.08226,68,119.622,66,-178.837,0\C,70,1.38849,68,120.791,66,0.219989,0\H,72,1.08189,70,120.202,68,-178.076,0\C,72,1.38213,70,118.866,68,0.026029,0\C,34,1.55307,12,106.69,10,87.9378,0\H,75,1.09,34,110.095,12,178.706,0\H,75,1.0902,34,109.999,12,-61.6181,0\H,75,1.0903,34,112.294,12,58.5175,0\\\@

 Total job time:  1351.90s(wall), 9963.44s(cpu) 
 Wed Jan 16 10:06:58 2019

        *************************************************************
        *                                                           *
        *  Thank you very much for using Q-Chem.  Have a nice day.  *
        *                                                           *
        *************************************************************


0 sent ACK to 0 
now end server 0 ... 
 
*************************************************************
Job 2 of 2 
*************************************************************
 
mFile = /cm/shared/apps/q-chem/intel/QCHEM_5.1.0_Trunk/bin/mpi/machines
Process 0 of 1 is on ctcp037 - thread support 0
initial socket setup ...start
initial socket setup ...done 
now start server 0 ... 
Q-Chem Developer Version!
                  Welcome to Q-Chem
     A Quantum Leap Into The Future Of Chemistry


 Q-Chem 5.1, Q-Chem, Inc., Pleasanton, CA (2018)

 Yihan Shao,  Zhengting Gan,  E. Epifanovsky,  A. T. B. Gilbert,  M. Wormit,  
 J. Kussmann,  A. W. Lange,  A. Behn,  Jia Deng,  Xintian Feng,  D. Ghosh,  
 M. Goldey,  P. R. Horn,  L. D. Jacobson,  I. Kaliman,  T. Kus,  A. Landau,  
 Jie Liu,  E. I. Proynov,  R. M. Richard,  R. P. Steele,  E. J. Sundstrom,  
 H. L. Woodcock III,  P. M. Zimmerman,  D. Zuev,  B. Albrecht,  E. Alguire,  
 S. A. Baeppler,  D. Barton,  Z. Benda,  Y. A. Bernard,  E. J. Berquist,  
 K. B. Bravaya,  H. Burton,  D. Casanova,  Chun-Min Chang,  Yunqing Chen,  
 A. Chien,  K. D. Closser,  M. P. Coons,  S. Coriani,  S. Dasgupta,  
 A. L. Dempwolff,  M. Diedenhofen,  Hainam Do,  R. G. Edgar,  Po-Tung Fang,  
 S. Faraji,  S. Fatehi,  Qingguo Feng,  K. D. Fenk,  J. Fosso-Tande,  
 Qinghui Ge,  A. Ghysels,  G. Gidofalvi,  J. Gomes,  J. Gonthier,  A. Gunina,  
 D. Hait,  M. W. D. Hanson-Heine,  P. H. P. Harbach,  A. W. Hauser,  
 J. E. Herr,  E. G. Hohenstein,  Z. C. Holden,  Kerwin Hui,  B. C. Huynh,  
 T.-C. Jagau,  Hyunjun Ji,  B. Kaduk,  K. Khistyaev,  Jaehoon Kim,  
 P. Klunzinger,  K. Koh,  D. Kosenkov,  L. Koulias,  T. Kowalczyk,  
 C. M. Krauter,  A. Kunitsa,  Ka Un Lao,  A. Laurent,  K. V. Lawler,  
 Joonho Lee,  D. Lefrancois,  S. Lehtola,  D. S. Levine,  Yi-Pei Li,  
 You-Sheng Lin,  Fenglai Liu,  E. Livshits,  A. Luenser,  P. Manohar,  
 E. Mansoor,  S. F. Manzer,  Shan-Ping Mao,  Yuezhi Mao,  N. Mardirossian,  
 A. V. Marenich,  T. Markovich,  L. A. Martinez-Martinez,  S. A. Maurer,  
 N. J. Mayhall,  S. C. McKenzie,  J.-M. Mewes,  A. F. Morrison,  
 J. W. Mullinax,  K. Nanda,  T. S. Nguyen-Beck,  R. Olivares-Amaya,  
 J. A. Parkhill,  T. M. Perrine,  F. Plasser,  P. Pokhilko,  S. Prager,  
 A. Prociuk,  E. Ramos,  D. R. Rehn,  F. Rob,  M. Schneider,  N. Sergueev,  
 S. M. Sharada,  S. Sharma,  D. W. Small,  T. Stauch,  T. Stein,  
 Yu-Chuan Su,  A. J. W. Thom,  A. Tkatchenko,  T. Tsuchimochi,  N. M. Tubman,  
 L. Vogt,  M. L. Vidal,  O. Vydrov,  M. A. Watson,  J. Wenzel,  
 M. de Wergifosse,  T. A. Wesolowski,  A. White,  J. Witte,  A. Yamada,  
 Jun Yang,  K. Yao,  S. Yeganeh,  S. R. Yost,  Zhi-Qiang You,  A. Zech,  
 Igor Ying Zhang,  Xing Zhang,  Yan Zhao,  Ying Zhu,  B. R. Brooks,  
 G. K. L. Chan,  C. J. Cramer,  M. S. Gordon,  W. J. Hehre,  A. Klamt,  
 M. W. Schmidt,  C. D. Sherrill,  D. G. Truhlar,  A. Aspuru-Guzik,  R. Baer,  
 A. T. Bell,  N. A. Besley,  Jeng-Da Chai,  A. E. DePrince, III,  
 R. A. DiStasio Jr.,  A. Dreuw,  B. D. Dunietz,  T. R. Furlani,  
 Chao-Ping Hsu,  Yousung Jung,  Jing Kong,  D. S. Lambrecht,  WanZhen Liang,  
 C. Ochsenfeld,  V. A. Rassolov,  L. V. Slipchenko,  J. E. Subotnik,  
 T. Van Voorhis,  J. M. Herbert,  A. I. Krylov,  P. M. W. Gill,  M. Head-Gordon

 Contributors to earlier versions of Q-Chem not listed above: 
 R. D. Adamson,  B. Austin,  J. Baker,  G. J. O. Beran,  K. Brandhorst,  
 S. T. Brown,  E. F. C. Byrd,  A. K. Chakraborty,  C.-L. Cheng,  
 Siu Hung Chien,  D. M. Chipman,  D. L. Crittenden,  H. Dachsel,  
 R. J. Doerksen,  A. D. Dutoi,  L. Fusti-Molnar,  W. A. Goddard III,  
 A. Golubeva-Zadorozhnaya,  S. R. Gwaltney,  G. Hawkins,  A. Heyden,  
 S. Hirata,  G. Kedziora,  F. J. Keil,  C. Kelley,  Jihan Kim,  R. A. King,  
 R. Z. Khaliullin,  P. P. Korambath,  W. Kurlancheek,  A. M. Lee,  M. S. Lee,  
 S. V. Levchenko,  Ching Yeh Lin,  D. Liotard,  R. C. Lochan,  I. Lotan,  
 P. E. Maslen,  N. Nair,  D. P. O'Neill,  D. Neuhauser,  E. Neuscamman,  
 C. M. Oana,  R. Olson,  B. Peters,  R. Peverati,  P. A. Pieniazek,  
 Y. M. Rhee,  J. Ritchie,  M. A. Rohrdanz,  E. Rosta,  N. J. Russ,  
 H. F. Schaefer III,  N. E. Schultz,  N. Shenvi,  A. C. Simmonett,  A. Sodt,  
 D. Stuck,  K. S. Thanthiriwatte,  V. Vanovschi,  Tao Wang,  A. Warshel,  
 C. F. Williams,  Q. Wu,  X. Xu,  W. Zhang

 Please cite Q-Chem as follows:
 Y. Shao et al., Mol. Phys. 113, 184-215 (2015)
 DOI: 10.1080/00268976.2014.952696

 Q-Chem 5.1.1 for Intel X86 EM64T Linux

 Parts of Q-Chem use Armadillo 8.300.2 (Tropical Shenanigans).
 http://arma.sourceforge.net/

 Q-Chem begins on Wed Jan 16 10:07:01 2019  

Host: ctcp037
0

     Scratch files written to /scratch/mewes/143476/qchem1413//
 Parallel job on  1  processors
The previous job contains 0 fragments, simply inherited here
Symmetry turned off for PCM/SM12/SMD calculation
Input Ideriv = 2
Curr. Ideriv = -1
Max.  Ideriv = 2
Input Ideriv = 2
Curr. Ideriv = 2
Max.  Ideriv = 2

Checking the input file for inconsistencies... 	...done.

--------------------------------------------------------------
User input:
--------------------------------------------------------------

$rem
threads 8
jobtype opt
method PBEh-3c
basis def2-mSVP
scf_guess	read
mem_static      1024
mem_total       8000
sym_ignore      true
unrestricted true
mom_start       1
scf_algorithm	diis
scf_max_cycles	250
solvent_method	pcm
geom_opt_tol_energy 25
geom_opt_tol_gradient 75
$end

$solvent
dielectric      1.0001
$end

$pcm
theory iefpcm
$end

$occupied
1 2 3 4 5 6 7 8 9 10 11 12 13 14 15 16 17 18 19 20 21 22 23 24 25 26 27 28 29 30 31 32 33 34 35 36 37 38 39 40 41 42 43 44 45 46 47 48 49 50 51 52 53 54 55 56 57 58 59 60 61 62 63 64 65 66 67 68 69 70 71 72 73 74 75 76 77 78 79 80 81 82 83 84 85 86 87 88 89 90 91 92 93 94 95 96 97 98 99 100 101 102 103 104 105 106 107 108 109 110 111 112 113 114 115 116 117 118 119 120 121 122 123 124 125 126 127 128 129 130 131 132 133 134 135 136 137 138 139 140 141 142 143 144 145 146 147 148 149 150 151 152 153 154 155 156 158 159
1 2 3 4 5 6 7 8 9 10 11 12 13 14 15 16 17 18 19 20 21 22 23 24 25 26 27 28 29 30 31 32 33 34 35 36 37 38 39 40 41 42 43 44 45 46 47 48 49 50 51 52 53 54 55 56 57 58 59 60 61 62 63 64 65 66 67 68 69 70 71 72 73 74 75 76 77 78 79 80 81 82 83 84 85 86 87 88 89 90 91 92 93 94 95 96 97 98 99 100 101 102 103 104 105 106 107 108 109 110 111 112 113 114 115 116 117 118 119 120 121 122 123 124 125 126 127 128 129 130 131 132 133 134 135 136 137 138 139 140 141 142 143 144 145 146 147 148 149 150 151 152 153 154 155 156 157 158
$end

$molecule
read incoords.mol
$end

--------------------------------------------------------------
 Adding empirical dispersion correction 
 ----------------------------------------------------------------
 Doing -D3(BJ) with
 s6 =   1.00000
 s8 =   0.00000
 a1 =   0.48600
 a2 =   4.50000
 -D3 energy including 3body term =     -0.0786436726 hartrees
 ----------------------------------------------------------------
 Adding gCP correction 
 ----------------------------------------------------------------
 gCP energy =      0.1095195205 hartrees
 ----------------------------------------------------------------
             Standard Nuclear Orientation (Angstroms)
    I     Atom           X                Y                Z
 ----------------------------------------------------------------
    1      N       0.0000000000     0.0000000000     0.0000000000
    2      C       0.0000000000     0.0000000000     1.3738420000
    3      C       1.1633572231     0.0000000000    -0.7307854048
    4      C      -1.1767290887     0.3525793702     2.0641012234
    5      H      -2.0671155341     0.6196480320     1.5161915620
    6      C      -1.1796200483     0.3873531427     3.4363216445
    7      H      -2.0798861477     0.6704657286     3.9620911651
    8      C      -0.0208160337     0.0754302211     4.1393957887
    9      H      -0.0157560093     0.1082868727     5.2198304658
   10      C       1.1366278619    -0.2788175561     3.4587177382
   11      H       2.0145307119    -0.5257669053     4.0368773055
   12      C       1.1782302992    -0.3279531376     2.0776536029
   13      C       1.1354102662     0.3004476836    -2.1075752217
   14      H       0.2038722316     0.4825686260    -2.6198413751
   15      C       2.3120145347     0.4076539097    -2.8051838971
   16      H       2.2792760865     0.6746920487    -3.8509185438
   17      C       3.5253284265     0.1920739350    -2.1603863938
   18      H       4.4545445958     0.2883642421    -2.7041033567
   19      C       3.5499700530    -0.1664501536    -0.8176889186
   20      H       4.5057018271    -0.3651830586    -0.3564875557
   21      C       2.3882330204    -0.2823854282    -0.0803340965
   22      C      -1.2696777214     0.0599917706    -0.6726341505
   23      C      -1.6814575326     1.2343533546    -1.2521132288
   24      H      -1.0388289305     2.1018353956    -1.1763340962
   25      C      -2.0585806370    -1.0771505610    -0.7161955503
   26      H      -1.7364130297    -2.0079753928    -0.2673522108
   27      C      -3.2857000155    -0.9656820962    -1.3302374398
   28      H      -3.9420343132    -1.8268141669    -1.3403551557
   29      C      -2.8832053228     1.3299768767    -1.9586367927
   30      C      -3.7289579772     0.2152778247    -1.9403476996
   31      C      -5.1365156421     0.2205481533    -2.4615449492
   32      H      -5.6615620324    -0.6277427210    -2.0166626462
   33      H      -5.1523654060     0.0593901974    -3.5423520184
   34      C       2.3676805458    -0.8561006163     1.3171575240
   35      C       3.6799868791    -0.6185484794     2.0625187477
   36      H       4.5163949388    -1.0744915396     1.5367862698
   37      H       3.6646806411    -1.0889594855     3.0435538814
   38      H       3.8879661645     0.4429425871     2.1926948749
   39      C      -5.8652804281     1.5248418089    -2.1380771657
   40      H      -6.9376622123     1.3316835166    -2.0818420436
   41      H      -5.5714030344     1.8520151223    -1.1322019807
   42      C      -5.6075470575     2.5426342779    -3.2047364065
   43      C      -6.6710819858     3.0159590106    -3.9242834426
   44      H      -7.6727611130     2.7526499797    -3.6036266589
   45      C      -6.5449877745     3.7891333936    -5.0913943727
   46      C      -7.6908803557     4.2399577114    -5.7570685179
   47      N      -8.6602100417     4.5944295539    -6.2903590525
   48      C      -5.2056084971     4.0343521980    -5.5633512908
   49      C      -4.1292590689     3.5747003909    -4.8020035794
   50      H      -3.1452481815     3.8326337690    -5.1676831059
   51      C      -4.2651008900     2.8464054244    -3.6368172277
   52      C      -4.9428549831     4.7182953685    -6.7637338435
   53      N      -4.7019351437     5.2799267038    -7.7489368348
   54      C      -3.0410108466     2.6510562714    -2.7455079298
   55      C      -1.7456667902     2.7832536110    -3.5461246566
   56      C      -1.3054316127     1.9571001808    -4.5621162433
   57      H      -1.9196951794     1.1322185375    -4.9026493102
   58      C      -0.0876017496     2.2363238666    -5.1706633824
   59      H       0.2549707226     1.6216513226    -5.9934755801
   60      C       0.6755837072     3.3225966126    -4.7529217661
   61      H       1.6141456522     3.5389126360    -5.2467147445
   62      C       0.2327264540     4.1477256334    -3.7290505075
   63      H       0.8258558714     4.9991249983    -3.4198907996
   64      C      -0.9877983437     3.8740263001    -3.1277053389
   65      C      -1.7075439618     4.5469023818    -2.0502951181
   66      C      -1.4001693770     5.6916682543    -1.3327240505
   67      H      -0.4931165294     6.2477854481    -1.5343864061
   68      C      -2.2871597863     6.1283369684    -0.3591355590
   69      H      -2.0701474311     7.0270359161     0.2027107066
   70      C      -3.4637351048     5.4290349511    -0.1138721403
   71      H      -4.1553206770     5.7917416427     0.6354251661
   72      C      -3.7714597668     4.2814503326    -0.8323783859
   73      H      -4.7039756419     3.7622284013    -0.6554479664
   74      C      -2.8866873996     3.8421437181    -1.7990587330
   75      C       2.1582071748    -2.3878543870     1.1692463428
   76      H       2.9809558047    -2.8254803805     0.6038484990
   77      H       2.1238764372    -2.8562087270     2.1531170928
   78      H       1.2301578260    -2.6302455481     0.6508594013
 ----------------------------------------------------------------
 Nuclear Repulsion Energy =  5553.7336717546 hartrees
 There are      158 alpha and      158 beta electrons
 Requested basis set is def2-mSVP
 There are 391 shells and 767 basis functions

 Total QAlloc Memory Limit   8000 MB
 Mega-Array Size      1001 MB
 MEM_STATIC part      1024 MB
 Discretize the solute cavity surface with Lebedev spheres
	Using 302 Lebedev grid points for each H atom
	Using 302 Lebedev grid points for other atoms
	Atomic van der Waals radii will be scaled by 1.20
 Remove points where switching function is < 1.0e-08
 Keep 7986 surface tesserae and discard 15570 interior tesserae
 Molecular Surface Area = 610.243 Angst**2
 A cutoff of  1.0D-11 yielded  35097 shell pairs
 There are    140985 function pairs (    155664 Cartesian)
 
 -------------------------------------------------------
 OpenMP Integral Computing Module                       
 Release: version 1.0, May 2013, Q-Chem Inc. Pittsburgh 
 -------------------------------------------------------
 Integral Job Info:
 Integral job number is                      11
 Integral operator is                         1
 short-range coefficients                     0
 long-range coefficients              100000000
 Omega coefficients                           0
 if combine SR and LR in K                    0
 Integral screening is                        0
 Integral computing path is                   2
 max size of driver memory is            800000
 size of driver memory is                593474
 size of scratch memory is              1809772
 max col of scratch BK array               1296
 max len of scratch array in speh3          155
 max len of scratch index in speh4           18
 max int batch size is                      520
 min int batch size is                       52
 fixed nKL is                                52
 max L of basis functions is                  2
 order of int derivative is                   0
 number of shells is                        391
 number of basis is                         814
 number of cartesian basis is               814
 number of contracted shell pairs         35097
 number of primitive shell pairs          73511
 maxK2 (contraction) of shell pair           25
 max number of K2 of shell pair               1
 max number of CS2 of shell pair           8337
 max number of PS2 of shell pair          13125
 mem total for path MDJ                  883084
 -------------------------------------------------------
 Smallest overlap matrix eigenvalue = 2.82E-04

 Scale SEOQF with 1.000000e-02/1.000000e-02/1.000000e-02

 Standard Electronic Orientation quadrupole field applied
 Nucleus-field energy     =    -0.0000000042 hartrees
 Guess MOs from SCF MO coefficient file
 Reading MOs from coefficient file
 User-specified occupied guess orbitals will be used
   Alpha:
   1   2   3   4   5   6   7   8   9  10  11  12  13  14  15
  16  17  18  19  20  21  22  23  24  25  26  27  28  29  30
  31  32  33  34  35  36  37  38  39  40  41  42  43  44  45
  46  47  48  49  50  51  52  53  54  55  56  57  58  59  60
  61  62  63  64  65  66  67  68  69  70  71  72  73  74  75
  76  77  78  79  80  81  82  83  84  85  86  87  88  89  90
  91  92  93  94  95  96  97  98  99 100 101 102 103 104 105
 106 107 108 109 110 111 112 113 114 115 116 117 118 119 120
 121 122 123 124 125 126 127 128 129 130 131 132 133 134 135
 136 137 138 139 140 141 142 143 144 145 146 147 148 149 150
 151 152 153 154 155 156 158 159
 Reading MOs from coefficient file
   Beta:
   1   2   3   4   5   6   7   8   9  10  11  12  13  14  15
  16  17  18  19  20  21  22  23  24  25  26  27  28  29  30
  31  32  33  34  35  36  37  38  39  40  41  42  43  44  45
  46  47  48  49  50  51  52  53  54  55  56  57  58  59  60
  61  62  63  64  65  66  67  68  69  70  71  72  73  74  75
  76  77  78  79  80  81  82  83  84  85  86  87  88  89  90
  91  92  93  94  95  96  97  98  99 100 101 102 103 104 105
 106 107 108 109 110 111 112 113 114 115 116 117 118 119 120
 121 122 123 124 125 126 127 128 129 130 131 132 133 134 135
 136 137 138 139 140 141 142 143 144 145 146 147 148 149 150
 151 152 153 154 155 156 157 158
 An unrestricted hybrid HF-DFT SCF calculation will be
 performed using Pulay DIIS extrapolation
 Polarizable Continuum solvation model will be applied
 Exchange:     0.4200 Hartree-Fock + 0.5800 PBEh-3c
 Correlation:  1.0000 PBEh-3c
 Using SG-1 standard quadrature grid
 Dispersion:   Grimme D3
 SCF converges when DIIS error is below 1.0E-08
 using 8 threads for integral computing
 -------------------------------------------------------
 OpenMP Integral computing Module                
 Release: version 2.0, May 2017, Q-Chem Inc. Pleasanton 
 -------------------------------------------------------
 -------------------------------------------------------
 OpenMP BLAS3 based DFT computing Module                
 Release: version 1.0, May 2013, Q-Chem Inc. Pittsburgh 
 -------------------------------------------------------
 MOM overlap:    157.1497559246 / 158
 MOM overlap:    157.8986769133 / 158
 ---------------------------------------
  Cycle       Energy         DIIS Error
 ---------------------------------------
    1   -1855.3100717789      6.70E-04
 Using non-symmetric K matrix
 MOM overlap:    157.1924750215 / 158
 MOM overlap:    157.9613796355 / 158
    2   -1855.1660349848      1.24E-03
 MOM overlap:    157.9834679071 / 158
 MOM overlap:    157.9982692030 / 158
    3   -1855.3615346256      2.27E-04
 MOM overlap:    157.9304803155 / 158
 MOM overlap:    157.9992975101 / 158
    4   -1855.3680449126      7.37E-05
 MOM overlap:    157.9972627564 / 158
 MOM overlap:    157.9999353244 / 158
    5   -1855.3720809788      1.08E-04
 MOM overlap:    157.9998661649 / 158
 MOM overlap:    157.9999990338 / 158
    6   -1855.3732016859      9.78E-05
 MOM overlap:    157.9865140503 / 158
 MOM overlap:    157.9996197643 / 158
    7   -1855.3730332098      9.59E-05
 MOM overlap:    157.9704815600 / 158
 MOM overlap:    157.9998001086 / 158
    8   -1855.3708748612      1.16E-04
 MOM overlap:    157.9924288418 / 158
 MOM overlap:    157.9973843874 / 158
    9   -1855.3690746367      1.14E-04
 MOM overlap:    157.9685442578 / 158
 MOM overlap:    157.9991289442 / 158
   10   -1855.3688378149      1.59E-04
 MOM overlap:    157.9722277983 / 158
 MOM overlap:    157.9998631329 / 158
   11   -1855.3725145730      7.93E-05
 MOM overlap:    157.9817520773 / 158
 MOM overlap:    157.9998718541 / 158
   12   -1855.3743176848      1.24E-04
 MOM overlap:    157.9953678371 / 158
 MOM overlap:    157.9998984872 / 158
   13   -1855.3727210170      9.26E-05
 MOM overlap:    157.9939681639 / 158
 MOM overlap:    157.9999452223 / 158
   14   -1855.3715556315      9.98E-05
 MOM overlap:    157.8894031526 / 158
 MOM overlap:    157.9993733239 / 158
   15   -1855.3706185574      9.86E-05
 MOM overlap:    157.8325650568 / 158
 MOM overlap:    157.9998060417 / 158
   16   -1855.3679375214      1.55E-04
 MOM overlap:    157.9998318054 / 158
 MOM overlap:    157.9999663430 / 158
   17   -1855.3694407697      1.73E-04
 MOM overlap:    157.9891318626 / 158
 MOM overlap:    157.9998615362 / 158
   18   -1855.3684643003      1.99E-04
 MOM overlap:    157.9929433497 / 158
 MOM overlap:    157.9999386101 / 158
   19   -1855.3700191855      1.27E-04
 MOM overlap:    157.9996512563 / 158
 MOM overlap:    157.9999815576 / 158
   20   -1855.3694443075      1.23E-04
 MOM overlap:    157.9991830309 / 158
 MOM overlap:    157.9999736027 / 158
   21   -1855.3697952886      1.13E-04
 MOM overlap:    157.9948252359 / 158
 MOM overlap:    157.9999497462 / 158
   22   -1855.3701453175      1.00E-04
 MOM overlap:    157.9951053824 / 158
 MOM overlap:    157.9999316266 / 158
   23   -1855.3701956658      9.40E-05
 MOM overlap:    157.9984833911 / 158
 MOM overlap:    157.9999660680 / 158
   24   -1855.3704819573      8.45E-05
 MOM overlap:    157.9998963056 / 158
 MOM overlap:    157.9999931057 / 158
   25   -1855.3706431591      8.21E-05
 MOM overlap:    157.9945808466 / 158
 MOM overlap:    157.9998883541 / 158
   26   -1855.3705438761      8.94E-05
 MOM overlap:    157.9990490811 / 158
 MOM overlap:    157.9999715739 / 158
   27   -1855.3700093274      1.01E-04
 MOM overlap:    157.9802174845 / 158
 MOM overlap:    157.9995070694 / 158
   28   -1855.3701433507      9.09E-05
 MOM overlap:    157.9988079775 / 158
 MOM overlap:    157.9999970639 / 158
   29   -1855.3715324759      4.51E-05
 MOM overlap:    157.9148687920 / 158
 MOM overlap:    157.9998785621 / 158
   30   -1855.3713583081      4.13E-05
 MOM overlap:    157.9589029446 / 158
 MOM overlap:    157.9999473363 / 158
   31   -1855.3714735903      7.18E-05
 MOM overlap:    157.8288990640 / 158
 MOM overlap:    157.9997185090 / 158
   32   -1855.3730706869      1.24E-04
 MOM overlap:    157.9878861747 / 158
 MOM overlap:    157.9998172489 / 158
   33   -1855.3704498747      8.24E-05
 MOM overlap:    157.9834637447 / 158
 MOM overlap:    157.9999740190 / 158
   34   -1855.3713798018      5.60E-05
 MOM overlap:    157.9779545243 / 158
 MOM overlap:    157.9989804729 / 158
   35   -1855.3720809455      8.81E-05
 MOM overlap:    157.9947093250 / 158
 MOM overlap:    157.9999719934 / 158
   36   -1855.3702473883      1.45E-04
 MOM overlap:    157.9944435848 / 158
 MOM overlap:    157.9998663995 / 158
   37   -1855.3707288245      1.53E-04
 MOM overlap:    157.9941271697 / 158
 MOM overlap:    157.9998926284 / 158
   38   -1855.3720442803      1.42E-04
 MOM overlap:    157.9996397724 / 158
 MOM overlap:    157.9999951982 / 158
   39   -1855.3732293469      1.42E-04
 MOM overlap:    157.9979955627 / 158
 MOM overlap:    157.9999457008 / 158
   40   -1855.3731522150      1.50E-04
 MOM overlap:    157.9774679458 / 158
 MOM overlap:    157.9993822754 / 158
   41   -1855.3731763239      1.50E-04
 MOM overlap:    157.9977364337 / 158
 MOM overlap:    157.9999688322 / 158
   42   -1855.3705714177      2.04E-04
 MOM overlap:    157.9957391629 / 158
 MOM overlap:    157.9998480743 / 158
   43   -1855.3709368770      2.13E-04
 MOM overlap:    157.9800878792 / 158
 MOM overlap:    157.9999700388 / 158
   44   -1855.3692779586      2.28E-04
 MOM overlap:    157.9984608927 / 158
 MOM overlap:    157.9998795440 / 158
   45   -1855.3695857245      1.75E-04
 MOM overlap:    157.9875566533 / 158
 MOM overlap:    157.9995862289 / 158
   46   -1855.3707410235      1.51E-04
 MOM overlap:    157.8717674088 / 158
 MOM overlap:    157.9993855716 / 158
   47   -1855.3719638616      1.10E-04
 MOM overlap:    157.9193381120 / 158
 MOM overlap:    157.9999820313 / 158
   48   -1855.3719687153      1.47E-05
 MOM overlap:    157.8720419527 / 158
 MOM overlap:    157.9998482019 / 158
   49   -1855.3728181806      1.89E-05
 MOM overlap:    157.9973522430 / 158
 MOM overlap:    157.9999411957 / 158
   50   -1855.3725146176      3.01E-05
 MOM overlap:    157.9976454639 / 158
 MOM overlap:    157.9999444115 / 158
   51   -1855.3723710042      1.52E-05
 MOM overlap:    157.9829861561 / 158
 MOM overlap:    157.9999392936 / 158
   52   -1855.3726489845      2.44E-05
 MOM overlap:    157.9991608307 / 158
 MOM overlap:    157.9999994953 / 158
   53   -1855.3739567054      4.35E-05
 MOM overlap:    157.9993838437 / 158
 MOM overlap:    157.9999823392 / 158
   54   -1855.3736408272      3.58E-05
 MOM overlap:    157.9905035780 / 158
 MOM overlap:    157.9999721063 / 158
   55   -1855.3734607395      3.09E-05
 MOM overlap:    157.9997681439 / 158
 MOM overlap:    157.9999984422 / 158
   56   -1855.3745948352      5.27E-05
 MOM overlap:    157.9993514925 / 158
 MOM overlap:    157.9999996515 / 158
   57   -1855.3747750476      5.73E-05
 MOM overlap:    157.9708582015 / 158
 MOM overlap:    157.9999763165 / 158
   58   -1855.3744891613      4.80E-05
 MOM overlap:    157.9983687677 / 158
 MOM overlap:    157.9999239813 / 158
   59   -1855.3725978450      2.89E-05
 MOM overlap:    157.9987371843 / 158
 MOM overlap:    157.9999437007 / 158
   60   -1855.3727974580      2.65E-05
 MOM overlap:    157.9515690377 / 158
 MOM overlap:    157.9998796282 / 158
   61   -1855.3727908709      2.95E-05
 MOM overlap:    157.9920911536 / 158
 MOM overlap:    157.9999873577 / 158
   62   -1855.3719107435      4.53E-05
 MOM overlap:    157.9914350453 / 158
 MOM overlap:    157.9999753136 / 158
   63   -1855.3722687830      5.21E-05
 MOM overlap:    157.9891729945 / 158
 MOM overlap:    157.9999366609 / 158
   64   -1855.3729153239      6.52E-05
 MOM overlap:    157.9979114454 / 158
 MOM overlap:    157.9999900525 / 158
   65   -1855.3721509922      5.40E-05
 MOM overlap:    157.9954373160 / 158
 MOM overlap:    157.9999806432 / 158
   66   -1855.3721893750      7.58E-05
 MOM overlap:    157.9915563031 / 158
 MOM overlap:    157.9999924292 / 158
   67   -1855.3724076907      1.00E-04
 MOM overlap:    157.9979110912 / 158
 MOM overlap:    157.9999912327 / 158
   68   -1855.3719139213      7.99E-05
 MOM overlap:    157.9990195767 / 158
 MOM overlap:    157.9999738771 / 158
   69   -1855.3719159057      9.87E-05
 MOM overlap:    157.9988815449 / 158
 MOM overlap:    157.9999907353 / 158
   70   -1855.3715179033      1.04E-04
 MOM overlap:    157.9998278147 / 158
 MOM overlap:    157.9999910217 / 158
   71   -1855.3713010464      1.03E-04
 MOM overlap:    157.9983124570 / 158
 MOM overlap:    157.9999850582 / 158
   72   -1855.3712991715      1.04E-04
 MOM overlap:    157.8317140129 / 158
 MOM overlap:    157.9992389068 / 158
   73   -1855.3712384849      9.79E-05
 MOM overlap:    157.9135938776 / 158
 MOM overlap:    157.9998907714 / 158
   74   -1855.3739132216      7.69E-05
 MOM overlap:    157.7987863940 / 158
 MOM overlap:    157.9997214732 / 158
   75   -1855.3750571692      2.07E-04
 MOM overlap:    157.9930110044 / 158
 MOM overlap:    157.9998182799 / 158
   76   -1855.3724442721      4.66E-05
 MOM overlap:    157.9997178628 / 158
 MOM overlap:    157.9999966844 / 158
   77   -1855.3732707518      2.17E-05
 MOM overlap:    157.9945973993 / 158
 MOM overlap:    157.9999904645 / 158
   78   -1855.3731117906      2.17E-05
 MOM overlap:    157.9994245485 / 158
 MOM overlap:    157.9999922431 / 158
   79   -1855.3725421158      1.13E-05
 MOM overlap:    157.9983464959 / 158
 MOM overlap:    157.9999858298 / 158
   80   -1855.3724081396      8.71E-06
 MOM overlap:    157.9975079862 / 158
 MOM overlap:    157.9999990059 / 158
   81   -1855.3722253702      1.11E-05
 MOM overlap:    157.9978347877 / 158
 MOM overlap:    157.9999863011 / 158
   82   -1855.3724443012      1.57E-05
 MOM overlap:    157.9992286803 / 158
 MOM overlap:    157.9999981433 / 158
   83   -1855.3726481852      3.44E-05
 MOM overlap:    157.9995172915 / 158
 MOM overlap:    157.9999991361 / 158
   84   -1855.3724834617      2.80E-05
 MOM overlap:    157.9974095514 / 158
 MOM overlap:    157.9999932459 / 158
   85   -1855.3723617427      2.58E-05
 MOM overlap:    157.9982613953 / 158
 MOM overlap:    157.9999949771 / 158
   86   -1855.3721999823      1.31E-05
 MOM overlap:    157.9979395001 / 158
 MOM overlap:    157.9999894506 / 158
   87   -1855.3721333911      9.45E-06
 MOM overlap:    157.9935605427 / 158
 MOM overlap:    157.9999885757 / 158
   88   -1855.3721668020      5.47E-06
 MOM overlap:    157.9990283713 / 158
 MOM overlap:    157.9999986671 / 158
   89   -1855.3724619676      1.05E-05
 MOM overlap:    157.9998920074 / 158
 MOM overlap:    157.9999999236 / 158
   90   -1855.3726562674      1.42E-05
 MOM overlap:    157.9405983143 / 158
 MOM overlap:    157.9999882165 / 158
   91   -1855.3725880020      1.26E-05
 MOM overlap:    157.9970768788 / 158
 MOM overlap:    157.9999972115 / 158
   92   -1855.3725110361      8.21E-06
 MOM overlap:    157.9982904432 / 158
 MOM overlap:    157.9999823643 / 158
   93   -1855.3722638898      3.83E-06
 MOM overlap:    157.9987269742 / 158
 MOM overlap:    157.9999989995 / 158
   94   -1855.3721695224      8.47E-06
 MOM overlap:    157.9994949735 / 158
 MOM overlap:    157.9999988567 / 158
   95   -1855.3721576669      9.10E-06
 MOM overlap:    157.9984206455 / 158
 MOM overlap:    157.9999944556 / 158
   96   -1855.3721564906      9.23E-06
 MOM overlap:    157.9994198852 / 158
 MOM overlap:    157.9999972588 / 158
   97   -1855.3722267146      7.05E-06
 MOM overlap:    157.9999477274 / 158
 MOM overlap:    157.9999994068 / 158
   98   -1855.3721787021      7.25E-06
 MOM overlap:    157.9999155504 / 158
 MOM overlap:    157.9999976699 / 158
   99   -1855.3721714361      6.41E-06
 MOM overlap:    157.9992836583 / 158
 MOM overlap:    157.9999995550 / 158
  100   -1855.3721661231      5.04E-06
 MOM overlap:    157.9995450944 / 158
 MOM overlap:    157.9999996620 / 158
  101   -1855.3721727935      3.20E-06
 MOM overlap:    157.9999643081 / 158
 MOM overlap:    157.9999994668 / 158
  102   -1855.3721663742      2.22E-06
 MOM overlap:    157.9999866879 / 158
 MOM overlap:    157.9999997994 / 158
  103   -1855.3721690616      1.08E-06
 MOM overlap:    157.9999611196 / 158
 MOM overlap:    157.9999989030 / 158
  104   -1855.3721679075      3.91E-07
 MOM overlap:    157.9999931619 / 158
 MOM overlap:    157.9999996150 / 158
  105   -1855.3721672629      6.61E-07
 MOM overlap:    157.9999989114 / 158
 MOM overlap:    157.9999998626 / 158
  106   -1855.3721674681      7.37E-07
 MOM overlap:    157.9999997855 / 158
 MOM overlap:    157.9999998824 / 158
  107   -1855.3721675824      1.90E-07
 MOM overlap:    157.9999989411 / 158
 MOM overlap:    157.9999999897 / 158
  108   -1855.3721676211      8.97E-08
 MOM overlap:    157.9999998270 / 158
 MOM overlap:    157.9999999988 / 158
  109   -1855.3721675817      1.25E-07
 MOM overlap:    157.9999999917 / 158
 MOM overlap:    157.9999999993 / 158
  110   -1855.3721675824      2.23E-08
 MOM overlap:    157.9999999953 / 158
 MOM overlap:    157.9999999994 / 158
  111   -1855.3721675808      9.26E-09 Convergence criterion met
 ---------------------------------------

************** Final PCM Free Energy Summary **************
 G_electrostatic  =      -0.00000261 hartree =      -0.00163742 kcal/mol
 G_cavitation     =       0.00000000 hartree =       0.00000000 kcal/mol
 G_dispersion     =       0.00000000 hartree =       0.00000000 kcal/mol
 G_repulsion      =       0.00000000 hartree =       0.00000000 kcal/mol
 --------------------------------------------------
 Non-electrostatic Free Energy =       0.00000000 hartree =       0.00000000 kcal/mol
 Total                         =      -0.00000261 hartree =      -0.00163742 kcal/mol
 --------------------------------------------------
 SCF Energy (H0 + V/2)                       =   -1855.37216758 
 Solute Internal Energy (H0)                 =   -1855.37216497 
 Total Free Energy (H0 + V/2 + non-elec)     =   -1855.37216758 hartree
                                             = -1164263.60738678 kcal/mol
***********************************************************

 <S^2> = 1.0102
 SCF time:  CPU 30862.44 s  wall 6555.03 s
 SCF   energy in the final basis set = -1855.37216758
 Total energy in the final basis set = -1855.37216758
 
 --------------------------------------------------------------
 
                    Orbital Energies (a.u.)
 --------------------------------------------------------------
 
 Alpha MOs
 -- Occupied --
-14.687 -14.628 -14.626 -10.522 -10.506 -10.506 -10.504 -10.502
-10.501 -10.499 -10.497 -10.495 -10.491 -10.491 -10.490 -10.490
-10.490 -10.489 -10.489 -10.488 -10.487 -10.486 -10.486 -10.485
-10.478 -10.475 -10.474 -10.472 -10.472 -10.472 -10.471 -10.471
-10.468 -10.467 -10.465 -10.456 -10.456 -10.448 -10.448 -10.448
-10.448 -10.446 -10.445 -10.441 -10.441 -10.435 -10.431  -1.104
 -1.050  -1.007  -0.997  -0.991  -0.989  -0.979  -0.963  -0.962
 -0.946  -0.924  -0.915  -0.912  -0.883  -0.878  -0.876  -0.871
 -0.855  -0.847  -0.843  -0.842  -0.824  -0.809  -0.796  -0.776
 -0.768  -0.760  -0.733  -0.726  -0.718  -0.712  -0.709  -0.699
 -0.694  -0.693  -0.683  -0.675  -0.660  -0.638  -0.623  -0.623
 -0.621  -0.614  -0.602  -0.593  -0.580  -0.577  -0.571  -0.561
 -0.552  -0.545  -0.543  -0.539  -0.535  -0.532  -0.528  -0.527
 -0.525  -0.522  -0.514  -0.511  -0.510  -0.505  -0.501  -0.497
 -0.495  -0.491  -0.488  -0.477  -0.475  -0.470  -0.461  -0.458
 -0.454  -0.451  -0.450  -0.448  -0.444  -0.437  -0.435  -0.434
 -0.433  -0.430  -0.426  -0.421  -0.416  -0.414  -0.413  -0.408
 -0.406  -0.405  -0.404  -0.402  -0.381  -0.380  -0.375  -0.371
 -0.368  -0.366  -0.364  -0.339  -0.326  -0.314  -0.312  -0.309
 -0.297  -0.292  -0.289  -0.277  -0.226  -0.142
 -- Virtual --
 -0.223  -0.053  -0.031  -0.021  -0.018  -0.002   0.003   0.008
  0.012   0.027   0.032   0.050   0.074   0.081   0.087   0.111
  0.115   0.118   0.129   0.130   0.133   0.136   0.141   0.142
  0.148   0.150   0.155   0.158   0.169   0.170   0.172   0.173
  0.179   0.186   0.187   0.191   0.193   0.195   0.195   0.202
  0.204   0.210   0.212   0.216   0.218   0.225   0.227   0.230
  0.232   0.233   0.235   0.238   0.244   0.247   0.250   0.251
  0.253   0.257   0.260   0.260   0.263   0.265   0.268   0.274
  0.283   0.287   0.289   0.291   0.293   0.295   0.298   0.307
  0.314   0.317   0.322   0.328   0.330   0.336   0.344   0.351
  0.353   0.366   0.367   0.374   0.378   0.386   0.390   0.395
  0.399   0.403   0.413   0.426   0.435   0.439   0.442   0.450
  0.459   0.462   0.466   0.470   0.473   0.483   0.491   0.493
  0.496   0.501   0.502   0.509   0.511   0.514   0.521   0.522
  0.523   0.525   0.527   0.533   0.534   0.538   0.539   0.547
  0.549   0.551   0.555   0.557   0.559   0.562   0.563   0.567
  0.570   0.573   0.577   0.578   0.582   0.584   0.586   0.590
  0.593   0.597   0.600   0.601   0.606   0.609   0.610   0.614
  0.616   0.617   0.624   0.625   0.627   0.631   0.633   0.635
  0.639   0.642   0.644   0.646   0.649   0.654   0.656   0.664
  0.668   0.671   0.678   0.679   0.686   0.690   0.691   0.692
  0.698   0.705   0.706   0.716   0.717   0.719   0.720   0.724
  0.730   0.733   0.739   0.740   0.741   0.747   0.751   0.752
  0.754   0.756   0.761   0.766   0.771   0.778   0.787   0.791
  0.799   0.806   0.812   0.819   0.825   0.829   0.832   0.837
  0.844   0.849   0.856   0.868   0.869   0.881   0.884   0.892
  0.903   0.908   0.911   0.923   0.926   0.931   0.934   0.938
  0.940   0.943   0.949   0.954   0.955   0.958   0.963   0.966
  0.968   0.975   0.979   0.983   0.985   0.990   0.991   0.993
  0.998   1.002   1.003   1.005   1.011   1.014   1.018   1.022
  1.025   1.030   1.033   1.037   1.044   1.046   1.049   1.052
  1.056   1.060   1.065   1.069   1.074   1.076   1.082   1.083
  1.089   1.096   1.099   1.101   1.109   1.111   1.114   1.119
  1.123   1.129   1.132   1.134   1.139   1.142   1.147   1.153
  1.155   1.163   1.174   1.176   1.186   1.190   1.194   1.203
  1.209   1.211   1.217   1.227   1.234   1.239   1.248   1.261
  1.268   1.272   1.279   1.285   1.287   1.292   1.296   1.304
  1.313   1.315   1.322   1.327   1.330   1.334   1.338   1.345
  1.354   1.362   1.368   1.372   1.376   1.388   1.390   1.402
  1.406   1.419   1.423   1.429   1.434   1.451   1.462   1.466
  1.476   1.482   1.490   1.495   1.504   1.507   1.510   1.511
  1.514   1.521   1.526   1.532   1.539   1.546   1.548   1.553
  1.560   1.563   1.565   1.571   1.581   1.585   1.589   1.594
  1.600   1.608   1.610   1.622   1.624   1.634   1.639   1.644
  1.651   1.660   1.678   1.688   1.691   1.696   1.725   1.726
  1.730   1.739   1.750   1.769   1.773   1.781   1.792   1.794
  1.799   1.801   1.807   1.809   1.819   1.834   1.836   1.841
  1.846   1.848   1.857   1.861   1.863   1.870   1.877   1.884
  1.889   1.904   1.914   1.919   1.924   1.932   1.936   1.941
  1.946   1.948   1.955   1.959   1.963   1.972   1.974   1.992
  1.997   2.003   2.009   2.015   2.019   2.022   2.024   2.046
  2.048   2.049   2.064   2.068   2.075   2.076   2.080   2.084
  2.087   2.093   2.102   2.104   2.114   2.121   2.135   2.137
  2.142   2.145   2.148   2.154   2.165   2.167   2.173   2.176
  2.184   2.190   2.195   2.203   2.207   2.211   2.217   2.223
  2.232   2.236   2.247   2.248   2.255   2.259   2.260   2.266
  2.269   2.275   2.283   2.291   2.295   2.299   2.300   2.304
  2.316   2.324   2.329   2.331   2.337   2.346   2.352   2.358
  2.361   2.365   2.370   2.378   2.382   2.385   2.396   2.401
  2.405   2.412   2.431   2.435   2.446   2.458   2.469   2.482
  2.498   2.501   2.507   2.522   2.531   2.536   2.549   2.568
  2.570   2.580   2.603   2.605   2.618   2.630   2.637   2.640
  2.650   2.663   2.678   2.684   2.687   2.689   2.697   2.706
  2.711   2.718   2.723   2.726   2.730   2.734   2.746   2.751
  2.756   2.758   2.759   2.765   2.778   2.788   2.794   2.803
  2.818   2.822   2.825   2.833   2.850   2.851   2.856   2.858
  2.868   2.872   2.882   2.889   2.903   2.911   2.918   2.937
  2.954   2.967   2.975   2.979   2.986   3.003   3.022   3.034
  3.047   3.051   3.060   3.072   3.129   3.208   3.270   3.333
  3.345   3.384   3.388   3.391   3.409   3.484   3.551   3.559
  3.566   3.675  13.193  13.244  13.274  13.329  13.358  13.398
 13.641  13.644  13.662  13.700  13.711  13.730  13.751  13.762
 13.771  13.796  13.811  13.831  13.870  13.905  13.922  13.998
 14.073  14.108  14.139  14.153  14.169  14.184  14.190  14.206
 14.209  14.240  14.247  14.254  14.265  14.312  14.333  14.391
 14.546  14.559  14.573  14.575  14.593  14.600  19.518  19.577
 19.625
 
 Beta MOs
 -- Occupied --
-14.687 -14.627 -14.624 -10.522 -10.508 -10.506 -10.505 -10.503
-10.502 -10.499 -10.497 -10.495 -10.492 -10.491 -10.491 -10.490
-10.489 -10.489 -10.489 -10.486 -10.486 -10.485 -10.485 -10.484
-10.478 -10.476 -10.474 -10.473 -10.472 -10.472 -10.471 -10.471
-10.469 -10.467 -10.465 -10.456 -10.456 -10.448 -10.448 -10.448
-10.448 -10.446 -10.445 -10.441 -10.441 -10.435 -10.431  -1.104
 -1.053  -1.006  -0.997  -0.994  -0.988  -0.979  -0.963  -0.962
 -0.947  -0.923  -0.915  -0.913  -0.881  -0.878  -0.875  -0.871
 -0.855  -0.852  -0.842  -0.842  -0.824  -0.808  -0.796  -0.776
 -0.764  -0.761  -0.733  -0.726  -0.718  -0.712  -0.710  -0.700
 -0.695  -0.694  -0.683  -0.675  -0.660  -0.638  -0.623  -0.623
 -0.621  -0.613  -0.603  -0.592  -0.581  -0.576  -0.571  -0.561
 -0.553  -0.545  -0.544  -0.540  -0.536  -0.532  -0.529  -0.528
 -0.526  -0.523  -0.514  -0.512  -0.510  -0.506  -0.502  -0.497
 -0.495  -0.491  -0.488  -0.478  -0.475  -0.472  -0.462  -0.458
 -0.457  -0.452  -0.450  -0.449  -0.444  -0.437  -0.435  -0.434
 -0.433  -0.430  -0.426  -0.420  -0.416  -0.413  -0.412  -0.407
 -0.405  -0.404  -0.404  -0.394  -0.382  -0.380  -0.378  -0.374
 -0.371  -0.368  -0.366  -0.344  -0.331  -0.314  -0.309  -0.306
 -0.300  -0.294  -0.292  -0.289  -0.280  -0.226
 -- Virtual --
 -0.060  -0.049  -0.032  -0.024  -0.018  -0.006  -0.000   0.008
  0.011   0.025   0.027   0.050   0.076   0.088   0.094   0.112
  0.115   0.119   0.128   0.130   0.134   0.140   0.141   0.143
  0.147   0.150   0.155   0.158   0.168   0.170   0.171   0.172
  0.179   0.186   0.187   0.191   0.193   0.194   0.195   0.200
  0.204   0.210   0.212   0.216   0.218   0.225   0.227   0.230
  0.232   0.234   0.236   0.243   0.244   0.249   0.250   0.251
  0.255   0.258   0.260   0.261   0.263   0.265   0.268   0.275
  0.283   0.287   0.289   0.291   0.293   0.295   0.299   0.307
  0.314   0.317   0.322   0.328   0.330   0.336   0.344   0.351
  0.353   0.366   0.367   0.373   0.378   0.386   0.389   0.395
  0.400   0.403   0.413   0.428   0.435   0.439   0.442   0.450
  0.459   0.461   0.466   0.470   0.473   0.482   0.491   0.493
  0.496   0.501   0.502   0.509   0.511   0.514   0.520   0.522
  0.523   0.525   0.526   0.533   0.535   0.537   0.539   0.546
  0.549   0.550   0.554   0.556   0.558   0.562   0.563   0.566
  0.569   0.573   0.577   0.578   0.581   0.584   0.586   0.590
  0.592   0.596   0.600   0.601   0.607   0.609   0.610   0.614
  0.616   0.617   0.623   0.625   0.627   0.631   0.632   0.635
  0.639   0.642   0.645   0.648   0.649   0.655   0.656   0.663
  0.668   0.671   0.677   0.680   0.685   0.690   0.690   0.692
  0.698   0.705   0.706   0.717   0.717   0.719   0.720   0.724
  0.730   0.733   0.739   0.740   0.741   0.747   0.751   0.752
  0.754   0.757   0.762   0.765   0.771   0.778   0.787   0.790
  0.799   0.806   0.813   0.819   0.825   0.829   0.833   0.837
  0.845   0.850   0.856   0.868   0.869   0.881   0.885   0.892
[...]
  0.178   0.187   0.189   0.191   0.192   0.196   0.199   0.201
  0.204   0.208   0.215   0.216   0.219   0.222   0.228   0.232
  0.234   0.236   0.237   0.239   0.242   0.244   0.249   0.252
  0.254   0.257   0.259   0.260   0.263   0.268   0.270   0.273
  0.278   0.282   0.286   0.295   0.298   0.302   0.305   0.306
  0.310   0.317   0.320   0.330   0.333   0.339   0.344   0.355
  0.358   0.363   0.364   0.372   0.377   0.380   0.385   0.395
  0.397   0.402   0.418   0.422   0.427   0.437   0.442   0.449
  0.455   0.463   0.469   0.471   0.475   0.479   0.483   0.488
  0.497   0.504   0.506   0.508   0.515   0.517   0.522   0.524
  0.527   0.533   0.535   0.536   0.537   0.541   0.544   0.550
  0.553   0.554   0.557   0.559   0.562   0.566   0.567   0.571
  0.574   0.580   0.582   0.584   0.588   0.592   0.593   0.598
  0.600   0.602   0.607   0.608   0.610   0.610   0.615   0.617
  0.619   0.622   0.626   0.629   0.630   0.634   0.638   0.641
  0.642   0.644   0.645   0.651   0.654   0.655   0.660   0.660
  0.662   0.668   0.670   0.678   0.679   0.684   0.687   0.691
  0.692   0.694   0.704   0.708   0.710   0.713   0.715   0.721
  0.722   0.730   0.731   0.737   0.739   0.742   0.748   0.750
  0.753   0.761   0.764   0.769   0.776   0.778   0.780   0.792
  0.796   0.810   0.812   0.814   0.819   0.831   0.833   0.834
  0.848   0.856   0.860   0.869   0.876   0.886   0.896   0.898
  0.906   0.913   0.916   0.919   0.926   0.931   0.933   0.937
  0.942   0.947   0.951   0.955   0.958   0.963   0.967   0.970
  0.972   0.975   0.979   0.982   0.985   0.987   0.990   0.992
  0.998   1.000   1.004   1.004   1.012   1.014   1.018   1.023
  1.026   1.033   1.036   1.038   1.043   1.046   1.048   1.054
  1.055   1.062   1.063   1.069   1.076   1.080   1.082   1.084
  1.090   1.093   1.097   1.100   1.106   1.113   1.114   1.115
  1.126   1.129   1.131   1.133   1.139   1.141   1.151   1.152
  1.158   1.159   1.173   1.177   1.184   1.190   1.200   1.207
  1.213   1.222   1.228   1.232   1.242   1.248   1.256   1.259
  1.265   1.270   1.277   1.282   1.286   1.291   1.298   1.306
  1.311   1.316   1.322   1.325   1.334   1.338   1.346   1.351
  1.352   1.363   1.370   1.373   1.375   1.393   1.402   1.407
  1.411   1.418   1.426   1.440   1.443   1.456   1.466   1.477
  1.487   1.491   1.497   1.502   1.503   1.507   1.513   1.520
  1.522   1.526   1.529   1.532   1.540   1.546   1.553   1.558
  1.564   1.567   1.571   1.574   1.579   1.580   1.589   1.594
  1.603   1.610   1.615   1.620   1.627   1.634   1.641   1.655
  1.660   1.677   1.680   1.688   1.702   1.713   1.717   1.727
  1.732   1.733   1.756   1.775   1.781   1.785   1.788   1.794
  1.800   1.808   1.815   1.819   1.822   1.835   1.836   1.847
  1.854   1.856   1.860   1.860   1.863   1.866   1.873   1.885
  1.897   1.903   1.912   1.921   1.931   1.935   1.937   1.950
  1.955   1.958   1.962   1.969   1.974   1.978   1.983   1.991
  1.992   2.003   2.006   2.018   2.024   2.029   2.038   2.039
  2.049   2.049   2.063   2.064   2.070   2.074   2.079   2.081
  2.089   2.096   2.100   2.108   2.127   2.131   2.133   2.139
  2.140   2.143   2.151   2.153   2.162   2.163   2.176   2.183
  2.183   2.194   2.194   2.203   2.208   2.210   2.224   2.230
  2.234   2.242   2.242   2.248   2.251   2.255   2.262   2.269
  2.272   2.283   2.290   2.292   2.298   2.303   2.310   2.315
  2.321   2.324   2.329   2.334   2.343   2.352   2.357   2.363
  2.369   2.378   2.379   2.384   2.387   2.391   2.394   2.396
  2.405   2.415   2.437   2.441   2.455   2.470   2.474   2.480
  2.501   2.503   2.509   2.523   2.529   2.545   2.561   2.579
  2.582   2.591   2.597   2.604   2.615   2.625   2.633   2.636
  2.651   2.663   2.674   2.680   2.685   2.686   2.696   2.700
  2.713   2.721   2.728   2.732   2.738   2.741   2.746   2.749
  2.756   2.762   2.767   2.773   2.777   2.792   2.796   2.803
  2.821   2.827   2.834   2.839   2.846   2.848   2.852   2.854
  2.865   2.869   2.877   2.882   2.892   2.901   2.909   2.925
  2.946   2.968   2.971   2.980   2.982   2.998   3.018   3.026
  3.035   3.049   3.068   3.090   3.141   3.211   3.269   3.318
  3.357   3.358   3.373   3.380   3.408   3.497   3.545   3.550
  3.555   3.662  13.176  13.240  13.294  13.320  13.344  13.404
 13.626  13.649  13.661  13.709  13.718  13.748  13.754  13.764
 13.771  13.809  13.812  13.827  13.885  13.912  13.956  14.031
 14.073  14.086  14.159  14.173  14.179  14.191  14.193  14.215
 14.237  14.244  14.251  14.262  14.277  14.294  14.319  14.400
 14.529  14.545  14.570  14.585  14.586  14.612  19.515  19.581
 19.605
 
 Beta MOs
 -- Occupied --
-14.682 -14.633 -14.629 -10.518 -10.518 -10.506 -10.502 -10.499
-10.495 -10.495 -10.494 -10.491 -10.489 -10.488 -10.487 -10.487
-10.487 -10.485 -10.485 -10.482 -10.482 -10.482 -10.481 -10.481
-10.480 -10.478 -10.477 -10.475 -10.474 -10.471 -10.471 -10.468
-10.468 -10.468 -10.466 -10.456 -10.456 -10.449 -10.449 -10.448
-10.448 -10.448 -10.446 -10.443 -10.442 -10.435 -10.433  -1.095
 -1.057  -1.011  -0.996  -0.994  -0.986  -0.979  -0.964  -0.963
 -0.947  -0.925  -0.916  -0.907  -0.885  -0.878  -0.869  -0.866
 -0.853  -0.846  -0.840  -0.839  -0.825  -0.813  -0.797  -0.778
 -0.767  -0.753  -0.728  -0.725  -0.719  -0.714  -0.707  -0.694
 -0.693  -0.685  -0.682  -0.677  -0.661  -0.639  -0.625  -0.620
 -0.617  -0.616  -0.599  -0.585  -0.578  -0.575  -0.572  -0.560
 -0.549  -0.545  -0.542  -0.540  -0.536  -0.530  -0.526  -0.526
 -0.523  -0.520  -0.518  -0.512  -0.508  -0.506  -0.502  -0.497
 -0.495  -0.494  -0.489  -0.477  -0.475  -0.465  -0.460  -0.455
 -0.452  -0.448  -0.447  -0.444  -0.443  -0.434  -0.433  -0.431
 -0.429  -0.427  -0.424  -0.422  -0.418  -0.416  -0.413  -0.409
 -0.408  -0.404  -0.402  -0.401  -0.386  -0.382  -0.379  -0.377
 -0.371  -0.367  -0.363  -0.337  -0.325  -0.313  -0.312  -0.307
 -0.295  -0.293  -0.290  -0.286  -0.262  -0.236
 -- Virtual --
 -0.072  -0.051  -0.019  -0.017  -0.013  -0.004   0.007   0.010
  0.016   0.026   0.035   0.039   0.071   0.082   0.087   0.115
  0.118   0.123   0.131   0.134   0.136   0.142   0.143   0.147
  0.149   0.153   0.157   0.159   0.168   0.171   0.173   0.177
  0.178   0.187   0.188   0.191   0.192   0.196   0.199   0.202
  0.204   0.208   0.215   0.216   0.219   0.223   0.228   0.232
  0.234   0.236   0.238   0.241   0.243   0.244   0.248   0.252
  0.255   0.257   0.259   0.261   0.263   0.268   0.270   0.273
  0.279   0.282   0.286   0.295   0.298   0.302   0.306   0.307
  0.310   0.318   0.321   0.330   0.333   0.339   0.344   0.355
  0.358   0.363   0.364   0.373   0.377   0.380   0.386   0.395
  0.397   0.402   0.420   0.422   0.427   0.438   0.442   0.448
  0.455   0.462   0.469   0.471   0.476   0.479   0.483   0.487
  0.497   0.503   0.503   0.508   0.515   0.517   0.522   0.524
  0.527   0.533   0.535   0.536   0.537   0.541   0.543   0.548
  0.551   0.553   0.557   0.559   0.561   0.566   0.568   0.570
  0.574   0.580   0.582   0.583   0.588   0.592   0.593   0.597
  0.600   0.602   0.606   0.607   0.609   0.610   0.614   0.617
  0.619   0.622   0.626   0.627   0.629   0.634   0.637   0.641
  0.642   0.644   0.645   0.650   0.654   0.655   0.659   0.660
  0.662   0.668   0.670   0.678   0.679   0.683   0.687   0.691
  0.692   0.694   0.704   0.708   0.711   0.713   0.715   0.721
  0.722   0.729   0.732   0.737   0.739   0.742   0.748   0.750
  0.754   0.761   0.764   0.769   0.777   0.779   0.781   0.792
  0.795   0.810   0.812   0.814   0.819   0.831   0.833   0.835
  0.848   0.857   0.860   0.871   0.875   0.887   0.895   0.898
  0.906   0.913   0.916   0.920   0.926   0.931   0.933   0.938
  0.942   0.948   0.951   0.955   0.959   0.963   0.967   0.970
  0.972   0.975   0.980   0.982   0.986   0.987   0.991   0.993
  0.998   1.000   1.004   1.004   1.012   1.014   1.018   1.023
  1.026   1.033   1.036   1.038   1.043   1.046   1.048   1.054
  1.054   1.062   1.063   1.070   1.076   1.080   1.082   1.084
  1.090   1.093   1.097   1.100   1.106   1.113   1.114   1.116
  1.126   1.129   1.131   1.133   1.140   1.141   1.151   1.152
  1.158   1.159   1.173   1.177   1.185   1.190   1.200   1.207
  1.213   1.222   1.229   1.232   1.243   1.248   1.256   1.259
  1.266   1.270   1.277   1.281   1.286   1.290   1.298   1.306
  1.311   1.316   1.322   1.325   1.334   1.338   1.345   1.350
  1.353   1.363   1.370   1.373   1.375   1.393   1.402   1.407
  1.412   1.418   1.426   1.440   1.443   1.456   1.466   1.477
  1.487   1.491   1.497   1.502   1.503   1.507   1.510   1.520
  1.522   1.526   1.529   1.532   1.540   1.546   1.553   1.558
  1.564   1.566   1.570   1.574   1.579   1.580   1.589   1.594
  1.603   1.610   1.615   1.620   1.627   1.634   1.642   1.655
  1.659   1.677   1.680   1.688   1.702   1.712   1.717   1.727
  1.731   1.734   1.756   1.775   1.781   1.786   1.788   1.795
  1.801   1.808   1.815   1.819   1.822   1.835   1.836   1.847
  1.854   1.856   1.860   1.860   1.863   1.867   1.872   1.885
  1.897   1.903   1.913   1.921   1.931   1.935   1.938   1.950
  1.954   1.958   1.962   1.969   1.974   1.978   1.982   1.991
  1.992   2.002   2.006   2.019   2.024   2.029   2.038   2.039
  2.048   2.050   2.063   2.065   2.070   2.074   2.079   2.081
  2.089   2.097   2.100   2.108   2.127   2.131   2.133   2.139
  2.140   2.143   2.150   2.153   2.162   2.163   2.176   2.181
  2.183   2.194   2.195   2.203   2.208   2.210   2.224   2.230
  2.234   2.241   2.242   2.248   2.251   2.254   2.263   2.268
  2.272   2.284   2.289   2.292   2.298   2.303   2.310   2.314
  2.321   2.322   2.328   2.334   2.342   2.353   2.357   2.363
  2.369   2.378   2.379   2.384   2.387   2.390   2.394   2.396
  2.404   2.415   2.437   2.441   2.455   2.470   2.474   2.479
  2.501   2.503   2.509   2.522   2.529   2.545   2.562   2.579
  2.582   2.591   2.597   2.604   2.614   2.625   2.633   2.635
  2.650   2.663   2.674   2.680   2.685   2.686   2.696   2.699
  2.713   2.721   2.728   2.732   2.738   2.741   2.746   2.748
  2.756   2.761   2.767   2.773   2.778   2.791   2.796   2.803
  2.821   2.827   2.833   2.839   2.846   2.848   2.853   2.854
  2.865   2.869   2.878   2.882   2.893   2.902   2.910   2.925
  2.946   2.968   2.973   2.980   2.982   2.997   3.018   3.026
  3.035   3.049   3.068   3.090   3.140   3.211   3.270   3.318
  3.356   3.358   3.373   3.380   3.409   3.497   3.545   3.550
  3.555   3.663  13.176  13.240  13.295  13.320  13.345  13.404
 13.626  13.648  13.661  13.709  13.718  13.748  13.754  13.764
 13.771  13.809  13.812  13.827  13.885  13.912  13.956  14.031
 14.074  14.085  14.158  14.173  14.179  14.191  14.193  14.215
 14.237  14.244  14.251  14.262  14.277  14.295  14.319  14.400
 14.529  14.545  14.570  14.585  14.586  14.612  19.516  19.582
 19.605
 --------------------------------------------------------------
 
          Ground-State Mulliken Net Atomic Charges

     Atom                 Charge (a.u.)    Spin (a.u.)
  --------------------------------------------------------
      1 N                    -0.724037      -0.000135
      2 C                     0.303359       0.000061
      3 C                     0.310717       0.000049
      4 C                    -0.274368      -0.000134
      5 H                     0.234385       0.000039
      6 C                    -0.237643       0.000096
      7 H                     0.217068      -0.000006
      8 C                    -0.215430      -0.000168
      9 H                     0.215142       0.000010
     10 C                    -0.329441       0.000094
     11 H                     0.214553      -0.000004
     12 C                     0.168741      -0.000130
     13 C                    -0.288562      -0.000047
     14 H                     0.256740       0.000023
     15 C                    -0.237495      -0.000019
     16 H                     0.212027       0.000021
     17 C                    -0.217131      -0.000051
     18 H                     0.213740       0.000003
     19 C                    -0.325603       0.000032
     20 H                     0.214723      -0.000004
     21 C                     0.160131      -0.000065
     22 C                     0.272453      -0.001432
     23 C                    -0.345709       0.001040
     24 H                     0.261884      -0.000060
     25 C                    -0.224163       0.000482
     26 H                     0.238882       0.000004
     27 C                    -0.296107      -0.001995
     28 H                     0.222018       0.000331
     29 C                     0.166810       0.008712
     30 C                     0.082598       0.001484
     31 C                    -0.532365       0.001826
     32 H                     0.248536      -0.002401
     33 H                     0.258396      -0.000280
     34 C                    -0.225814       0.000017
     35 C                    -0.664180      -0.000001
     36 H                     0.228437       0.000000
     37 H                     0.228576       0.000000
     38 H                     0.240490      -0.000000
     39 C                    -0.512619       0.006498
     40 H                     0.254086       0.000180
     41 H                     0.239844      -0.000798
     42 C                     0.148713      -0.053310
     43 C                    -0.296430       0.058437
     44 H                     0.235172       0.000445
     45 C                     0.028905       0.050604
     46 C                    -0.017930      -0.004780
     47 N                    -0.185498       0.030872
     48 C                     0.072657       0.156789
     49 C                    -0.262020      -0.211262
     50 H                     0.274283       0.016118
     51 C                     0.059303       0.204230
     52 C                    -0.015807      -0.044198
     53 N                    -0.176834       0.066365
     54 C                    -0.340881      -0.019137
     55 C                     0.070161      -0.044723
     56 C                    -0.273316       0.028427
     57 H                     0.245224      -0.001328
     58 C                    -0.235679      -0.051249
     59 H                     0.237756       0.002728
     60 C                    -0.209091       0.029851
     61 H                     0.237600      -0.001370
     62 C                    -0.320665      -0.041156
     63 H                     0.222754       0.002499
     64 C                     0.160751       0.038625
     65 C                     0.186646      -0.096760
     66 C                    -0.310535       0.060033
     67 H                     0.224136      -0.002789
     68 C                    -0.212172      -0.104910
     69 H                     0.246083       0.005056
     70 C                    -0.210006      -0.004995
     71 H                     0.240161       0.000818
     72 C                    -0.221522       0.039180
     73 H                     0.239859      -0.001286
     74 C                     0.067851      -0.121083
     75 C                    -0.601156      -0.000012
     76 H                     0.224743      -0.000000
     77 H                     0.221508      -0.000000
     78 H                     0.231608       0.000001
  --------------------------------------------------------
  Sum of atomic charges =    -0.000000
  Sum of spin   charges =    -0.000000

 -----------------------------------------------------------------
                    Cartesian Multipole Moments
 -----------------------------------------------------------------
    Charge (ESU x 10^10)
                -0.0000
    Dipole Moment (Debye)
         X       6.0204      Y      -5.0830      Z       6.3273
       Tot      10.1053
    Quadrupole Moments (Debye-Ang)
        XX    -320.5348     XY      54.7639     YY    -291.8751
        XZ     -70.9355     YZ      49.6404     ZZ    -320.7313
    Octopole Moments (Debye-Ang^2)
       XXX    1968.5868    XXY   -1025.7036    XYY     812.3179
       YYY   -1639.3965    XXZ     984.0399    XYZ    -495.5272
       YYZ     804.9905    XZZ     988.5161    YZZ    -919.7389
       ZZZ    1916.2568
    Hexadecapole Moments (Debye-Ang^3)
      XXXX  -25930.7721   XXXY   10844.8678   XXYY   -9202.3245
      XYYY    8718.7750   YYYY  -15945.6267   XXXZ  -10372.9635
      XXYZ    5488.8838   XYYZ   -4961.4125   YYYZ    8286.0621
      XXZZ   -9683.9317   XYZZ    5321.4096   YYZZ   -8166.1050
      XZZZ   -9843.9091   YZZZ    9488.2325   ZZZZ  -20928.6979
 -----------------------------------------------------------------
Archival summary:
1\1\ctcp037\OPT\ProcedureUnspecified\BasisUnspecified\34431\mewes\WedJan1617:58:142019WedJan1617:58:142019\0\\#,OPT,ProcedureUnspecified,BasisUnspecified,\\0,1\N\C,1,1.39856\C,2,1.39276,1,120.49\H,3,1.08201,2,119.99,1,1.73953,0\C,3,1.38309,2,120.005,1,-177.388,0\H,5,1.08208,3,119.52,2,179.958,0\C,5,1.38522,3,120.097,2,1.06615,0\H,7,1.08158,5,120.456,3,179.01,0\C,7,1.38664,5,119.553,3,-1.60617,0\H,9,1.08134,7,118.679,5,-178.89,0\C,9,1.38811,7,121.491,5,-0.230737,0\C,1,1.40067,2,119.058,3,151.551,0\C,12,1.39343,1,121.844,2,-153.387,0\H,13,1.08018,12,120.906,1,-2.19545,0\C,13,1.38323,12,120.338,1,177.372,0\H,15,1.08242,13,119.135,12,-179.704,0\C,15,1.38365,13,120.311,12,-0.809447,0\H,17,1.08157,15,120.672,13,-178.82,0\C,17,1.38605,15,119.18,13,2.1901,0\H,19,1.08117,17,118.619,15,178.082,0\C,19,1.38838,17,121.671,15,-0.357077,0\C,1,1.41505,2,119.453,3,-30.421,0\C,22,1.38414,1,122.424,2,109.88,0\H,23,1.08378,22,119.057,1,-2.64366,0\C,22,1.39067,1,118.934,2,-70.9038,0\H,25,1.08209,22,119.763,1,1.62805,0\C,25,1.37821,22,119.899,1,-178.777,0\H,27,1.08314,25,119.167,22,-178.957,0\C,27,1.39465,25,121.959,22,1.97396,0\C,29,1.3923,27,118.247,25,-1.38727,0\C,29,1.5022,27,118.633,25,-177.517,0\H,31,1.09093,29,108.51,27,2.31904,0\H,31,1.09365,29,111.615,27,-114.197,0\C,30,1.5095,29,125.348,27,174.455,0\C,34,1.49129,30,119.333,29,115.46,0\C,35,1.41661,34,129.879,30,-47.6075,0\H,36,1.08051,35,120.954,34,8.95075,0\C,36,1.36767,35,117.902,34,-171.269,0\H,38,1.08154,36,119.655,35,178.759,0\C,38,1.4115,36,121.409,35,-1.59306,0\H,40,1.08109,38,119.058,36,178.227,0\C,40,1.3886,38,121.287,36,-4.01975,0\H,42,1.08196,40,120.297,38,-176.404,0\C,42,1.37864,40,118.713,38,3.2264,0\C,44,1.43997,42,132.293,40,-176.826,0\C,45,1.39229,44,131.3,42,2.518,0\H,46,1.08222,45,120.98,44,2.125,0\C,46,1.38351,45,118.649,44,-177.927,0\H,48,1.08156,46,119.647,45,-179.676,0\C,48,1.3946,46,120.891,45,0.461207,0\H,50,1.08189,48,119.628,46,179.729,0\C,50,1.38982,48,120.72,46,0.163487,0\H,52,1.08318,50,120.749,48,179.444,0\C,52,1.3789,50,118.409,48,-0.727258,0\C,11,1.517,9,124.09,7,-172.637,0\C,34,1.51793,30,123.707,29,11.2251,0\C,56,1.42892,34,119.58,30,-152.833,0\H,57,1.08065,56,120.116,34,24.952,0\C,57,1.36819,56,121.702,34,-153.309,0\C,59,1.4215,57,119.192,56,178.591,0\N,60,1.15281,59,178.972,57,-32.7668,0\C,59,1.43231,57,119.748,56,-1.65745,0\C,62,1.40441,59,121.737,57,174.479,0\N,63,1.15783,62,178.731,59,-167.691,0\C,62,1.41187,59,117.835,57,-10.7138,0\H,65,1.08359,62,117.968,59,-167.1,0\C,65,1.36291,62,122.647,59,9.05793,0\C,67,1.49786,65,120.205,62,-167.589,0\H,68,1.09144,67,108.478,65,17.0461,0\H,68,1.09647,67,112.464,65,-99.4855,0\C,55,1.52469,11,112.299,9,-19.4634,0\H,71,1.08968,55,110.891,11,59.7248,0\H,71,1.08975,55,110.898,11,177.252,0\H,71,1.0905,55,112.103,11,-61.5007,0\C,55,1.54384,11,108.317,9,99.4438,0\H,75,1.08957,55,112.213,11,59.598,0\H,75,1.09132,55,110.314,11,179.277,0\H,75,1.0914,55,110.505,11,-60.7758,0\\\@

 Total job time:  28273.84s(wall), 124808.50s(cpu) 
 Wed Jan 16 17:58:14 2019

        *************************************************************
        *                                                           *
        *  Thank you very much for using Q-Chem.  Have a nice day.  *
        *                                                           *
        *************************************************************


0 sent ACK to 0 
now end server 0 ... 
