mFile = /cm/shared/apps/q-chem/intel/QCHEM_5.1.0_Trunk/bin/mpi/machines
Process 0 of 1 is on ctcp038 - thread support 0
initial socket setup ...start
initial socket setup ...done 
now start server 0 ... 
Q-Chem Developer Version!
                  Welcome to Q-Chem
     A Quantum Leap Into The Future Of Chemistry


 Q-Chem 5.1, Q-Chem, Inc., Pleasanton, CA (2018)

 Yihan Shao,  Zhengting Gan,  E. Epifanovsky,  A. T. B. Gilbert,  M. Wormit,  
 J. Kussmann,  A. W. Lange,  A. Behn,  Jia Deng,  Xintian Feng,  D. Ghosh,  
 M. Goldey,  P. R. Horn,  L. D. Jacobson,  I. Kaliman,  T. Kus,  A. Landau,  
 Jie Liu,  E. I. Proynov,  R. M. Richard,  R. P. Steele,  E. J. Sundstrom,  
 H. L. Woodcock III,  P. M. Zimmerman,  D. Zuev,  B. Albrecht,  E. Alguire,  
 S. A. Baeppler,  D. Barton,  Z. Benda,  Y. A. Bernard,  E. J. Berquist,  
 K. B. Bravaya,  H. Burton,  D. Casanova,  Chun-Min Chang,  Yunqing Chen,  
 A. Chien,  K. D. Closser,  M. P. Coons,  S. Coriani,  S. Dasgupta,  
 A. L. Dempwolff,  M. Diedenhofen,  Hainam Do,  R. G. Edgar,  Po-Tung Fang,  
 S. Faraji,  S. Fatehi,  Qingguo Feng,  K. D. Fenk,  J. Fosso-Tande,  
 Qinghui Ge,  A. Ghysels,  G. Gidofalvi,  J. Gomes,  J. Gonthier,  A. Gunina,  
 D. Hait,  M. W. D. Hanson-Heine,  P. H. P. Harbach,  A. W. Hauser,  
 J. E. Herr,  E. G. Hohenstein,  Z. C. Holden,  Kerwin Hui,  B. C. Huynh,  
 T.-C. Jagau,  Hyunjun Ji,  B. Kaduk,  K. Khistyaev,  Jaehoon Kim,  
 P. Klunzinger,  K. Koh,  D. Kosenkov,  L. Koulias,  T. Kowalczyk,  
 C. M. Krauter,  A. Kunitsa,  Ka Un Lao,  A. Laurent,  K. V. Lawler,  
 Joonho Lee,  D. Lefrancois,  S. Lehtola,  D. S. Levine,  Yi-Pei Li,  
 You-Sheng Lin,  Fenglai Liu,  E. Livshits,  A. Luenser,  P. Manohar,  
 E. Mansoor,  S. F. Manzer,  Shan-Ping Mao,  Yuezhi Mao,  N. Mardirossian,  
 A. V. Marenich,  T. Markovich,  L. A. Martinez-Martinez,  S. A. Maurer,  
 N. J. Mayhall,  S. C. McKenzie,  J.-M. Mewes,  A. F. Morrison,  
 J. W. Mullinax,  K. Nanda,  T. S. Nguyen-Beck,  R. Olivares-Amaya,  
 J. A. Parkhill,  T. M. Perrine,  F. Plasser,  P. Pokhilko,  S. Prager,  
 A. Prociuk,  E. Ramos,  D. R. Rehn,  F. Rob,  M. Schneider,  N. Sergueev,  
 S. M. Sharada,  S. Sharma,  D. W. Small,  T. Stauch,  T. Stein,  
 Yu-Chuan Su,  A. J. W. Thom,  A. Tkatchenko,  T. Tsuchimochi,  N. M. Tubman,  
 L. Vogt,  M. L. Vidal,  O. Vydrov,  M. A. Watson,  J. Wenzel,  
 M. de Wergifosse,  T. A. Wesolowski,  A. White,  J. Witte,  A. Yamada,  
 Jun Yang,  K. Yao,  S. Yeganeh,  S. R. Yost,  Zhi-Qiang You,  A. Zech,  
 Igor Ying Zhang,  Xing Zhang,  Yan Zhao,  Ying Zhu,  B. R. Brooks,  
 G. K. L. Chan,  C. J. Cramer,  M. S. Gordon,  W. J. Hehre,  A. Klamt,  
 M. W. Schmidt,  C. D. Sherrill,  D. G. Truhlar,  A. Aspuru-Guzik,  R. Baer,  
 A. T. Bell,  N. A. Besley,  Jeng-Da Chai,  A. E. DePrince, III,  
 R. A. DiStasio Jr.,  A. Dreuw,  B. D. Dunietz,  T. R. Furlani,  
 Chao-Ping Hsu,  Yousung Jung,  Jing Kong,  D. S. Lambrecht,  WanZhen Liang,  
 C. Ochsenfeld,  V. A. Rassolov,  L. V. Slipchenko,  J. E. Subotnik,  
 T. Van Voorhis,  J. M. Herbert,  A. I. Krylov,  P. M. W. Gill,  M. Head-Gordon

 Contributors to earlier versions of Q-Chem not listed above: 
 R. D. Adamson,  B. Austin,  J. Baker,  G. J. O. Beran,  K. Brandhorst,  
 S. T. Brown,  E. F. C. Byrd,  A. K. Chakraborty,  C.-L. Cheng,  
 Siu Hung Chien,  D. M. Chipman,  D. L. Crittenden,  H. Dachsel,  
 R. J. Doerksen,  A. D. Dutoi,  L. Fusti-Molnar,  W. A. Goddard III,  
 A. Golubeva-Zadorozhnaya,  S. R. Gwaltney,  G. Hawkins,  A. Heyden,  
 S. Hirata,  G. Kedziora,  F. J. Keil,  C. Kelley,  Jihan Kim,  R. A. King,  
 R. Z. Khaliullin,  P. P. Korambath,  W. Kurlancheek,  A. M. Lee,  M. S. Lee,  
 S. V. Levchenko,  Ching Yeh Lin,  D. Liotard,  R. C. Lochan,  I. Lotan,  
 P. E. Maslen,  N. Nair,  D. P. O'Neill,  D. Neuhauser,  E. Neuscamman,  
 C. M. Oana,  R. Olson,  B. Peters,  R. Peverati,  P. A. Pieniazek,  
 Y. M. Rhee,  J. Ritchie,  M. A. Rohrdanz,  E. Rosta,  N. J. Russ,  
 H. F. Schaefer III,  N. E. Schultz,  N. Shenvi,  A. C. Simmonett,  A. Sodt,  
 D. Stuck,  K. S. Thanthiriwatte,  V. Vanovschi,  Tao Wang,  A. Warshel,  
 C. F. Williams,  Q. Wu,  X. Xu,  W. Zhang

 Please cite Q-Chem as follows:
 Y. Shao et al., Mol. Phys. 113, 184-215 (2015)
 DOI: 10.1080/00268976.2014.952696

 Q-Chem 5.1.1 for Intel X86 EM64T Linux

 Parts of Q-Chem use Armadillo 8.300.2 (Tropical Shenanigans).
 http://arma.sourceforge.net/

 Q-Chem begins on Wed Jan 16 09:44:26 2019  

Host: ctcp038
0

     Scratch files written to /scratch/mewes/143475/qchem2736//
 Parallel job on  1  processors
The previous job contains 0 fragments, simply inherited here
Symmetry turned off for PCM/SM12/SMD calculation
Input Ideriv = 2
Curr. Ideriv = -1
Max.  Ideriv = 2
Input Ideriv = 2
Curr. Ideriv = 2
Max.  Ideriv = 2

Checking the input file for inconsistencies... 	...done.

--------------------------------------------------------------
User input:
--------------------------------------------------------------
$rem
threads 8
jobtype	sp
method PBEh-3c
basis def2-mSVP
mem_static	1024
mem_total	8000
sym_ignore	true
unrestricted true
scf_convergence	9
solvent_method	pcm
$end

$molecule
read incoords.mol
$end

$solvent
dielectric	2.38
$end

$pcm
theory iefpcm
$end
--------------------------------------------------------------
 Adding empirical dispersion correction 
 ----------------------------------------------------------------
 Doing -D3(BJ) with
 s6 =   1.00000
 s8 =   0.00000
 a1 =   0.48600
 a2 =   4.50000
 -D3 energy including 3body term =     -0.0786436726 hartrees
 ----------------------------------------------------------------
 Adding gCP correction 
 ----------------------------------------------------------------
 gCP energy =      0.1095195205 hartrees
 ----------------------------------------------------------------
             Standard Nuclear Orientation (Angstroms)
    I     Atom           X                Y                Z
 ----------------------------------------------------------------
    1      N       0.0000000000     0.0000000000     0.0000000000
    2      C       0.0000000000     0.0000000000     1.3738420000
    3      C       1.1633572231     0.0000000000    -0.7307854048
    4      C      -1.1767290887     0.3525793702     2.0641012234
    5      H      -2.0671155341     0.6196480320     1.5161915620
    6      C      -1.1796200483     0.3873531427     3.4363216445
    7      H      -2.0798861477     0.6704657286     3.9620911651
    8      C      -0.0208160337     0.0754302211     4.1393957887
    9      H      -0.0157560093     0.1082868727     5.2198304658
   10      C       1.1366278619    -0.2788175561     3.4587177382
   11      H       2.0145307119    -0.5257669053     4.0368773055
   12      C       1.1782302992    -0.3279531376     2.0776536029
   13      C       1.1354102662     0.3004476836    -2.1075752217
   14      H       0.2038722316     0.4825686260    -2.6198413751
   15      C       2.3120145347     0.4076539097    -2.8051838971
   16      H       2.2792760865     0.6746920487    -3.8509185438
   17      C       3.5253284265     0.1920739350    -2.1603863938
   18      H       4.4545445958     0.2883642421    -2.7041033567
   19      C       3.5499700530    -0.1664501536    -0.8176889186
   20      H       4.5057018271    -0.3651830586    -0.3564875557
   21      C       2.3882330204    -0.2823854282    -0.0803340965
   22      C      -1.2696777214     0.0599917706    -0.6726341505
   23      C      -1.6814575326     1.2343533546    -1.2521132288
   24      H      -1.0388289305     2.1018353956    -1.1763340962
   25      C      -2.0585806370    -1.0771505610    -0.7161955503
   26      H      -1.7364130297    -2.0079753928    -0.2673522108
   27      C      -3.2857000155    -0.9656820962    -1.3302374398
   28      H      -3.9420343132    -1.8268141669    -1.3403551557
   29      C      -2.8832053228     1.3299768767    -1.9586367927
   30      C      -3.7289579772     0.2152778247    -1.9403476996
   31      C      -5.1365156421     0.2205481533    -2.4615449492
   32      H      -5.6615620324    -0.6277427210    -2.0166626462
   33      H      -5.1523654060     0.0593901974    -3.5423520184
   34      C       2.3676805458    -0.8561006163     1.3171575240
   35      C       3.6799868791    -0.6185484794     2.0625187477
   36      H       4.5163949388    -1.0744915396     1.5367862698
   37      H       3.6646806411    -1.0889594855     3.0435538814
   38      H       3.8879661645     0.4429425871     2.1926948749
   39      C      -5.8652804281     1.5248418089    -2.1380771657
   40      H      -6.9376622123     1.3316835166    -2.0818420436
   41      H      -5.5714030344     1.8520151223    -1.1322019807
   42      C      -5.6075470575     2.5426342779    -3.2047364065
   43      C      -6.6710819858     3.0159590106    -3.9242834426
   44      H      -7.6727611130     2.7526499797    -3.6036266589
   45      C      -6.5449877745     3.7891333936    -5.0913943727
   46      C      -7.6908803557     4.2399577114    -5.7570685179
   47      N      -8.6602100417     4.5944295539    -6.2903590525
   48      C      -5.2056084971     4.0343521980    -5.5633512908
   49      C      -4.1292590689     3.5747003909    -4.8020035794
   50      H      -3.1452481815     3.8326337690    -5.1676831059
   51      C      -4.2651008900     2.8464054244    -3.6368172277
   52      C      -4.9428549831     4.7182953685    -6.7637338435
   53      N      -4.7019351437     5.2799267038    -7.7489368348
   54      C      -3.0410108466     2.6510562714    -2.7455079298
   55      C      -1.7456667902     2.7832536110    -3.5461246566
   56      C      -1.3054316127     1.9571001808    -4.5621162433
   57      H      -1.9196951794     1.1322185375    -4.9026493102
   58      C      -0.0876017496     2.2363238666    -5.1706633824
   59      H       0.2549707226     1.6216513226    -5.9934755801
   60      C       0.6755837072     3.3225966126    -4.7529217661
   61      H       1.6141456522     3.5389126360    -5.2467147445
   62      C       0.2327264540     4.1477256334    -3.7290505075
   63      H       0.8258558714     4.9991249983    -3.4198907996
   64      C      -0.9877983437     3.8740263001    -3.1277053389
   65      C      -1.7075439618     4.5469023818    -2.0502951181
   66      C      -1.4001693770     5.6916682543    -1.3327240505
   67      H      -0.4931165294     6.2477854481    -1.5343864061
   68      C      -2.2871597863     6.1283369684    -0.3591355590
   69      H      -2.0701474311     7.0270359161     0.2027107066
   70      C      -3.4637351048     5.4290349511    -0.1138721403
   71      H      -4.1553206770     5.7917416427     0.6354251661
   72      C      -3.7714597668     4.2814503326    -0.8323783859
   73      H      -4.7039756419     3.7622284013    -0.6554479664
   74      C      -2.8866873996     3.8421437181    -1.7990587330
   75      C       2.1582071748    -2.3878543870     1.1692463428
   76      H       2.9809558047    -2.8254803805     0.6038484990
   77      H       2.1238764372    -2.8562087270     2.1531170928
   78      H       1.2301578260    -2.6302455481     0.6508594013
 ----------------------------------------------------------------
 Nuclear Repulsion Energy =  5553.7336717546 hartrees
 There are      158 alpha and      158 beta electrons
 Requested basis set is def2-mSVP
 There are 391 shells and 767 basis functions

 Total QAlloc Memory Limit   8000 MB
 Mega-Array Size      1001 MB
 MEM_STATIC part      1024 MB
 Discretize the solute cavity surface with Lebedev spheres
	Using 302 Lebedev grid points for each H atom
	Using 302 Lebedev grid points for other atoms
	Atomic van der Waals radii will be scaled by 1.20
 Remove points where switching function is < 1.0e-08
 Keep 7986 surface tesserae and discard 15570 interior tesserae
 Molecular Surface Area = 610.243 Angst**2
 A cutoff of  1.0D-12 yielded  37513 shell pairs
 There are    150565 function pairs (    166400 Cartesian)
 
 -------------------------------------------------------
 OpenMP Integral Computing Module                       
 Release: version 1.0, May 2013, Q-Chem Inc. Pittsburgh 
 -------------------------------------------------------
 Integral Job Info:
 Integral job number is                      11
 Integral operator is                         1
 short-range coefficients                     0
 long-range coefficients              100000000
 Omega coefficients                           0
 if combine SR and LR in K                    0
 Integral screening is                        0
 Integral computing path is                   2
 max size of driver memory is            800000
 size of driver memory is                593474
 size of scratch memory is              1809772
 max col of scratch BK array               1296
 max len of scratch array in speh3          155
 max len of scratch index in speh4           18
 max int batch size is                      520
 min int batch size is                       52
 fixed nKL is                                52
 max L of basis functions is                  2
 order of int derivative is                   0
 number of shells is                        391
 number of basis is                         814
 number of cartesian basis is               814
 number of contracted shell pairs         37513
 number of primitive shell pairs          79014
 maxK2 (contraction) of shell pair           25
 max number of K2 of shell pair               1
 max number of CS2 of shell pair           8824
 max number of PS2 of shell pair          14210
 mem total for path MDJ                  911164
 -------------------------------------------------------
 Smallest overlap matrix eigenvalue = 2.82E-04

 Scale SEOQF with 1.000000e-02/1.000000e-02/1.000000e-02

 Standard Electronic Orientation quadrupole field applied
 Nucleus-field energy     =    -0.0000000042 hartrees
 Guess from superposition of atomic densities
 Warning:  Energy on first SCF cycle will be non-variational
 SAD guess density has 316.000000 electrons

 -----------------------------------------------------------------------
  General SCF calculation program by
  Eric Jon Sundstrom, Paul Horn, Yuezhi Mao, Dmitri Zuev, Alec White,
  David Stuck, Shaama M.S., Shane Yost, Joonho Lee, David Small,
  Daniel Levine, Susi Lehtola, Hugh Burton, Evgeny Epifanovsky
 -----------------------------------------------------------------------
 Exchange:     0.4200 Hartree-Fock + 0.5800 PBEh-3c
 Correlation:  1.0000 PBEh-3c
 Using SG-1 standard quadrature grid
 Dispersion:   Grimme D3
 using 8 threads for integral computing
 -------------------------------------------------------
 OpenMP Integral computing Module                
 Release: version 2.0, May 2017, Q-Chem Inc. Pleasanton 
 -------------------------------------------------------
 -------------------------------------------------------
 OpenMP BLAS3 based DFT computing Module                
 Release: version 1.0, May 2013, Q-Chem Inc. Pittsburgh 
 -------------------------------------------------------
 A unrestricted SCF calculation will be
 performed using DIIS
 SCF converges when DIIS error is below 1.0e-09
 ---------------------------------------
  Cycle       Energy         DIIS error
 ---------------------------------------
 Using non-symmetric K matrix
 Warning: not using a symmetric Q
    1   -1871.0040114482      1.54e-02  
    2   -1855.1493163567      1.08e-03  
    3   -1855.1214419819      1.22e-03  
    4   -1855.4914050501      3.86e-04  
    5   -1855.5303088003      1.06e-04  
    6   -1855.5327747964      4.56e-05  
    7   -1855.5333485230      9.48e-06  
    8   -1855.5333762104      3.40e-06  
    9   -1855.5333790220      1.04e-06  
   10   -1855.5333794438      4.19e-07  
   11   -1855.5333794567      1.52e-07  
   12   -1855.5333794510      5.70e-08  
   13   -1855.5333794526      2.14e-08  
   14   -1855.5333794523      6.79e-09  
   15   -1855.5333794524      2.37e-09  
   16   -1855.5333794524      1.01e-09  
   17   -1855.5333794524      2.57e-10  Convergence criterion met
 ---------------------------------------
 SCF time:   CPU 9900.56s  wall 1341.00s 
<S^2> =         -0.000000000

************** Final PCM Free Energy Summary **************
 G_electrostatic  =      -0.01647492 hartree =     -10.33816811 kcal/mol
 G_cavitation     =       0.00000000 hartree =       0.00000000 kcal/mol
 G_dispersion     =       0.00000000 hartree =       0.00000000 kcal/mol
 G_repulsion      =       0.00000000 hartree =       0.00000000 kcal/mol
 --------------------------------------------------
 Non-electrostatic Free Energy =       0.00000000 hartree =       0.00000000 kcal/mol
 Total                         =      -0.01647492 hartree =     -10.33816811 kcal/mol
 --------------------------------------------------
 SCF Energy (H0 + V/2)                       =   -1855.53337945 
 Solute Internal Energy (H0)                 =   -1855.51690453 
 Total Free Energy (H0 + V/2 + non-elec)     =   -1855.53337945 hartree
                                             = -1164364.76936301 kcal/mol
***********************************************************

 SCF   energy in the final basis set =    -1855.5333794524
 Total energy in the final basis set =    -1855.5333794524
 
 --------------------------------------------------------------
 
                    Orbital Energies (a.u.)
 --------------------------------------------------------------
 
 Alpha MOs
 -- Occupied --
-14.679 -14.667 -14.663 -10.528 -10.526 -10.511 -10.508 -10.508
-10.507 -10.500 -10.494 -10.492 -10.491 -10.491 -10.490 -10.482
-10.474 -10.472 -10.470 -10.468 -10.468 -10.467 -10.466 -10.461
-10.461 -10.460 -10.460 -10.459 -10.459 -10.458 -10.458 -10.458
-10.458 -10.457 -10.457 -10.450 -10.449 -10.442 -10.442 -10.441
-10.440 -10.439 -10.436 -10.435 -10.433 -10.425 -10.424  -1.096
 -1.040  -1.027  -1.024  -1.000  -0.983  -0.962  -0.957  -0.956
 -0.934  -0.928  -0.908  -0.897  -0.886  -0.880  -0.854  -0.850
 -0.847  -0.841  -0.835  -0.819  -0.817  -0.805  -0.790  -0.773
 -0.768  -0.741  -0.726  -0.723  -0.711  -0.710  -0.702  -0.685
 -0.676  -0.673  -0.668  -0.666  -0.662  -0.642  -0.615  -0.613
 -0.612  -0.606  -0.594  -0.583  -0.574  -0.566  -0.560  -0.555
 -0.538  -0.535  -0.532  -0.528  -0.526  -0.522  -0.520  -0.519
 -0.511  -0.505  -0.504  -0.501  -0.496  -0.495  -0.493  -0.488
 -0.487  -0.484  -0.482  -0.480  -0.469  -0.461  -0.457  -0.449
 -0.449  -0.446  -0.443  -0.441  -0.436  -0.436  -0.433  -0.430
 -0.426  -0.426  -0.424  -0.418  -0.417  -0.413  -0.411  -0.407
 -0.405  -0.401  -0.399  -0.398  -0.396  -0.394  -0.390  -0.374
 -0.373  -0.365  -0.344  -0.332  -0.322  -0.308  -0.302  -0.298
 -0.296  -0.287  -0.286  -0.283  -0.265  -0.219
 -- Virtual --
 -0.078  -0.036  -0.023  -0.010  -0.006  -0.000   0.013   0.017
  0.023   0.034   0.040   0.053   0.055   0.057   0.078   0.105
  0.122   0.129   0.135   0.138   0.141   0.145   0.153   0.157
  0.161   0.163   0.167   0.170   0.176   0.181   0.181   0.189
  0.194   0.195   0.200   0.201   0.203   0.205   0.210   0.214
  0.216   0.218   0.223   0.227   0.230   0.232   0.235   0.236
  0.240   0.241   0.244   0.246   0.251   0.254   0.257   0.259
  0.262   0.267   0.269   0.272   0.273   0.281   0.282   0.288
  0.291   0.296   0.298   0.300   0.304   0.308   0.310   0.315
  0.316   0.323   0.335   0.337   0.340   0.343   0.353   0.361
  0.362   0.375   0.377   0.379   0.385   0.389   0.395   0.402
  0.406   0.412   0.421   0.428   0.431   0.442   0.448   0.456
  0.460   0.468   0.469   0.478   0.480   0.481   0.491   0.493
  0.503   0.506   0.509   0.514   0.517   0.519   0.523   0.525
  0.526   0.531   0.534   0.535   0.541   0.543   0.549   0.550
  0.556   0.557   0.562   0.568   0.568   0.571   0.572   0.576
  0.578   0.582   0.585   0.586   0.588   0.594   0.599   0.601
  0.601   0.603   0.607   0.611   0.617   0.618   0.620   0.622
  0.625   0.627   0.628   0.632   0.634   0.636   0.636   0.644
  0.647   0.649   0.651   0.657   0.660   0.666   0.667   0.669
  0.675   0.678   0.681   0.685   0.686   0.694   0.695   0.700
  0.702   0.706   0.708   0.713   0.716   0.719   0.722   0.728
  0.730   0.734   0.741   0.746   0.748   0.752   0.756   0.759
  0.763   0.768   0.769   0.777   0.781   0.786   0.793   0.802
  0.808   0.814   0.818   0.824   0.829   0.833   0.837   0.845
  0.847   0.854   0.864   0.875   0.878   0.886   0.893   0.905
  0.912   0.916   0.917   0.926   0.929   0.939   0.942   0.945
  0.946   0.953   0.954   0.956   0.960   0.969   0.970   0.973
  0.975   0.977   0.985   0.987   0.992   0.996   1.000   1.005
  1.008   1.012   1.015   1.017   1.018   1.019   1.027   1.028
  1.032   1.039   1.046   1.048   1.052   1.056   1.059   1.061
  1.065   1.070   1.073   1.078   1.080   1.082   1.084   1.096
  1.099   1.102   1.106   1.108   1.113   1.120   1.127   1.130
  1.131   1.131   1.140   1.142   1.148   1.150   1.154   1.158
  1.164   1.171   1.180   1.183   1.190   1.194   1.204   1.209
  1.215   1.218   1.224   1.228   1.235   1.238   1.258   1.275
  1.277   1.279   1.285   1.289   1.302   1.307   1.311   1.314
  1.317   1.321   1.323   1.332   1.336   1.342   1.346   1.352
  1.359   1.363   1.367   1.375   1.382   1.390   1.397   1.402
  1.413   1.420   1.423   1.429   1.433   1.455   1.471   1.479
  1.483   1.499   1.502   1.505   1.508   1.517   1.521   1.530
  1.536   1.541   1.543   1.546   1.549   1.550   1.554   1.555
  1.562   1.568   1.572   1.575   1.578   1.585   1.591   1.595
  1.603   1.604   1.607   1.617   1.621   1.631   1.638   1.645
  1.655   1.664   1.669   1.682   1.697   1.708   1.712   1.735
  1.737   1.740   1.756   1.762   1.777   1.780   1.784   1.794
  1.802   1.812   1.816   1.828   1.829   1.834   1.839   1.842
  1.843   1.853   1.860   1.867   1.869   1.874   1.884   1.887
  1.896   1.906   1.914   1.926   1.928   1.934   1.944   1.947
  1.954   1.957   1.959   1.973   1.978   1.982   1.987   1.990
  2.001   2.005   2.013   2.013   2.022   2.023   2.033   2.042
  2.045   2.048   2.055   2.056   2.060   2.074   2.077   2.083
  2.090   2.099   2.109   2.119   2.134   2.141   2.142   2.144
  2.150   2.157   2.161   2.169   2.174   2.174   2.176   2.182
  2.190   2.195   2.200   2.202   2.215   2.220   2.226   2.232
  2.238   2.248   2.255   2.262   2.266   2.268   2.271   2.278
  2.281   2.290   2.294   2.301   2.302   2.309   2.312   2.320
  2.322   2.336   2.339   2.345   2.350   2.356   2.362   2.367
  2.372   2.374   2.379   2.382   2.390   2.390   2.403   2.410
  2.412   2.418   2.437   2.444   2.457   2.469   2.473   2.491
  2.496   2.512   2.516   2.526   2.535   2.540   2.553   2.574
  2.583   2.590   2.599   2.612   2.617   2.633   2.646   2.651
  2.661   2.674   2.684   2.688   2.696   2.699   2.710   2.715
  2.723   2.726   2.734   2.739   2.742   2.744   2.748   2.757
  2.768   2.770   2.774   2.781   2.783   2.797   2.799   2.819
  2.820   2.824   2.828   2.832   2.843   2.848   2.861   2.866
  2.875   2.886   2.897   2.900   2.903   2.919   2.924   2.944
  2.945   2.975   2.981   2.982   2.988   3.015   3.024   3.033
  3.036   3.057   3.065   3.079   3.147   3.216   3.278   3.311
  3.362   3.371   3.377   3.395   3.413   3.495   3.559   3.568
  3.595   3.644  13.202  13.252  13.268  13.336  13.369  13.427
 13.627  13.663  13.674  13.694  13.722  13.737  13.761  13.774
 13.779  13.814  13.824  13.839  13.894  13.912  13.924  13.982
 14.074  14.125  14.137  14.173  14.176  14.197  14.201  14.214
 14.228  14.251  14.255  14.272  14.276  14.285  14.322  14.394
 14.549  14.577  14.579  14.591  14.602  14.610  19.480  19.539
 19.633
 
 Beta MOs
 -- Occupied --
-14.679 -14.667 -14.663 -10.528 -10.526 -10.511 -10.508 -10.508
-10.507 -10.500 -10.494 -10.492 -10.491 -10.491 -10.490 -10.482
-10.474 -10.472 -10.470 -10.468 -10.468 -10.467 -10.466 -10.461
-10.461 -10.460 -10.460 -10.459 -10.459 -10.458 -10.458 -10.458
-10.458 -10.457 -10.457 -10.450 -10.449 -10.442 -10.442 -10.441
-10.440 -10.439 -10.436 -10.435 -10.433 -10.425 -10.424  -1.096
 -1.040  -1.027  -1.024  -1.000  -0.983  -0.962  -0.957  -0.956
 -0.934  -0.928  -0.908  -0.897  -0.886  -0.880  -0.854  -0.850
 -0.847  -0.841  -0.835  -0.819  -0.817  -0.805  -0.790  -0.773
 -0.768  -0.741  -0.726  -0.723  -0.711  -0.710  -0.702  -0.685
 -0.676  -0.673  -0.668  -0.666  -0.662  -0.642  -0.615  -0.613
 -0.612  -0.606  -0.594  -0.583  -0.574  -0.566  -0.560  -0.555
 -0.538  -0.535  -0.532  -0.528  -0.526  -0.522  -0.520  -0.519
 -0.511  -0.505  -0.504  -0.501  -0.496  -0.495  -0.493  -0.488
 -0.487  -0.484  -0.482  -0.480  -0.469  -0.461  -0.457  -0.449
 -0.449  -0.446  -0.443  -0.441  -0.436  -0.436  -0.433  -0.430
 -0.426  -0.426  -0.424  -0.418  -0.417  -0.413  -0.411  -0.407
 -0.405  -0.401  -0.399  -0.398  -0.396  -0.394  -0.390  -0.374
 -0.373  -0.365  -0.344  -0.332  -0.322  -0.308  -0.302  -0.298
 -0.296  -0.287  -0.286  -0.283  -0.265  -0.219
 -- Virtual --
 -0.078  -0.036  -0.023  -0.010  -0.006  -0.000   0.013   0.017
  0.023   0.034   0.040   0.053   0.055   0.057   0.078   0.105
  0.122   0.129   0.135   0.138   0.141   0.145   0.153   0.157
  0.161   0.163   0.167   0.170   0.176   0.181   0.181   0.189
  0.194   0.195   0.200   0.201   0.203   0.205   0.210   0.214
  0.216   0.218   0.223   0.227   0.230   0.232   0.235   0.236
  0.240   0.241   0.244   0.246   0.251   0.254   0.257   0.259
  0.262   0.267   0.269   0.272   0.273   0.281   0.282   0.288
  0.291   0.296   0.298   0.300   0.304   0.308   0.310   0.315
  0.316   0.323   0.335   0.337   0.340   0.343   0.353   0.361
  0.362   0.375   0.377   0.379   0.385   0.389   0.395   0.402
  0.406   0.412   0.421   0.428   0.431   0.442   0.448   0.456
  0.460   0.468   0.469   0.478   0.480   0.481   0.491   0.493
  0.503   0.506   0.509   0.514   0.517   0.519   0.523   0.525
  0.526   0.531   0.534   0.535   0.541   0.543   0.549   0.550
  0.556   0.557   0.562   0.568   0.568   0.571   0.572   0.576
  0.578   0.582   0.585   0.586   0.588   0.594   0.599   0.601
  0.601   0.603   0.607   0.611   0.617   0.618   0.620   0.622
  0.625   0.627   0.628   0.632   0.634   0.636   0.636   0.644
  0.647   0.649   0.651   0.657   0.660   0.666   0.667   0.669
  0.675   0.678   0.681   0.685   0.686   0.694   0.695   0.700
  0.702   0.706   0.708   0.713   0.716   0.719   0.722   0.728
  0.730   0.734   0.741   0.746   0.748   0.752   0.756   0.759
  0.763   0.768   0.769   0.777   0.781   0.786   0.793   0.802
  0.808   0.814   0.818   0.824   0.829   0.833   0.837   0.845
  0.847   0.854   0.864   0.875   0.878   0.886   0.893   0.905
  0.912   0.916   0.917   0.926   0.929   0.939   0.942   0.945
  0.946   0.953   0.954   0.956   0.960   0.969   0.970   0.973
  0.975   0.977   0.985   0.987   0.992   0.996   1.000   1.005
  1.008   1.012   1.015   1.017   1.018   1.019   1.027   1.028
  1.032   1.039   1.046   1.048   1.052   1.056   1.059   1.061
  1.065   1.070   1.073   1.078   1.080   1.082   1.084   1.096
  1.099   1.102   1.106   1.108   1.113   1.120   1.127   1.130
  1.131   1.131   1.140   1.142   1.148   1.150   1.154   1.158
  1.164   1.171   1.180   1.183   1.190   1.194   1.204   1.209
  1.215   1.218   1.224   1.228   1.235   1.238   1.258   1.275
  1.277   1.279   1.285   1.289   1.302   1.307   1.311   1.314
  1.317   1.321   1.323   1.332   1.336   1.342   1.346   1.352
  1.359   1.363   1.367   1.375   1.382   1.390   1.397   1.402
  1.413   1.420   1.423   1.429   1.433   1.455   1.471   1.479
  1.483   1.499   1.502   1.505   1.508   1.517   1.521   1.530
  1.536   1.541   1.543   1.546   1.549   1.550   1.554   1.555
  1.562   1.568   1.572   1.575   1.578   1.585   1.591   1.595
  1.603   1.604   1.607   1.617   1.621   1.631   1.638   1.645
  1.655   1.664   1.669   1.682   1.697   1.708   1.712   1.735
  1.737   1.740   1.756   1.762   1.777   1.780   1.784   1.794
  1.802   1.812   1.816   1.828   1.829   1.834   1.839   1.842
  1.843   1.853   1.860   1.867   1.869   1.874   1.884   1.887
  1.896   1.906   1.914   1.926   1.928   1.934   1.944   1.947
  1.954   1.957   1.959   1.973   1.978   1.982   1.987   1.990
  2.001   2.005   2.013   2.013   2.022   2.023   2.033   2.042
  2.045   2.048   2.055   2.056   2.060   2.074   2.077   2.083
  2.090   2.099   2.109   2.119   2.134   2.141   2.142   2.144
  2.150   2.157   2.161   2.169   2.174   2.174   2.176   2.182
  2.190   2.195   2.200   2.202   2.215   2.220   2.226   2.232
  2.238   2.248   2.255   2.262   2.266   2.268   2.271   2.278
  2.281   2.290   2.294   2.301   2.302   2.309   2.312   2.320
  2.322   2.336   2.339   2.345   2.350   2.356   2.362   2.367
  2.372   2.374   2.379   2.382   2.390   2.390   2.403   2.410
  2.412   2.418   2.437   2.444   2.457   2.469   2.473   2.491
  2.496   2.512   2.516   2.526   2.535   2.540   2.553   2.574
  2.583   2.590   2.599   2.612   2.617   2.633   2.646   2.651
  2.661   2.674   2.684   2.688   2.696   2.699   2.710   2.715
  2.723   2.726   2.734   2.739   2.742   2.744   2.748   2.757
  2.768   2.770   2.774   2.781   2.783   2.797   2.799   2.819
  2.820   2.824   2.828   2.832   2.843   2.848   2.861   2.866
  2.875   2.886   2.897   2.900   2.903   2.919   2.924   2.944
  2.945   2.975   2.981   2.982   2.988   3.015   3.024   3.033
  3.036   3.057   3.065   3.079   3.147   3.216   3.278   3.311
  3.362   3.371   3.377   3.395   3.413   3.495   3.559   3.568
  3.595   3.644  13.202  13.252  13.268  13.336  13.369  13.427
 13.627  13.663  13.674  13.694  13.722  13.737  13.761  13.774
 13.779  13.814  13.824  13.839  13.894  13.912  13.924  13.982
 14.074  14.125  14.137  14.173  14.176  14.197  14.201  14.214
 14.228  14.251  14.255  14.272  14.276  14.285  14.322  14.394
 14.549  14.577  14.579  14.591  14.602  14.610  19.480  19.539
 19.633
 --------------------------------------------------------------
 
          Ground-State Mulliken Net Atomic Charges

     Atom                 Charge (a.u.)    Spin (a.u.)
  --------------------------------------------------------
      1 N                    -0.693809       0.000000
      2 C                     0.310697       0.000000
      3 C                     0.315053      -0.000000
      4 C                    -0.303063       0.000000
      5 H                     0.256291      -0.000000
      6 C                    -0.245579       0.000000
      7 H                     0.229107       0.000000
      8 C                    -0.245546       0.000000
      9 H                     0.223416       0.000000
     10 C                    -0.325738      -0.000000
     11 H                     0.223832       0.000000
     12 C                     0.155090      -0.000000
     13 C                    -0.316529       0.000000
     14 H                     0.274809      -0.000000
     15 C                    -0.240187      -0.000000
     16 H                     0.225961      -0.000000
     17 C                    -0.247798       0.000000
     18 H                     0.220828      -0.000000
     19 C                    -0.323157      -0.000000
     20 H                     0.224034      -0.000000
     21 C                     0.141148       0.000000
     22 C                     0.177393      -0.000000
     23 C                    -0.274805       0.000000
     24 H                     0.290632      -0.000000
     25 C                    -0.224257       0.000000
     26 H                     0.252701       0.000000
     27 C                    -0.315318      -0.000000
     28 H                     0.235619      -0.000000
     29 C                     0.230116       0.000000
     30 C                     0.056452      -0.000000
     31 C                    -0.520759       0.000000
     32 H                     0.259620      -0.000000
     33 H                     0.259191      -0.000000
     34 C                    -0.231458       0.000000
     35 C                    -0.658051       0.000000
     36 H                     0.231386       0.000000
     37 H                     0.231750       0.000000
     38 H                     0.242905       0.000000
     39 C                    -0.554132       0.000000
     40 H                     0.265798       0.000000
     41 H                     0.265255      -0.000000
     42 C                     0.142470      -0.000000
     43 C                    -0.316713      -0.000000
     44 H                     0.265938       0.000000
     45 C                     0.070710      -0.000000
     46 C                     0.008499       0.000000
     47 N                    -0.190672      -0.000000
     48 C                     0.077612      -0.000000
     49 C                    -0.290665       0.000000
     50 H                     0.289872       0.000000
     51 C                     0.155874      -0.000000
     52 C                     0.007635       0.000000
     53 N                    -0.191121      -0.000000
     54 C                    -0.407443       0.000000
     55 C                     0.020605      -0.000000
     56 C                    -0.263921       0.000000
     57 H                     0.243487      -0.000000
     58 C                    -0.250825       0.000000
     59 H                     0.244633      -0.000000
     60 C                    -0.222170      -0.000000
     61 H                     0.244190      -0.000000
     62 C                    -0.338194       0.000000
     63 H                     0.231614       0.000000
     64 C                     0.159244      -0.000000
     65 C                     0.125575      -0.000000
     66 C                    -0.331687       0.000000
     67 H                     0.231459       0.000000
     68 C                    -0.230004      -0.000000
     69 H                     0.243805       0.000000
     70 C                    -0.234716       0.000000
     71 H                     0.241176      -0.000000
     72 C                    -0.295333       0.000000
     73 H                     0.230854      -0.000000
     74 C                     0.170125      -0.000000
     75 C                    -0.599969      -0.000000
     76 H                     0.224951       0.000000
     77 H                     0.223254       0.000000
     78 H                     0.230953       0.000000
  --------------------------------------------------------
  Sum of atomic charges =    -0.000000
  Sum of spin   charges =     0.000000

 -----------------------------------------------------------------
                    Cartesian Multipole Moments
 -----------------------------------------------------------------
    Charge (ESU x 10^10)
                -0.0000
    Dipole Moment (Debye)
         X       2.3929      Y      -4.1008      Z       6.2284
       Tot       7.8317
    Quadrupole Moments (Debye-Ang)
        XX    -286.9412     XY      42.3638     YY    -290.5682
        XZ     -59.3406     YZ      51.3083     ZZ    -331.6290
    Octopole Moments (Debye-Ang^2)
       XXX    1768.8152    XXY    -832.0799    XYY     719.3974
       YYY   -1587.1007    XXZ     950.8559    XYZ    -422.7755
       YYZ     810.8459    XZZ    1018.3916    YZZ    -942.8138
       ZZZ    2076.5966
    Hexadecapole Moments (Debye-Ang^3)
      XXXX  -24527.3043   XXXY    8655.1108   XXYY   -7693.8553
      XYYY    7261.7099   YYYY  -14134.5473   XXXZ  -10548.4098
      XXYZ    4736.7555   XYYZ   -4429.1590   YYYZ    7621.5305
      XXZZ  -10293.2984   XYZZ    4969.3063   YYZZ   -7999.4537
      XZZZ  -10834.7932   YZZZ    9440.9227   ZZZZ  -23097.0622
 -----------------------------------------------------------------
Archival summary:
1\1\ctcp038\SP\ProcedureUnspecified\BasisUnspecified\34431\mewes\WedJan1610:06:492019WedJan1610:06:492019\0\\#,ProcedureUnspecified,BasisUnspecified,\\0,1\N\C,1,1.37384\C,1,1.37384,2,122.136\C,2,1.40906,1,119.332,3,163.32,0\H,4,1.07904,2,120.152,1,-0.016775,0\C,4,1.37266,2,119.855,1,-178.437,0\H,6,1.08031,4,119.665,2,179.212,0\C,6,1.39084,4,119.861,2,0.049043,0\H,8,1.08095,6,120.155,4,179.554,0\C,8,1.3887,6,120.256,4,-0.389228,0\H,10,1.0798,8,118.264,6,-179.303,0\C,10,1.38256,8,121.585,6,0.255864,0\C,3,1.40947,1,120.186,2,-165.723,0\H,13,1.07859,3,121.134,1,-3.27052,0\C,13,1.37206,3,119.756,1,174.578,0\H,15,1.07979,13,119.06,3,-177.723,0\C,15,1.39082,13,120.018,3,1.36994,0\H,17,1.0809,15,120.195,13,-179.205,0\C,17,1.38996,15,120.218,13,1.68141,0\H,19,1.07964,17,118.413,15,177.589,0\C,19,1.38086,17,121.505,15,-1.80931,0\C,1,1.43809,2,117.887,3,-177.295,0\C,22,1.37276,1,119.865,2,104.292,0\H,23,1.08224,22,118.557,1,-0.838526,0\C,22,1.38469,1,118.912,2,-75.4274,0\H,25,1.08245,22,121.573,1,-0.728182,0\C,25,1.3767,22,117.089,1,177.876,0\H,27,1.08279,25,118.69,22,-177.321,0\C,23,1.39733,22,122.003,1,177.609,0\C,29,1.39935,23,117.302,22,6.47204,0\C,30,1.50096,29,124.017,23,170.171,0\H,31,1.09233,30,107.855,29,-160.332,0\H,31,1.09287,30,110.885,29,83.6144,0\C,12,1.50734,10,122.696,8,-172.937,0\C,34,1.52779,12,112.159,10,-30.6133,0\H,35,1.08805,34,111.064,12,175.546,0\H,35,1.08809,34,111.135,12,58.5662,0\H,35,1.08948,34,111.948,12,-62.8489,0\C,31,1.5287,30,112.122,29,-38.6791,0\H,39,1.09109,31,109.172,30,-152.981,0\H,39,1.09781,31,108.695,30,-38.2778,0\C,39,1.49669,31,110.323,30,87.2014,0\C,42,1.36854,39,118.43,31,118.143,0\H,43,1.08421,42,118.586,39,8.94142,0\C,43,1.40565,42,123.854,39,-168.647,0\C,45,1.3998,43,119.905,42,-179.472,0\N,46,1.16174,45,178.371,43,-10.3381,0\C,45,1.44111,43,116.672,42,2.64308,0\C,48,1.39623,45,118.808,43,-4.10246,0\H,49,1.08098,48,116.023,45,-176.58,0\C,49,1.38077,48,123.914,45,2.60597,0\C,48,1.40632,45,122.408,43,175.815,0\N,52,1.15935,48,178.774,45,178.446,0\C,51,1.52676,49,118.767,48,-167.429,0\C,54,1.52852,51,111.26,49,-24.1375,0\C,55,1.38151,54,127.123,51,-64.8185,0\H,56,1.08338,55,120.385,54,2.84789,0\C,56,1.38975,55,118.759,54,-179.627,0\H,58,1.08268,56,119.735,55,-177.693,0\C,58,1.39174,56,120.392,55,0.533485,0\H,60,1.08237,58,119.641,56,-178.955,0\C,60,1.38754,58,120.705,56,-0.319842,0\H,62,1.08271,60,120.231,58,-179.109,0\C,62,1.38788,60,118.89,58,-0.121995,0\C,64,1.46,62,131.482,60,-179.849,0\C,65,1.3856,64,130.812,62,2.31182,0\H,66,1.0829,65,120.908,64,-0.061734,0\C,66,1.38755,65,118.788,64,179.005,0\H,68,1.08186,66,119.841,65,-179.233,0\C,68,1.39051,66,120.424,65,-0.179799,0\H,70,1.08226,68,119.622,66,-178.837,0\C,70,1.38849,68,120.791,66,0.219989,0\H,72,1.08189,70,120.202,68,-178.076,0\C,72,1.38213,70,118.866,68,0.026029,0\C,34,1.55307,12,106.69,10,87.9378,0\H,75,1.09,34,110.095,12,178.706,0\H,75,1.0902,34,109.999,12,-61.6181,0\H,75,1.0903,34,112.294,12,58.5175,0\\\@

 Total job time:  1343.30s(wall), 9913.02s(cpu) 
 Wed Jan 16 10:06:49 2019

        *************************************************************
        *                                                           *
        *  Thank you very much for using Q-Chem.  Have a nice day.  *
        *                                                           *
        *************************************************************


0 sent ACK to 0 
now end server 0 ... 
 
*************************************************************
Job 2 of 2 
*************************************************************
 
mFile = /cm/shared/apps/q-chem/intel/QCHEM_5.1.0_Trunk/bin/mpi/machines
Process 0 of 1 is on ctcp038 - thread support 0
initial socket setup ...start
initial socket setup ...done 
now start server 0 ... 
Q-Chem Developer Version!
                  Welcome to Q-Chem
     A Quantum Leap Into The Future Of Chemistry


 Q-Chem 5.1, Q-Chem, Inc., Pleasanton, CA (2018)

 Yihan Shao,  Zhengting Gan,  E. Epifanovsky,  A. T. B. Gilbert,  M. Wormit,  
 J. Kussmann,  A. W. Lange,  A. Behn,  Jia Deng,  Xintian Feng,  D. Ghosh,  
 M. Goldey,  P. R. Horn,  L. D. Jacobson,  I. Kaliman,  T. Kus,  A. Landau,  
 Jie Liu,  E. I. Proynov,  R. M. Richard,  R. P. Steele,  E. J. Sundstrom,  
 H. L. Woodcock III,  P. M. Zimmerman,  D. Zuev,  B. Albrecht,  E. Alguire,  
 S. A. Baeppler,  D. Barton,  Z. Benda,  Y. A. Bernard,  E. J. Berquist,  
 K. B. Bravaya,  H. Burton,  D. Casanova,  Chun-Min Chang,  Yunqing Chen,  
 A. Chien,  K. D. Closser,  M. P. Coons,  S. Coriani,  S. Dasgupta,  
 A. L. Dempwolff,  M. Diedenhofen,  Hainam Do,  R. G. Edgar,  Po-Tung Fang,  
 S. Faraji,  S. Fatehi,  Qingguo Feng,  K. D. Fenk,  J. Fosso-Tande,  
 Qinghui Ge,  A. Ghysels,  G. Gidofalvi,  J. Gomes,  J. Gonthier,  A. Gunina,  
 D. Hait,  M. W. D. Hanson-Heine,  P. H. P. Harbach,  A. W. Hauser,  
 J. E. Herr,  E. G. Hohenstein,  Z. C. Holden,  Kerwin Hui,  B. C. Huynh,  
 T.-C. Jagau,  Hyunjun Ji,  B. Kaduk,  K. Khistyaev,  Jaehoon Kim,  
 P. Klunzinger,  K. Koh,  D. Kosenkov,  L. Koulias,  T. Kowalczyk,  
 C. M. Krauter,  A. Kunitsa,  Ka Un Lao,  A. Laurent,  K. V. Lawler,  
 Joonho Lee,  D. Lefrancois,  S. Lehtola,  D. S. Levine,  Yi-Pei Li,  
 You-Sheng Lin,  Fenglai Liu,  E. Livshits,  A. Luenser,  P. Manohar,  
 E. Mansoor,  S. F. Manzer,  Shan-Ping Mao,  Yuezhi Mao,  N. Mardirossian,  
 A. V. Marenich,  T. Markovich,  L. A. Martinez-Martinez,  S. A. Maurer,  
 N. J. Mayhall,  S. C. McKenzie,  J.-M. Mewes,  A. F. Morrison,  
 J. W. Mullinax,  K. Nanda,  T. S. Nguyen-Beck,  R. Olivares-Amaya,  
 J. A. Parkhill,  T. M. Perrine,  F. Plasser,  P. Pokhilko,  S. Prager,  
 A. Prociuk,  E. Ramos,  D. R. Rehn,  F. Rob,  M. Schneider,  N. Sergueev,  
 S. M. Sharada,  S. Sharma,  D. W. Small,  T. Stauch,  T. Stein,  
 Yu-Chuan Su,  A. J. W. Thom,  A. Tkatchenko,  T. Tsuchimochi,  N. M. Tubman,  
 L. Vogt,  M. L. Vidal,  O. Vydrov,  M. A. Watson,  J. Wenzel,  
 M. de Wergifosse,  T. A. Wesolowski,  A. White,  J. Witte,  A. Yamada,  
 Jun Yang,  K. Yao,  S. Yeganeh,  S. R. Yost,  Zhi-Qiang You,  A. Zech,  
 Igor Ying Zhang,  Xing Zhang,  Yan Zhao,  Ying Zhu,  B. R. Brooks,  
 G. K. L. Chan,  C. J. Cramer,  M. S. Gordon,  W. J. Hehre,  A. Klamt,  
 M. W. Schmidt,  C. D. Sherrill,  D. G. Truhlar,  A. Aspuru-Guzik,  R. Baer,  
 A. T. Bell,  N. A. Besley,  Jeng-Da Chai,  A. E. DePrince, III,  
 R. A. DiStasio Jr.,  A. Dreuw,  B. D. Dunietz,  T. R. Furlani,  
 Chao-Ping Hsu,  Yousung Jung,  Jing Kong,  D. S. Lambrecht,  WanZhen Liang,  
 C. Ochsenfeld,  V. A. Rassolov,  L. V. Slipchenko,  J. E. Subotnik,  
 T. Van Voorhis,  J. M. Herbert,  A. I. Krylov,  P. M. W. Gill,  M. Head-Gordon

 Contributors to earlier versions of Q-Chem not listed above: 
 R. D. Adamson,  B. Austin,  J. Baker,  G. J. O. Beran,  K. Brandhorst,  
 S. T. Brown,  E. F. C. Byrd,  A. K. Chakraborty,  C.-L. Cheng,  
 Siu Hung Chien,  D. M. Chipman,  D. L. Crittenden,  H. Dachsel,  
 R. J. Doerksen,  A. D. Dutoi,  L. Fusti-Molnar,  W. A. Goddard III,  
 A. Golubeva-Zadorozhnaya,  S. R. Gwaltney,  G. Hawkins,  A. Heyden,  
 S. Hirata,  G. Kedziora,  F. J. Keil,  C. Kelley,  Jihan Kim,  R. A. King,  
 R. Z. Khaliullin,  P. P. Korambath,  W. Kurlancheek,  A. M. Lee,  M. S. Lee,  
 S. V. Levchenko,  Ching Yeh Lin,  D. Liotard,  R. C. Lochan,  I. Lotan,  
 P. E. Maslen,  N. Nair,  D. P. O'Neill,  D. Neuhauser,  E. Neuscamman,  
 C. M. Oana,  R. Olson,  B. Peters,  R. Peverati,  P. A. Pieniazek,  
 Y. M. Rhee,  J. Ritchie,  M. A. Rohrdanz,  E. Rosta,  N. J. Russ,  
 H. F. Schaefer III,  N. E. Schultz,  N. Shenvi,  A. C. Simmonett,  A. Sodt,  
 D. Stuck,  K. S. Thanthiriwatte,  V. Vanovschi,  Tao Wang,  A. Warshel,  
 C. F. Williams,  Q. Wu,  X. Xu,  W. Zhang

 Please cite Q-Chem as follows:
 Y. Shao et al., Mol. Phys. 113, 184-215 (2015)
 DOI: 10.1080/00268976.2014.952696

 Q-Chem 5.1.1 for Intel X86 EM64T Linux

 Parts of Q-Chem use Armadillo 8.300.2 (Tropical Shenanigans).
 http://arma.sourceforge.net/

 Q-Chem begins on Wed Jan 16 10:06:52 2019  

Host: ctcp038
0

     Scratch files written to /scratch/mewes/143475/qchem2736//
 Parallel job on  1  processors
The previous job contains 0 fragments, simply inherited here
Symmetry turned off for PCM/SM12/SMD calculation
Input Ideriv = 2
Curr. Ideriv = -1
Max.  Ideriv = 2
Input Ideriv = 2
Curr. Ideriv = 2
Max.  Ideriv = 2

Checking the input file for inconsistencies... 	...done.

--------------------------------------------------------------
User input:
--------------------------------------------------------------

$rem
threads 8
jobtype opt
method PBEh-3c
basis def2-mSVP
scf_guess	read
mem_static      1024
mem_total       8000
sym_ignore      true
unrestricted true
mom_start       1
scf_algorithm	diis
scf_max_cycles	250
solvent_method	pcm
geom_opt_tol_energy 25
geom_opt_tol_gradient 75
$end

$solvent
dielectric      2.38
$end

$pcm
theory iefpcm
$end

$occupied
1 2 3 4 5 6 7 8 9 10 11 12 13 14 15 16 17 18 19 20 21 22 23 24 25 26 27 28 29 30 31 32 33 34 35 36 37 38 39 40 41 42 43 44 45 46 47 48 49 50 51 52 53 54 55 56 57 58 59 60 61 62 63 64 65 66 67 68 69 70 71 72 73 74 75 76 77 78 79 80 81 82 83 84 85 86 87 88 89 90 91 92 93 94 95 96 97 98 99 100 101 102 103 104 105 106 107 108 109 110 111 112 113 114 115 116 117 118 119 120 121 122 123 124 125 126 127 128 129 130 131 132 133 134 135 136 137 138 139 140 141 142 143 144 145 146 147 148 149 150 151 152 153 154 155 156 158 159
1 2 3 4 5 6 7 8 9 10 11 12 13 14 15 16 17 18 19 20 21 22 23 24 25 26 27 28 29 30 31 32 33 34 35 36 37 38 39 40 41 42 43 44 45 46 47 48 49 50 51 52 53 54 55 56 57 58 59 60 61 62 63 64 65 66 67 68 69 70 71 72 73 74 75 76 77 78 79 80 81 82 83 84 85 86 87 88 89 90 91 92 93 94 95 96 97 98 99 100 101 102 103 104 105 106 107 108 109 110 111 112 113 114 115 116 117 118 119 120 121 122 123 124 125 126 127 128 129 130 131 132 133 134 135 136 137 138 139 140 141 142 143 144 145 146 147 148 149 150 151 152 153 154 155 156 157 158
$end

$molecule
read incoords.mol
$end

--------------------------------------------------------------
 Adding empirical dispersion correction 
 ----------------------------------------------------------------
 Doing -D3(BJ) with
 s6 =   1.00000
 s8 =   0.00000
 a1 =   0.48600
 a2 =   4.50000
 -D3 energy including 3body term =     -0.0786436726 hartrees
 ----------------------------------------------------------------
 Adding gCP correction 
 ----------------------------------------------------------------
 gCP energy =      0.1095195205 hartrees
 ----------------------------------------------------------------
             Standard Nuclear Orientation (Angstroms)
    I     Atom           X                Y                Z
 ----------------------------------------------------------------
    1      N       0.0000000000     0.0000000000     0.0000000000
    2      C       0.0000000000     0.0000000000     1.3738420000
    3      C       1.1633572231     0.0000000000    -0.7307854048
    4      C      -1.1767290887     0.3525793702     2.0641012234
    5      H      -2.0671155341     0.6196480320     1.5161915620
    6      C      -1.1796200483     0.3873531427     3.4363216445
    7      H      -2.0798861477     0.6704657286     3.9620911651
    8      C      -0.0208160337     0.0754302211     4.1393957887
    9      H      -0.0157560093     0.1082868727     5.2198304658
   10      C       1.1366278619    -0.2788175561     3.4587177382
   11      H       2.0145307119    -0.5257669053     4.0368773055
   12      C       1.1782302992    -0.3279531376     2.0776536029
   13      C       1.1354102662     0.3004476836    -2.1075752217
   14      H       0.2038722316     0.4825686260    -2.6198413751
   15      C       2.3120145347     0.4076539097    -2.8051838971
   16      H       2.2792760865     0.6746920487    -3.8509185438
   17      C       3.5253284265     0.1920739350    -2.1603863938
   18      H       4.4545445958     0.2883642421    -2.7041033567
   19      C       3.5499700530    -0.1664501536    -0.8176889186
   20      H       4.5057018271    -0.3651830586    -0.3564875557
   21      C       2.3882330204    -0.2823854282    -0.0803340965
   22      C      -1.2696777214     0.0599917706    -0.6726341505
   23      C      -1.6814575326     1.2343533546    -1.2521132288
   24      H      -1.0388289305     2.1018353956    -1.1763340962
   25      C      -2.0585806370    -1.0771505610    -0.7161955503
   26      H      -1.7364130297    -2.0079753928    -0.2673522108
   27      C      -3.2857000155    -0.9656820962    -1.3302374398
   28      H      -3.9420343132    -1.8268141669    -1.3403551557
   29      C      -2.8832053228     1.3299768767    -1.9586367927
   30      C      -3.7289579772     0.2152778247    -1.9403476996
   31      C      -5.1365156421     0.2205481533    -2.4615449492
   32      H      -5.6615620324    -0.6277427210    -2.0166626462
   33      H      -5.1523654060     0.0593901974    -3.5423520184
   34      C       2.3676805458    -0.8561006163     1.3171575240
   35      C       3.6799868791    -0.6185484794     2.0625187477
   36      H       4.5163949388    -1.0744915396     1.5367862698
   37      H       3.6646806411    -1.0889594855     3.0435538814
   38      H       3.8879661645     0.4429425871     2.1926948749
   39      C      -5.8652804281     1.5248418089    -2.1380771657
   40      H      -6.9376622123     1.3316835166    -2.0818420436
   41      H      -5.5714030344     1.8520151223    -1.1322019807
   42      C      -5.6075470575     2.5426342779    -3.2047364065
   43      C      -6.6710819858     3.0159590106    -3.9242834426
   44      H      -7.6727611130     2.7526499797    -3.6036266589
   45      C      -6.5449877745     3.7891333936    -5.0913943727
   46      C      -7.6908803557     4.2399577114    -5.7570685179
   47      N      -8.6602100417     4.5944295539    -6.2903590525
   48      C      -5.2056084971     4.0343521980    -5.5633512908
   49      C      -4.1292590689     3.5747003909    -4.8020035794
   50      H      -3.1452481815     3.8326337690    -5.1676831059
   51      C      -4.2651008900     2.8464054244    -3.6368172277
   52      C      -4.9428549831     4.7182953685    -6.7637338435
   53      N      -4.7019351437     5.2799267038    -7.7489368348
   54      C      -3.0410108466     2.6510562714    -2.7455079298
   55      C      -1.7456667902     2.7832536110    -3.5461246566
   56      C      -1.3054316127     1.9571001808    -4.5621162433
   57      H      -1.9196951794     1.1322185375    -4.9026493102
   58      C      -0.0876017496     2.2363238666    -5.1706633824
   59      H       0.2549707226     1.6216513226    -5.9934755801
   60      C       0.6755837072     3.3225966126    -4.7529217661
   61      H       1.6141456522     3.5389126360    -5.2467147445
   62      C       0.2327264540     4.1477256334    -3.7290505075
   63      H       0.8258558714     4.9991249983    -3.4198907996
   64      C      -0.9877983437     3.8740263001    -3.1277053389
   65      C      -1.7075439618     4.5469023818    -2.0502951181
   66      C      -1.4001693770     5.6916682543    -1.3327240505
   67      H      -0.4931165294     6.2477854481    -1.5343864061
   68      C      -2.2871597863     6.1283369684    -0.3591355590
   69      H      -2.0701474311     7.0270359161     0.2027107066
   70      C      -3.4637351048     5.4290349511    -0.1138721403
   71      H      -4.1553206770     5.7917416427     0.6354251661
   72      C      -3.7714597668     4.2814503326    -0.8323783859
   73      H      -4.7039756419     3.7622284013    -0.6554479664
   74      C      -2.8866873996     3.8421437181    -1.7990587330
   75      C       2.1582071748    -2.3878543870     1.1692463428
   76      H       2.9809558047    -2.8254803805     0.6038484990
   77      H       2.1238764372    -2.8562087270     2.1531170928
   78      H       1.2301578260    -2.6302455481     0.6508594013
 ----------------------------------------------------------------
 Nuclear Repulsion Energy =  5553.7336717546 hartrees
 There are      158 alpha and      158 beta electrons
 Requested basis set is def2-mSVP
 There are 391 shells and 767 basis functions

 Total QAlloc Memory Limit   8000 MB
 Mega-Array Size      1001 MB
 MEM_STATIC part      1024 MB
 Discretize the solute cavity surface with Lebedev spheres
	Using 302 Lebedev grid points for each H atom
	Using 302 Lebedev grid points for other atoms
	Atomic van der Waals radii will be scaled by 1.20
 Remove points where switching function is < 1.0e-08
 Keep 7986 surface tesserae and discard 15570 interior tesserae
 Molecular Surface Area = 610.243 Angst**2
 A cutoff of  1.0D-11 yielded  35097 shell pairs
 There are    140985 function pairs (    155664 Cartesian)
 
 -------------------------------------------------------
 OpenMP Integral Computing Module                       
 Release: version 1.0, May 2013, Q-Chem Inc. Pittsburgh 
 -------------------------------------------------------
 Integral Job Info:
 Integral job number is                      11
 Integral operator is                         1
 short-range coefficients                     0
 long-range coefficients              100000000
 Omega coefficients                           0
 if combine SR and LR in K                    0
 Integral screening is                        0
 Integral computing path is                   2
 max size of driver memory is            800000
 size of driver memory is                593474
 size of scratch memory is              1809772
 max col of scratch BK array               1296
 max len of scratch array in speh3          155
 max len of scratch index in speh4           18
 max int batch size is                      520
 min int batch size is                       52
 fixed nKL is                                52
 max L of basis functions is                  2
 order of int derivative is                   0
 number of shells is                        391
 number of basis is                         814
 number of cartesian basis is               814
 number of contracted shell pairs         35097
 number of primitive shell pairs          73511
 maxK2 (contraction) of shell pair           25
 max number of K2 of shell pair               1
 max number of CS2 of shell pair           8337
 max number of PS2 of shell pair          13125
 mem total for path MDJ                  883084
 -------------------------------------------------------
 Smallest overlap matrix eigenvalue = 2.82E-04

 Scale SEOQF with 1.000000e-02/1.000000e-02/1.000000e-02

 Standard Electronic Orientation quadrupole field applied
 Nucleus-field energy     =    -0.0000000042 hartrees
 Guess MOs from SCF MO coefficient file
 Reading MOs from coefficient file
 User-specified occupied guess orbitals will be used
   Alpha:
   1   2   3   4   5   6   7   8   9  10  11  12  13  14  15
  16  17  18  19  20  21  22  23  24  25  26  27  28  29  30
  31  32  33  34  35  36  37  38  39  40  41  42  43  44  45
  46  47  48  49  50  51  52  53  54  55  56  57  58  59  60
  61  62  63  64  65  66  67  68  69  70  71  72  73  74  75
  76  77  78  79  80  81  82  83  84  85  86  87  88  89  90
  91  92  93  94  95  96  97  98  99 100 101 102 103 104 105
 106 107 108 109 110 111 112 113 114 115 116 117 118 119 120
 121 122 123 124 125 126 127 128 129 130 131 132 133 134 135
 136 137 138 139 140 141 142 143 144 145 146 147 148 149 150
 151 152 153 154 155 156 158 159
 Reading MOs from coefficient file
   Beta:
   1   2   3   4   5   6   7   8   9  10  11  12  13  14  15
  16  17  18  19  20  21  22  23  24  25  26  27  28  29  30
  31  32  33  34  35  36  37  38  39  40  41  42  43  44  45
  46  47  48  49  50  51  52  53  54  55  56  57  58  59  60
  61  62  63  64  65  66  67  68  69  70  71  72  73  74  75
  76  77  78  79  80  81  82  83  84  85  86  87  88  89  90
  91  92  93  94  95  96  97  98  99 100 101 102 103 104 105
 106 107 108 109 110 111 112 113 114 115 116 117 118 119 120
 121 122 123 124 125 126 127 128 129 130 131 132 133 134 135
 136 137 138 139 140 141 142 143 144 145 146 147 148 149 150
 151 152 153 154 155 156 157 158
 An unrestricted hybrid HF-DFT SCF calculation will be
 performed using Pulay DIIS extrapolation
 Polarizable Continuum solvation model will be applied
 Exchange:     0.4200 Hartree-Fock + 0.5800 PBEh-3c
 Correlation:  1.0000 PBEh-3c
 Using SG-1 standard quadrature grid
 Dispersion:   Grimme D3
 SCF converges when DIIS error is below 1.0E-08
 using 8 threads for integral computing
 -------------------------------------------------------
 OpenMP Integral computing Module                
 Release: version 2.0, May 2017, Q-Chem Inc. Pleasanton 
 -------------------------------------------------------
 -------------------------------------------------------
 OpenMP BLAS3 based DFT computing Module                
 Release: version 1.0, May 2013, Q-Chem Inc. Pittsburgh 
 -------------------------------------------------------
 MOM overlap:    156.9338234609 / 158
 MOM overlap:    157.8959387843 / 158
 ---------------------------------------
  Cycle       Energy         DIIS Error
 ---------------------------------------
    1   -1855.3080344991      6.62E-04
 Using non-symmetric K matrix
 MOM overlap:    157.9606034252 / 158
 MOM overlap:    157.9589771948 / 158
    2   -1855.3521733011      1.36E-03
 MOM overlap:    157.9976281842 / 158
 MOM overlap:    157.9978651816 / 158
    3   -1855.5075144624      4.57E-04
 MOM overlap:    157.9986250940 / 158
 MOM overlap:    157.9987350813 / 158
    4   -1855.5194849598      3.34E-04
 MOM overlap:    157.9993109547 / 158
 MOM overlap:    157.9993358730 / 158
    5   -1855.5275325359      2.14E-04
 MOM overlap:    157.9992812678 / 158
 MOM overlap:    157.9992853359 / 158
    6   -1855.5311164037      1.32E-04
 MOM overlap:    157.9998455582 / 158
 MOM overlap:    157.9998250796 / 158
    7   -1855.5330629063      5.15E-05
 MOM overlap:    157.9999808572 / 158
 MOM overlap:    157.9999753383 / 158
    8   -1855.5334031931      1.40E-05
 MOM overlap:    157.9999981716 / 158
 MOM overlap:    157.9999968894 / 158
    9   -1855.5334374421      3.38E-06
 MOM overlap:    157.9999989009 / 158
 MOM overlap:    157.9999990696 / 158
   10   -1855.5334418680      7.31E-07
 MOM overlap:    157.9999993486 / 158
 MOM overlap:    157.9999993194 / 158
   11   -1855.5334437797      2.33E-07
 MOM overlap:    157.9999996378 / 158
 MOM overlap:    157.9999996543 / 158
   12   -1855.5334449718      1.02E-07
 MOM overlap:    157.9999997448 / 158
 MOM overlap:    157.9999997489 / 158
   13   -1855.5334456607      3.73E-08
 MOM overlap:    157.9999997999 / 158
 MOM overlap:    157.9999998014 / 158
   14   -1855.5334461305      1.17E-08
 MOM overlap:    157.9999998535 / 158
 MOM overlap:    157.9999998542 / 158
   15   -1855.5334464637      4.41E-09 Convergence criterion met
 ---------------------------------------

************** Final PCM Free Energy Summary **************
 G_electrostatic  =      -0.01647322 hartree =     -10.33710077 kcal/mol
 G_cavitation     =       0.00000000 hartree =       0.00000000 kcal/mol
 G_dispersion     =       0.00000000 hartree =       0.00000000 kcal/mol
 G_repulsion      =       0.00000000 hartree =       0.00000000 kcal/mol
 --------------------------------------------------
 Non-electrostatic Free Energy =       0.00000000 hartree =       0.00000000 kcal/mol
 Total                         =      -0.01647322 hartree =     -10.33710077 kcal/mol
 --------------------------------------------------
 SCF Energy (H0 + V/2)                       =   -1855.53344646 
 Solute Internal Energy (H0)                 =   -1855.51697324 
 Total Free Energy (H0 + V/2 + non-elec)     =   -1855.53344646 hartree
                                             = -1164364.81141325 kcal/mol
***********************************************************

 <S^2> = 0.0000
 SCF time:  CPU 4005.03 s  wall 843.23 s
 SCF   energy in the final basis set = -1855.53344646
 Total energy in the final basis set = -1855.53344646
 
 --------------------------------------------------------------
 
                    Orbital Energies (a.u.)
 --------------------------------------------------------------
 
 Alpha MOs
 -- Occupied --
-14.680 -14.667 -14.664 -10.528 -10.526 -10.512 -10.509 -10.509
-10.508 -10.501 -10.495 -10.492 -10.492 -10.491 -10.490 -10.483
-10.475 -10.473 -10.471 -10.469 -10.468 -10.467 -10.467 -10.461
-10.461 -10.461 -10.460 -10.460 -10.460 -10.459 -10.459 -10.458
-10.458 -10.458 -10.458 -10.450 -10.450 -10.442 -10.442 -10.441
-10.440 -10.440 -10.437 -10.435 -10.434 -10.426 -10.424  -1.096
 -1.041  -1.027  -1.025  -1.000  -0.983  -0.963  -0.958  -0.956
 -0.935  -0.929  -0.909  -0.897  -0.887  -0.880  -0.854  -0.850
 -0.848  -0.842  -0.835  -0.820  -0.818  -0.805  -0.791  -0.774
 -0.769  -0.742  -0.726  -0.724  -0.711  -0.710  -0.702  -0.686
 -0.677  -0.673  -0.668  -0.666  -0.663  -0.643  -0.616  -0.614
 -0.612  -0.606  -0.595  -0.583  -0.575  -0.566  -0.560  -0.556
 -0.538  -0.535  -0.532  -0.528  -0.526  -0.522  -0.521  -0.519
 -0.512  -0.506  -0.504  -0.502  -0.496  -0.496  -0.494  -0.488
 -0.488  -0.484  -0.483  -0.480  -0.469  -0.462  -0.458  -0.450
 -0.449  -0.446  -0.443  -0.442  -0.437  -0.437  -0.433  -0.430
 -0.426  -0.426  -0.424  -0.419  -0.417  -0.413  -0.412  -0.408
 -0.405  -0.402  -0.400  -0.398  -0.397  -0.395  -0.390  -0.375
 -0.373  -0.365  -0.344  -0.333  -0.322  -0.309  -0.303  -0.299
 -0.296  -0.288  -0.286  -0.284  -0.266  -0.219
 -- Virtual --
 -0.079  -0.036  -0.024  -0.011  -0.007  -0.001   0.013   0.016
  0.023   0.034   0.040   0.052   0.054   0.056   0.078   0.104
  0.121   0.129   0.135   0.138   0.141   0.144   0.153   0.156
  0.160   0.163   0.167   0.170   0.176   0.180   0.181   0.188
  0.193   0.195   0.199   0.200   0.203   0.204   0.209   0.214
  0.216   0.218   0.223   0.226   0.230   0.232   0.234   0.236
  0.240   0.241   0.243   0.245   0.251   0.254   0.257   0.258
  0.262   0.267   0.269   0.272   0.272   0.280   0.281   0.287
  0.290   0.295   0.298   0.299   0.304   0.308   0.310   0.315
  0.315   0.322   0.335   0.337   0.340   0.343   0.353   0.360
  0.362   0.375   0.376   0.379   0.384   0.388   0.395   0.402
  0.405   0.411   0.420   0.427   0.430   0.442   0.447   0.455
  0.460   0.468   0.469   0.477   0.479   0.480   0.490   0.493
  0.503   0.505   0.508   0.514   0.516   0.518   0.523   0.524
  0.525   0.530   0.533   0.534   0.540   0.542   0.548   0.550
  0.556   0.556   0.562   0.568   0.568   0.571   0.571   0.576
  0.577   0.582   0.585   0.585   0.588   0.593   0.598   0.600
  0.601   0.602   0.606   0.610   0.617   0.618   0.619   0.622
  0.625   0.627   0.627   0.631   0.634   0.635   0.636   0.643
  0.646   0.649   0.650   0.656   0.659   0.665   0.666   0.669
  0.675   0.678   0.680   0.685   0.686   0.693   0.695   0.700
  0.702   0.705   0.707   0.712   0.716   0.718   0.721   0.727
  0.729   0.734   0.740   0.746   0.747   0.751   0.756   0.758
  0.763   0.767   0.769   0.777   0.781   0.786   0.792   0.802
  0.808   0.813   0.818   0.824   0.828   0.833   0.836   0.845
  0.847   0.853   0.863   0.874   0.877   0.885   0.893   0.905
  0.911   0.915   0.917   0.926   0.929   0.938   0.941   0.945
  0.945   0.953   0.953   0.955   0.959   0.968   0.970   0.973
  0.974   0.977   0.984   0.986   0.992   0.996   0.999   1.004
  1.008   1.012   1.014   1.016   1.017   1.019   1.026   1.027
  1.032   1.039   1.046   1.047   1.052   1.056   1.059   1.061
  1.064   1.069   1.073   1.077   1.080   1.081   1.083   1.096
  1.098   1.102   1.106   1.108   1.112   1.120   1.127   1.129
  1.131   1.131   1.139   1.141   1.147   1.149   1.153   1.157
  1.163   1.170   1.180   1.183   1.190   1.193   1.203   1.208
  1.215   1.217   1.224   1.227   1.235   1.237   1.257   1.275
  1.277   1.279   1.284   1.288   1.301   1.306   1.311   1.314
  1.316   1.321   1.323   1.331   1.336   1.341   1.345   1.352
  1.358   1.363   1.367   1.374   1.382   1.390   1.396   1.401
  1.412   1.419   1.423   1.428   1.433   1.454   1.470   1.478
  1.482   1.498   1.502   1.505   1.508   1.516   1.521   1.530
  1.536   1.540   1.543   1.546   1.548   1.550   1.553   1.555
  1.561   1.568   1.572   1.575   1.577   1.584   1.590   1.595
  1.602   1.604   1.607   1.617   1.620   1.630   1.638   1.644
  1.655   1.663   1.668   1.682   1.697   1.708   1.711   1.734
  1.737   1.740   1.755   1.761   1.777   1.780   1.783   1.793
  1.801   1.811   1.815   1.827   1.829   1.833   1.839   1.842
  1.843   1.853   1.859   1.866   1.868   1.874   1.884   1.886
  1.896   1.906   1.914   1.925   1.928   1.933   1.943   1.947
  1.954   1.956   1.958   1.972   1.977   1.982   1.987   1.990
  2.000   2.005   2.012   2.012   2.022   2.023   2.032   2.041
  2.045   2.047   2.055   2.056   2.059   2.073   2.076   2.082
  2.089   2.099   2.108   2.119   2.133   2.141   2.142   2.144
  2.150   2.156   2.160   2.169   2.173   2.174   2.176   2.181
  2.189   2.195   2.200   2.202   2.215   2.219   2.225   2.231
  2.238   2.247   2.254   2.261   2.265   2.267   2.271   2.278
  2.280   2.290   2.293   2.300   2.302   2.308   2.311   2.320
  2.322   2.335   2.338   2.344   2.350   2.355   2.362   2.366
  2.372   2.374   2.379   2.382   2.389   2.390   2.403   2.409
  2.411   2.418   2.437   2.443   2.457   2.468   2.473   2.490
  2.495   2.511   2.515   2.526   2.535   2.539   2.553   2.574
  2.583   2.589   2.598   2.612   2.616   2.632   2.646   2.651
  2.660   2.674   2.684   2.687   2.695   2.699   2.709   2.714
  2.722   2.726   2.734   2.738   2.741   2.743   2.747   2.756
  2.768   2.770   2.774   2.781   2.782   2.797   2.799   2.819
  2.820   2.824   2.828   2.832   2.843   2.847   2.861   2.866
  2.875   2.886   2.897   2.899   2.902   2.918   2.924   2.943
  2.945   2.975   2.981   2.981   2.988   3.014   3.023   3.032
  3.036   3.056   3.065   3.079   3.147   3.216   3.277   3.310
  3.362   3.371   3.377   3.395   3.412   3.495   3.558   3.567
  3.595   3.643  13.202  13.251  13.267  13.336  13.368  13.426
 13.626  13.662  13.673  13.693  13.721  13.737  13.761  13.773
 13.779  13.814  13.823  13.839  13.894  13.912  13.924  13.981
 14.073  14.124  14.136  14.172  14.176  14.196  14.201  14.213
 14.228  14.251  14.254  14.271  14.275  14.284  14.321  14.394
 14.548  14.577  14.578  14.590  14.602  14.609  19.479  19.538
 19.632
 
 Beta MOs
 -- Occupied --
-14.680 -14.667 -14.664 -10.528 -10.526 -10.512 -10.509 -10.509
-10.508 -10.501 -10.495 -10.492 -10.492 -10.491 -10.490 -10.483
-10.475 -10.473 -10.471 -10.469 -10.468 -10.467 -10.467 -10.461
-10.461 -10.461 -10.460 -10.460 -10.460 -10.459 -10.459 -10.458
-10.458 -10.458 -10.458 -10.450 -10.450 -10.442 -10.442 -10.441
-10.440 -10.440 -10.437 -10.435 -10.434 -10.426 -10.424  -1.096
 -1.041  -1.027  -1.025  -1.000  -0.983  -0.963  -0.958  -0.956
 -0.935  -0.929  -0.909  -0.897  -0.887  -0.880  -0.854  -0.850
 -0.848  -0.842  -0.835  -0.820  -0.818  -0.805  -0.791  -0.774
 -0.769  -0.742  -0.726  -0.724  -0.711  -0.710  -0.702  -0.686
 -0.677  -0.673  -0.668  -0.666  -0.663  -0.643  -0.616  -0.614
 -0.612  -0.606  -0.595  -0.583  -0.575  -0.566  -0.560  -0.556
 -0.538  -0.535  -0.532  -0.528  -0.526  -0.522  -0.521  -0.519
 -0.512  -0.506  -0.504  -0.502  -0.496  -0.496  -0.494  -0.488
 -0.488  -0.484  -0.483  -0.480  -0.469  -0.462  -0.458  -0.450
 -0.449  -0.446  -0.443  -0.442  -0.437  -0.437  -0.433  -0.430
 -0.426  -0.426  -0.424  -0.419  -0.417  -0.413  -0.412  -0.408
 -0.405  -0.402  -0.400  -0.398  -0.397  -0.395  -0.390  -0.375
 -0.373  -0.365  -0.344  -0.333  -0.322  -0.309  -0.303  -0.299
 -0.296  -0.288  -0.286  -0.284  -0.266  -0.219
 -- Virtual --
 -0.079  -0.036  -0.024  -0.011  -0.007  -0.001   0.013   0.016
  0.023   0.034   0.040   0.052   0.054   0.056   0.078   0.104
  0.121   0.129   0.135   0.138   0.141   0.144   0.153   0.156
  0.160   0.163   0.167   0.170   0.176   0.180   0.181   0.188
  0.193   0.195   0.199   0.200   0.203   0.204   0.209   0.214
  0.216   0.218   0.223   0.226   0.230   0.232   0.234   0.236
  0.240   0.241   0.243   0.245   0.251   0.254   0.257   0.258
  0.262   0.267   0.269   0.272   0.272   0.280   0.281   0.287
  0.290   0.295   0.298   0.299   0.304   0.308   0.310   0.315
  0.315   0.322   0.335   0.337   0.340   0.343   0.353   0.360
  0.362   0.375   0.376   0.379   0.384   0.388   0.395   0.402
  0.405   0.411   0.420   0.427   0.430   0.442   0.447   0.455
  0.460   0.468   0.469   0.477   0.479   0.480   0.490   0.493
  0.503   0.505   0.508   0.514   0.516   0.518   0.523   0.524
  0.525   0.530   0.533   0.534   0.540   0.542   0.548   0.550
  0.556   0.556   0.562   0.568   0.568   0.571   0.571   0.576
  0.577   0.582   0.585   0.585   0.588   0.593   0.598   0.600
  0.601   0.602   0.606   0.610   0.617   0.618   0.619   0.622
  0.625   0.627   0.627   0.631   0.634   0.635   0.636   0.643
  0.646   0.649   0.650   0.656   0.659   0.665   0.666   0.669
  0.675   0.678   0.680   0.685   0.686   0.693   0.695   0.700
  0.702   0.705   0.707   0.712   0.716   0.718   0.721   0.727
  0.729   0.734   0.740   0.746   0.747   0.751   0.756   0.758
  0.763   0.767   0.769   0.777   0.781   0.786   0.792   0.802
  0.808   0.813   0.818   0.824   0.828   0.833   0.836   0.845
  0.847   0.853   0.863   0.874   0.877   0.885   0.893   0.905
  0.911   0.915   0.917   0.926   0.929   0.938   0.941   0.945
  0.945   0.953   0.953   0.955   0.959   0.968   0.970   0.973
  0.974   0.977   0.984   0.986   0.992   0.996   0.999   1.004
  1.008   1.012   1.014   1.016   1.017   1.019   1.026   1.027
  1.032   1.039   1.046   1.047   1.052   1.056   1.059   1.061
  1.064   1.069   1.073   1.077   1.080   1.081   1.083   1.096
  1.098   1.102   1.106   1.108   1.112   1.120   1.127   1.129
  1.131   1.131   1.139   1.141   1.147   1.149   1.153   1.157
  1.163   1.170   1.180   1.183   1.190   1.193   1.203   1.208
  1.215   1.217   1.224   1.227   1.235   1.237   1.257   1.275
  1.277   1.279   1.284   1.288   1.301   1.306   1.311   1.314
  1.316   1.321   1.323   1.331   1.336   1.341   1.345   1.352
  1.358   1.363   1.367   1.374   1.382   1.390   1.396   1.401
  1.412   1.419   1.423   1.428   1.433   1.454   1.470   1.478
  1.482   1.498   1.502   1.505   1.508   1.516   1.521   1.530
  1.536   1.540   1.543   1.546   1.548   1.550   1.553   1.555
  1.561   1.568   1.572   1.575   1.577   1.584   1.590   1.595
  1.602   1.604   1.607   1.617   1.620   1.630   1.638   1.644
  1.655   1.663   1.668   1.682   1.697   1.708   1.711   1.734
  1.737   1.740   1.755   1.761   1.777   1.780   1.783   1.793
  1.801   1.811   1.815   1.827   1.829   1.833   1.839   1.842
  1.843   1.853   1.859   1.866   1.868   1.874   1.884   1.886
  1.896   1.906   1.914   1.925   1.928   1.933   1.943   1.947
  1.954   1.956   1.958   1.972   1.977   1.982   1.987   1.990
  2.000   2.005   2.012   2.012   2.022   2.023   2.032   2.041
  2.045   2.047   2.055   2.056   2.059   2.073   2.076   2.082
  2.089   2.099   2.108   2.119   2.133   2.141   2.142   2.144
  2.150   2.156   2.160   2.169   2.173   2.174   2.176   2.181
  2.189   2.195   2.200   2.202   2.215   2.219   2.225   2.231
  2.238   2.247   2.254   2.261   2.265   2.267   2.271   2.278
  2.280   2.290   2.293   2.300   2.302   2.308   2.311   2.320
  2.322   2.335   2.338   2.344   2.350   2.355   2.362   2.366
  2.372   2.374   2.379   2.382   2.389   2.390   2.403   2.409
  2.411   2.418   2.437   2.443   2.457   2.468   2.473   2.490
  2.495   2.511   2.515   2.526   2.535   2.539   2.553   2.574
  2.583   2.589   2.598   2.612   2.616   2.632   2.646   2.651
  2.660   2.674   2.684   2.687   2.695   2.699   2.709   2.714
  2.722   2.726   2.734   2.738   2.741   2.743   2.747   2.756
  2.768   2.770   2.774   2.781   2.782   2.797   2.799   2.819
  2.820   2.824   2.828   2.832   2.843   2.847   2.861   2.866
  2.875   2.886   2.897   2.899   2.902   2.918   2.924   2.943
  2.945   2.975   2.981   2.981   2.988   3.014   3.023   3.032
  3.036   3.056   3.065   3.079   3.147   3.216   3.277   3.310
  3.362   3.371   3.377   3.395   3.412   3.495   3.558   3.567
  3.595   3.643  13.202  13.251  13.267  13.336  13.368  13.426
 13.626  13.662  13.673  13.693  13.721  13.737  13.761  13.773
 13.779  13.814  13.823  13.839  13.894  13.912  13.924  13.981
 14.073  14.124  14.136  14.172  14.176  14.196  14.201  14.213
 14.228  14.251  14.254  14.271  14.275  14.284  14.321  14.394
 14.548  14.577  14.578  14.590  14.602  14.609  19.479  19.539
 19.632
 --------------------------------------------------------------
 
          Ground-State Mulliken Net Atomic Charges

     Atom                 Charge (a.u.)    Spin (a.u.)
  --------------------------------------------------------
      1 N                    -0.693793      -0.000011
      2 C                     0.310636      -0.000012
      3 C                     0.314950       0.000005
      4 C                    -0.303094       0.000016
      5 H                     0.256202      -0.000001
      6 C                    -0.245524      -0.000015
      7 H                     0.229139       0.000001
      8 C                    -0.245475       0.000017
      9 H                     0.223511      -0.000001
     10 C                    -0.325679      -0.000016
     11 H                     0.223866       0.000001
     12 C                     0.154918       0.000016
     13 C                    -0.316638      -0.000002
     14 H                     0.274707      -0.000001
     15 C                    -0.240193       0.000001
     16 H                     0.226106       0.000000
     17 C                    -0.247728      -0.000002
     18 H                     0.220919       0.000000
     19 C                    -0.323092       0.000002
     20 H                     0.224079      -0.000000
     21 C                     0.140973      -0.000002
     22 C                     0.177426       0.000111
     23 C                    -0.275001      -0.000108
     24 H                     0.290585       0.000010
     25 C                    -0.224224      -0.000111
     26 H                     0.252758       0.000009
     27 C                    -0.315235       0.000088
     28 H                     0.235630      -0.000007
     29 C                     0.230198       0.000007
     30 C                     0.056316      -0.000075
     31 C                    -0.520596      -0.000005
     32 H                     0.259606       0.000000
     33 H                     0.259086      -0.000002
     34 C                    -0.231399      -0.000001
     35 C                    -0.658096       0.000000
     36 H                     0.231406      -0.000000
     37 H                     0.231767      -0.000000
     38 H                     0.242956      -0.000000
     39 C                    -0.553931       0.000026
     40 H                     0.265744      -0.000001
     41 H                     0.265154      -0.000012
     42 C                     0.142436      -0.000223
     43 C                    -0.316646      -0.000181
     44 H                     0.265886       0.000028
     45 C                     0.070692       0.000210
     46 C                     0.008261      -0.001485
     47 N                    -0.190389       0.001472
     48 C                     0.077632       0.000461
     49 C                    -0.290829      -0.000555
     50 H                     0.289863       0.000064
     51 C                     0.155781       0.000166
     52 C                     0.007376      -0.001296
     53 N                    -0.190851       0.001293
     54 C                    -0.407283       0.000273
     55 C                     0.020532      -0.001385
     56 C                    -0.263859       0.001534
     57 H                     0.243369      -0.000127
     58 C                    -0.250753      -0.001409
     59 H                     0.244689       0.000113
     60 C                    -0.222201       0.001448
     61 H                     0.244302      -0.000112
     62 C                    -0.338010      -0.001228
     63 H                     0.231597       0.000091
     64 C                     0.159081       0.001014
     65 C                     0.125437       0.001349
     66 C                    -0.331598      -0.001571
     67 H                     0.231438       0.000118
     68 C                    -0.229961       0.001781
     69 H                     0.243913      -0.000136
     70 C                    -0.234646      -0.001774
     71 H                     0.241234       0.000140
     72 C                    -0.295384       0.001855
     73 H                     0.230862      -0.000157
     74 C                     0.169848      -0.001696
     75 C                    -0.599974       0.000001
     76 H                     0.225000       0.000000
     77 H                     0.223294      -0.000000
     78 H                     0.230920      -0.000000
  --------------------------------------------------------
  Sum of atomic charges =    -0.000000
  Sum of spin   charges =    -0.000000

 -----------------------------------------------------------------
                    Cartesian Multipole Moments
 -----------------------------------------------------------------
    Charge (ESU x 10^10)
                -0.0000
    Dipole Moment (Debye)
         X       2.4015      Y      -4.1028      Z       6.2307
       Tot       7.8372
    Quadrupole Moments (Debye-Ang)
        XX    -286.8980     XY      42.3715     YY    -290.5380
        XZ     -59.3539     YZ      51.2997     ZZ    -331.5608
    Octopole Moments (Debye-Ang^2)
       XXX    1768.6421    XXY    -831.9935    XYY     719.3592
       YYY   -1586.8650    XXZ     950.6399    XYZ    -422.7529
       YYZ     810.7779    XZZ    1018.3279    YZZ    -942.6123
       ZZZ    2076.3244
    Hexadecapole Moments (Debye-Ang^3)
      XXXX  -24523.2344   XXXY    8653.6458   XXYY   -7693.0231
      XYYY    7261.0506   YYYY  -14132.4763   XXXZ  -10546.1984
      XXYZ    4735.6527   XYYZ   -4428.7185   YYYZ    7620.9487
      XXZZ  -10291.3310   XYZZ    4968.3547   YYZZ   -7998.1703
      XZZZ  -10833.4564   YZZZ    9438.8397   ZZZZ  -23092.8397
 -----------------------------------------------------------------
 Calculating analytic gradient of the SCF energy
 -1.234206203794527E-003 -1.234213066318358E-003
 -1.234218246441768E-003 -1.234201049532944E-003
 -1.234201528907532E-003 -1.234217721960982E-003
 -1.234177561177598E-003 -1.234241698384871E-003
 -1.234238026713468E-003 -1.234181289551240E-003
 -1.234195159474660E-003 -1.234224107857182E-003
 -1.234185330268501E-003 -1.234233930386396E-003
 -1.234222978925465E-003 -1.234196332622430E-003
 -1.234187870109656E-003 -1.234231384115634E-003
 -1.234209535284036E-003 -1.234209729123445E-003
 -1.234220617182392E-003 -1.234198692231904E-003
 -1.234173655159957E-003 -1.234245604065526E-003
 -1.234197571359827E-003 -1.234221680407633E-003
 -1.234211320916096E-003 -1.234207973121681E-003
 -1.234195214606462E-003 -1.234224052872555E-003
 -1.234194888535834E-003 -1.234224348330738E-003
 -1.234224127278468E-003 -1.234195179613446E-003
 -1.234207267279326E-003 -1.234212019746303E-003
 -1.234210683738672E-003 -1.234208574777554E-003
 -1.234213150682199E-003 -1.234206115405757E-003
 -1.234184918391782E-003 -1.234234338781830E-003
 -1.234234027180251E-003 -1.234185255007398E-003
 -1.234212214376614E-003 -1.234207110737631E-003
 -1.234175674075865E-003 -1.234243578425932E-003
 -1.234210233826974E-003 -1.234209051557420E-003
 -1.234215805587016E-003 -1.234203496072552E-003
 -1.234207409832071E-003 -1.234211866833515E-003
 -1.234184897329524E-003 -1.234234332818916E-003
 -1.234230063612919E-003 -1.234189266008087E-003
 -1.234210173179923E-003 -1.234209112509974E-003
 -1.234226649821773E-003 -1.234192582704024E-003
 -1.234212634974809E-003 -1.234206674035708E-003
 -1.234202721117343E-003 -1.234216566090096E-003
 -1.234227931339934E-003 -1.234191342896884E-003
 -1.234220590033368E-003 -1.234198743628321E-003
 -1.234208760318223E-003 -1.234210498458787E-003
 -1.234201971930886E-003 -1.234217301586512E-003
 -1.234190664135440E-003 -1.234228650847071E-003
 -1.234220892023407E-003 -1.234198366361507E-003
 -1.234195382275153E-003 -1.234223894404375E-003
 -1.234179915567697E-003 -1.234239387399549E-003
 -1.234203656257397E-003 -1.234215611743149E-003
[...]
  0.215   0.221   0.225   0.225   0.229   0.233   0.233   0.235
  0.240   0.243   0.245   0.246   0.250   0.250   0.256   0.257
  0.259   0.263   0.267   0.269   0.275   0.279   0.281   0.285
  0.289   0.295   0.299   0.302   0.303   0.310   0.312   0.313
  0.319   0.330   0.333   0.338   0.342   0.352   0.357   0.365
  0.366   0.369   0.375   0.377   0.380   0.386   0.391   0.399
  0.406   0.416   0.423   0.426   0.431   0.434   0.450   0.460
  0.462   0.469   0.476   0.477   0.484   0.485   0.492   0.501
  0.506   0.511   0.512   0.518   0.522   0.524   0.526   0.529
  0.531   0.535   0.537   0.539   0.541   0.546   0.551   0.553
  0.556   0.558   0.563   0.565   0.568   0.570   0.572   0.575
  0.582   0.585   0.588   0.589   0.593   0.596   0.601   0.602
  0.604   0.605   0.609   0.614   0.615   0.617   0.622   0.623
  0.625   0.627   0.629   0.631   0.635   0.642   0.642   0.647
  0.647   0.649   0.651   0.654   0.659   0.662   0.666   0.668
  0.672   0.676   0.679   0.683   0.683   0.686   0.687   0.694
  0.698   0.702   0.705   0.707   0.716   0.718   0.724   0.726
  0.727   0.733   0.737   0.739   0.745   0.749   0.751   0.752
  0.759   0.763   0.769   0.772   0.778   0.787   0.790   0.795
  0.802   0.809   0.813   0.821   0.824   0.828   0.830   0.837
  0.846   0.861   0.863   0.874   0.884   0.891   0.899   0.904
  0.907   0.914   0.915   0.929   0.932   0.933   0.939   0.945
  0.947   0.952   0.956   0.958   0.960   0.968   0.970   0.971
  0.977   0.979   0.982   0.989   0.991   0.999   1.000   1.004
  1.007   1.009   1.013   1.017   1.020   1.026   1.028   1.031
  1.039   1.042   1.045   1.050   1.052   1.055   1.058   1.060
  1.064   1.067   1.070   1.076   1.081   1.082   1.087   1.090
  1.095   1.099   1.102   1.107   1.113   1.116   1.119   1.124
  1.132   1.132   1.139   1.143   1.147   1.153   1.156   1.162
  1.165   1.170   1.180   1.182   1.185   1.193   1.198   1.202
  1.216   1.220   1.238   1.241   1.253   1.255   1.260   1.266
  1.270   1.272   1.289   1.294   1.294   1.302   1.309   1.312
  1.317   1.321   1.327   1.329   1.336   1.342   1.348   1.351
  1.358   1.362   1.365   1.378   1.382   1.394   1.398   1.407
  1.413   1.418   1.436   1.441   1.443   1.455   1.463   1.479
  1.496   1.503   1.504   1.506   1.517   1.520   1.522   1.528
  1.537   1.538   1.541   1.543   1.548   1.549   1.554   1.559
  1.564   1.567   1.572   1.576   1.585   1.587   1.593   1.600
  1.601   1.609   1.611   1.621   1.626   1.631   1.641   1.651
  1.657   1.663   1.683   1.698   1.703   1.712   1.725   1.735
  1.743   1.754   1.758   1.767   1.777   1.784   1.787   1.796
  1.803   1.813   1.822   1.823   1.829   1.838   1.838   1.844
  1.851   1.854   1.857   1.862   1.866   1.875   1.883   1.888
  1.894   1.910   1.914   1.920   1.930   1.934   1.943   1.946
  1.957   1.960   1.968   1.977   1.982   1.983   1.994   1.996
  1.998   1.998   2.011   2.017   2.018   2.023   2.034   2.041
  2.045   2.045   2.053   2.059   2.064   2.069   2.078   2.087
  2.094   2.104   2.112   2.121   2.137   2.138   2.144   2.145
  2.147   2.159   2.164   2.165   2.170   2.173   2.178   2.189
  2.194   2.196   2.205   2.212   2.218   2.224   2.228   2.236
  2.243   2.247   2.253   2.258   2.261   2.267   2.273   2.281
  2.284   2.293   2.296   2.302   2.311   2.312   2.317   2.321
  2.328   2.335   2.344   2.346   2.353   2.359   2.364   2.365
  2.367   2.375   2.381   2.384   2.389   2.392   2.396   2.404
  2.413   2.423   2.436   2.438   2.462   2.473   2.478   2.487
  2.503   2.513   2.518   2.526   2.531   2.544   2.559   2.588
  2.593   2.596   2.600   2.608   2.622   2.633   2.640   2.657
  2.665   2.681   2.690   2.697   2.701   2.710   2.712   2.720
  2.727   2.735   2.737   2.739   2.741   2.750   2.751   2.760
  2.764   2.770   2.775   2.781   2.782   2.796   2.799   2.815
  2.817   2.823   2.830   2.836   2.842   2.853   2.859   2.866
  2.873   2.888   2.892   2.896   2.903   2.909   2.919   2.939
  2.942   2.976   2.981   2.985   2.995   3.014   3.022   3.033
  3.036   3.046   3.078   3.092   3.150   3.224   3.285   3.328
  3.363   3.374   3.378   3.388   3.414   3.503   3.549   3.556
  3.595   3.675  13.198  13.245  13.273  13.325  13.354  13.417
 13.632  13.665  13.671  13.720  13.732  13.736  13.760  13.766
 13.778  13.804  13.818  13.823  13.902  13.918  13.928  14.027
 14.070  14.092  14.128  14.177  14.178  14.192  14.194  14.217
 14.229  14.246  14.250  14.258  14.266  14.287  14.319  14.410
 14.575  14.584  14.585  14.595  14.599  14.624  19.488  19.561
 19.615
 
 Beta MOs
 -- Occupied --
-14.676 -14.662 -14.660 -10.520 -10.519 -10.508 -10.506 -10.505
-10.504 -10.495 -10.495 -10.490 -10.489 -10.489 -10.489 -10.481
-10.472 -10.471 -10.471 -10.469 -10.468 -10.468 -10.464 -10.462
-10.461 -10.461 -10.460 -10.460 -10.459 -10.459 -10.458 -10.458
-10.458 -10.457 -10.456 -10.452 -10.451 -10.444 -10.444 -10.443
-10.442 -10.442 -10.440 -10.438 -10.436 -10.427 -10.426  -1.089
 -1.043  -1.029  -1.025  -1.003  -0.983  -0.963  -0.959  -0.958
 -0.935  -0.928  -0.910  -0.894  -0.886  -0.880  -0.853  -0.851
 -0.847  -0.841  -0.834  -0.820  -0.819  -0.805  -0.790  -0.771
 -0.769  -0.743  -0.726  -0.722  -0.712  -0.707  -0.700  -0.687
 -0.676  -0.674  -0.671  -0.666  -0.664  -0.642  -0.619  -0.611
 -0.611  -0.605  -0.594  -0.579  -0.576  -0.567  -0.562  -0.556
 -0.539  -0.535  -0.534  -0.530  -0.525  -0.522  -0.520  -0.518
 -0.510  -0.505  -0.503  -0.501  -0.497  -0.495  -0.495  -0.491
 -0.489  -0.488  -0.480  -0.479  -0.469  -0.464  -0.457  -0.448
 -0.446  -0.444  -0.442  -0.441  -0.437  -0.436  -0.432  -0.429
 -0.426  -0.425  -0.422  -0.418  -0.418  -0.413  -0.411  -0.409
 -0.407  -0.402  -0.401  -0.400  -0.396  -0.395  -0.389  -0.379
 -0.373  -0.358  -0.345  -0.336  -0.320  -0.310  -0.303  -0.301
 -0.294  -0.289  -0.287  -0.281  -0.266  -0.230
 -- Virtual --
 -0.063  -0.038  -0.024  -0.011  -0.005   0.001   0.014   0.019
  0.023   0.032   0.044   0.045   0.054   0.065   0.087   0.106
  0.118   0.129   0.133   0.139   0.139   0.144   0.153   0.156
  0.160   0.163   0.165   0.168   0.173   0.179   0.184   0.187
  0.195   0.196   0.198   0.200   0.201   0.203   0.212   0.214
  0.215   0.221   0.225   0.225   0.229   0.233   0.233   0.235
  0.240   0.243   0.245   0.246   0.250   0.250   0.256   0.257
  0.259   0.263   0.267   0.269   0.275   0.279   0.281   0.285
  0.289   0.295   0.299   0.302   0.303   0.310   0.312   0.313
  0.319   0.330   0.333   0.338   0.342   0.352   0.357   0.365
  0.366   0.369   0.375   0.377   0.380   0.386   0.391   0.399
  0.406   0.416   0.423   0.426   0.431   0.434   0.450   0.460
  0.462   0.469   0.476   0.477   0.484   0.485   0.492   0.501
  0.506   0.511   0.512   0.518   0.522   0.524   0.526   0.529
  0.531   0.535   0.537   0.539   0.541   0.546   0.551   0.553
  0.556   0.558   0.563   0.565   0.568   0.570   0.572   0.575
  0.582   0.585   0.588   0.589   0.593   0.596   0.601   0.602
  0.604   0.605   0.609   0.614   0.615   0.617   0.622   0.623
  0.625   0.627   0.629   0.631   0.635   0.642   0.642   0.647
  0.647   0.649   0.651   0.654   0.659   0.662   0.666   0.668
  0.672   0.676   0.679   0.683   0.683   0.686   0.687   0.694
  0.698   0.702   0.705   0.707   0.716   0.718   0.724   0.726
  0.727   0.733   0.737   0.739   0.745   0.749   0.751   0.752
  0.759   0.763   0.769   0.772   0.778   0.787   0.790   0.795
  0.802   0.809   0.813   0.821   0.824   0.828   0.830   0.837
  0.846   0.861   0.863   0.874   0.884   0.891   0.899   0.904
  0.907   0.914   0.915   0.929   0.932   0.933   0.939   0.945
  0.947   0.952   0.956   0.958   0.960   0.968   0.970   0.971
  0.977   0.979   0.982   0.989   0.991   0.999   1.000   1.004
  1.007   1.009   1.013   1.017   1.020   1.026   1.028   1.031
  1.039   1.042   1.045   1.050   1.052   1.055   1.058   1.060
  1.064   1.067   1.070   1.076   1.081   1.082   1.087   1.090
  1.095   1.099   1.102   1.107   1.113   1.116   1.119   1.124
  1.132   1.132   1.139   1.143   1.147   1.153   1.156   1.162
  1.165   1.170   1.180   1.182   1.185   1.193   1.198   1.202
  1.216   1.220   1.238   1.241   1.253   1.255   1.260   1.266
  1.270   1.272   1.289   1.294   1.294   1.302   1.309   1.312
  1.317   1.321   1.327   1.329   1.336   1.342   1.348   1.351
  1.358   1.362   1.365   1.378   1.382   1.394   1.398   1.407
  1.413   1.418   1.436   1.441   1.443   1.455   1.463   1.479
  1.496   1.503   1.504   1.506   1.517   1.520   1.522   1.528
  1.537   1.538   1.541   1.543   1.548   1.549   1.554   1.559
  1.564   1.567   1.572   1.576   1.585   1.587   1.593   1.600
  1.601   1.609   1.611   1.621   1.626   1.631   1.641   1.651
  1.657   1.663   1.683   1.698   1.703   1.712   1.725   1.735
  1.743   1.754   1.758   1.767   1.777   1.784   1.787   1.796
  1.803   1.813   1.822   1.823   1.829   1.838   1.838   1.844
  1.851   1.854   1.857   1.862   1.866   1.875   1.883   1.888
  1.894   1.910   1.914   1.920   1.930   1.934   1.943   1.946
  1.957   1.960   1.968   1.977   1.982   1.983   1.994   1.996
  1.998   1.998   2.011   2.017   2.018   2.023   2.034   2.041
  2.045   2.045   2.053   2.059   2.064   2.069   2.078   2.087
  2.094   2.104   2.112   2.121   2.137   2.138   2.144   2.145
  2.147   2.159   2.164   2.165   2.170   2.173   2.178   2.189
  2.194   2.196   2.205   2.212   2.218   2.224   2.228   2.236
  2.243   2.247   2.253   2.258   2.261   2.267   2.273   2.281
  2.284   2.293   2.296   2.302   2.311   2.312   2.317   2.321
  2.328   2.335   2.344   2.346   2.353   2.359   2.364   2.365
  2.367   2.375   2.381   2.384   2.389   2.392   2.396   2.404
  2.413   2.423   2.436   2.438   2.462   2.473   2.478   2.487
  2.503   2.513   2.518   2.526   2.531   2.544   2.559   2.588
  2.593   2.596   2.600   2.608   2.622   2.633   2.640   2.657
  2.665   2.681   2.690   2.697   2.701   2.710   2.712   2.720
  2.727   2.735   2.737   2.739   2.741   2.750   2.751   2.760
  2.764   2.770   2.775   2.781   2.782   2.796   2.799   2.815
  2.817   2.823   2.830   2.836   2.842   2.853   2.859   2.866
  2.873   2.888   2.892   2.896   2.903   2.909   2.919   2.939
  2.942   2.976   2.981   2.985   2.995   3.014   3.022   3.033
  3.036   3.046   3.078   3.092   3.150   3.224   3.285   3.328
  3.363   3.374   3.378   3.388   3.414   3.503   3.549   3.556
  3.595   3.675  13.198  13.245  13.273  13.325  13.354  13.417
 13.632  13.665  13.671  13.720  13.732  13.736  13.760  13.766
 13.778  13.804  13.818  13.823  13.902  13.918  13.928  14.027
 14.070  14.092  14.128  14.177  14.178  14.192  14.194  14.217
 14.229  14.246  14.250  14.258  14.266  14.287  14.319  14.410
 14.575  14.584  14.585  14.595  14.599  14.624  19.488  19.561
 19.615
 --------------------------------------------------------------
 
          Ground-State Mulliken Net Atomic Charges

     Atom                 Charge (a.u.)    Spin (a.u.)
  --------------------------------------------------------
      1 N                    -0.719114       0.000000
      2 C                     0.304800      -0.000000
      3 C                     0.307858       0.000000
      4 C                    -0.289084      -0.000000
      5 H                     0.249623      -0.000000
      6 C                    -0.252773       0.000000
      7 H                     0.230554       0.000000
      8 C                    -0.233895      -0.000000
      9 H                     0.227073      -0.000000
     10 C                    -0.340109      -0.000000
     11 H                     0.227551      -0.000000
     12 C                     0.159639       0.000000
     13 C                    -0.300253      -0.000000
     14 H                     0.270526       0.000000
     15 C                    -0.250222      -0.000000
     16 H                     0.229371      -0.000000
     17 C                    -0.236176       0.000000
     18 H                     0.225357       0.000000
     19 C                    -0.336641      -0.000000
     20 H                     0.227250      -0.000000
     21 C                     0.148357       0.000000
     22 C                     0.257750       0.000000
     23 C                    -0.327412      -0.000000
     24 H                     0.285947       0.000000
     25 C                    -0.242732      -0.000000
     26 H                     0.248514       0.000000
     27 C                    -0.306565      -0.000000
     28 H                     0.235070      -0.000000
     29 C                     0.223465      -0.000000
     30 C                     0.061277       0.000000
     31 C                    -0.528232       0.000000
     32 H                     0.259480       0.000000
     33 H                     0.257188      -0.000000
     34 C                    -0.219653      -0.000000
     35 C                    -0.672431       0.000000
     36 H                     0.234137      -0.000000
     37 H                     0.234055      -0.000000
     38 H                     0.241193       0.000000
     39 C                    -0.543714       0.000000
     40 H                     0.263570       0.000000
     41 H                     0.265106      -0.000000
     42 C                     0.103618       0.000000
     43 C                    -0.324038       0.000000
     44 H                     0.265608      -0.000000
     45 C                     0.073257      -0.000000
     46 C                     0.006265       0.000000
     47 N                    -0.186283      -0.000000
     48 C                     0.085523      -0.000000
     49 C                    -0.292756      -0.000000
     50 H                     0.291318       0.000000
     51 C                     0.217775      -0.000000
     52 C                     0.004270      -0.000000
     53 N                    -0.186979       0.000000
     54 C                    -0.436032      -0.000000
     55 C                     0.053022       0.000000
     56 C                    -0.264127      -0.000000
     57 H                     0.238740       0.000000
     58 C                    -0.248301       0.000000
     59 H                     0.244792      -0.000000
     60 C                    -0.228618      -0.000000
     61 H                     0.243833      -0.000000
     62 C                    -0.337693       0.000000
     63 H                     0.232348       0.000000
     64 C                     0.152048      -0.000000
     65 C                     0.140799       0.000000
     66 C                    -0.334937      -0.000000
     67 H                     0.231196       0.000000
     68 C                    -0.228705       0.000000
     69 H                     0.243404      -0.000000
     70 C                    -0.237963      -0.000000
     71 H                     0.242080       0.000000
     72 C                    -0.284462       0.000000
     73 H                     0.233921      -0.000000
     74 C                     0.133868      -0.000000
     75 C                    -0.611411      -0.000000
     76 H                     0.227022      -0.000000
     77 H                     0.224185      -0.000000
     78 H                     0.237710       0.000000
  --------------------------------------------------------
  Sum of atomic charges =     0.000000
  Sum of spin   charges =     0.000000

 -----------------------------------------------------------------
                    Cartesian Multipole Moments
 -----------------------------------------------------------------
    Charge (ESU x 10^10)
                 0.0000
    Dipole Moment (Debye)
         X       3.2017      Y      -5.3295      Z       5.9032
       Tot       8.5734
    Quadrupole Moments (Debye-Ang)
        XX    -296.1910     XY      47.9398     YY    -296.0053
        XZ     -62.2348     YZ      53.4454     ZZ    -323.3256
    Octopole Moments (Debye-Ang^2)
       XXX    1834.4500    XXY    -904.1585    XYY     772.5917
       YYY   -1674.7799    XXZ     969.2010    XYZ    -467.3018
       YYZ     842.2450    XZZ    1013.9514    YZZ    -945.3995
       ZZZ    1975.2622
    Hexadecapole Moments (Debye-Ang^3)
      XXXX  -25188.5314   XXXY    9159.8450   XXYY   -8154.9283
      XYYY    7759.0284   YYYY  -15092.7597   XXXZ  -10973.3103
      XXYZ    5072.7939   XYYZ   -4828.3500   YYYZ    8128.6612
      XXZZ  -10426.0526   XYZZ    5168.8309   YYZZ   -8236.9925
      XZZZ  -10782.8214   YZZZ    9353.4649   ZZZZ  -21938.3289
 -----------------------------------------------------------------
Archival summary:
1\1\ctcp038\OPT\ProcedureUnspecified\BasisUnspecified\34431\mewes\WedJan1613:01:342019WedJan1613:01:342019\0\\#,OPT,ProcedureUnspecified,BasisUnspecified,\\0,1\N\C,1,1.39711\C,2,1.39369,1,120.63\H,3,1.0821,2,120.094,1,1.40057,0\C,3,1.38387,2,120.026,1,-177.549,0\H,5,1.08232,3,119.43,2,179.916,0\C,5,1.38585,3,120.154,2,1.00926,0\H,7,1.08181,5,120.503,3,179.094,0\C,7,1.38747,5,119.48,3,-1.53534,0\H,9,1.08159,7,118.701,5,-178.84,0\C,9,1.38852,7,121.514,5,-0.241482,0\C,1,1.39897,2,119.178,3,151.491,0\C,12,1.395,1,121.944,2,-153.601,0\H,13,1.08107,12,121.085,1,-2.50367,0\C,13,1.3841,12,120.245,1,177.135,0\H,15,1.08249,13,118.996,12,-179.8,0\C,15,1.38467,13,120.377,12,-0.736412,0\H,17,1.08182,15,120.69,13,-178.837,0\C,17,1.38691,15,119.162,13,2.31499,0\H,19,1.08131,17,118.671,15,177.891,0\C,19,1.38836,17,121.657,15,-0.458279,0\C,1,1.41655,2,119.443,3,-27.2262,0\C,22,1.38082,1,121.954,2,105.735,0\H,23,1.08232,22,118.032,1,-2.2036,0\C,22,1.39006,1,118.978,2,-74.6909,0\H,25,1.08221,22,120.212,1,1.12152,0\C,25,1.3761,22,119.168,1,-179.598,0\H,27,1.0833,25,119.15,22,-178.276,0\C,27,1.39747,25,122.251,22,2.31829,0\C,29,1.39296,27,118.823,25,-1.12735,0\C,29,1.50099,27,117.21,25,-177.705,0\H,31,1.09062,29,108.276,27,11.7002,0\H,31,1.09423,29,111.63,27,-104.385,0\C,11,1.51665,9,124.026,7,-172.711,0\C,34,1.52424,11,112.279,9,-19.4699,0\H,35,1.08976,34,110.838,11,59.8749,0\H,35,1.08979,34,110.901,11,177.501,0\H,35,1.09071,34,112.099,11,-61.2549,0\C,31,1.52722,29,111.958,27,132.181,0\H,39,1.09035,31,109.931,29,-152.018,0\H,39,1.0933,31,109.647,29,-35.6145,0\C,39,1.49656,31,110.643,29,87.8447,0\C,42,1.39252,39,117.44,31,122.757,0\H,43,1.08228,42,119.021,39,4.16234,0\C,43,1.3829,42,122.118,39,-175.112,0\C,45,1.39775,43,118.546,42,0.623492,0\C,46,1.38386,45,119.509,43,-0.949268,0\H,47,1.08061,46,117.395,45,-179.429,0\C,47,1.39697,46,122.29,45,0.214596,0\C,45,1.42538,43,120.094,42,179.774,0\N,50,1.15114,45,179.215,43,-0.812144,0\C,46,1.42609,45,120.773,43,178.945,0\N,52,1.15101,46,179.688,45,-158.899,0\C,49,1.53346,47,115.912,46,-172.512,0\C,54,1.52197,49,110.028,47,-33.9679,0\C,55,1.38037,54,127.325,49,-70.7182,0\H,56,1.08361,55,121.03,54,-0.236339,0\C,56,1.38921,55,118.443,54,179.907,0\H,58,1.08203,56,119.782,55,-179.904,0\C,58,1.39183,56,120.478,55,0.134811,0\H,60,1.08209,58,119.54,56,-179.96,0\C,60,1.38829,58,120.873,56,0.055003,0\H,62,1.08269,60,120.307,58,179.873,0\C,62,1.38753,60,118.693,58,-0.173298,0\C,64,1.46139,62,131.533,60,-179.63,0\C,65,1.38649,64,131.238,62,0.606913,0\H,66,1.08267,65,120.906,64,0.182465,0\C,66,1.388,65,118.664,64,-179.844,0\H,68,1.0819,66,119.631,65,-179.944,0\C,68,1.39127,66,120.832,65,0.109779,0\H,70,1.08193,68,119.68,66,179.891,0\C,70,1.38892,68,120.557,66,-0.170213,0\H,72,1.0833,70,120.345,68,-179.783,0\C,72,1.37935,70,118.475,68,0.12935,0\C,34,1.54407,11,108.313,9,99.5674,0\H,75,1.08978,34,112.148,11,59.6858,0\H,75,1.09154,34,110.223,11,179.423,0\H,75,1.09154,34,110.55,11,-60.7162,0\\\@

 Total job time:  10481.80s(wall), 46785.18s(cpu) 
 Wed Jan 16 13:01:34 2019

        *************************************************************
        *                                                           *
        *  Thank you very much for using Q-Chem.  Have a nice day.  *
        *                                                           *
        *************************************************************


0 sent ACK to 0 
now end server 0 ... 
