mFile = /cm/shared/apps/q-chem/intel/QCHEM_5.1.0_Trunk/bin/mpi/machines
Process 0 of 1 is on ctcp005 - thread support 0
initial socket setup ...start
initial socket setup ...done 
now start server 0 ... 
Q-Chem Developer Version!
                  Welcome to Q-Chem
     A Quantum Leap Into The Future Of Chemistry


 Q-Chem 5.1, Q-Chem, Inc., Pleasanton, CA (2018)

 Yihan Shao,  Zhengting Gan,  E. Epifanovsky,  A. T. B. Gilbert,  M. Wormit,  
 J. Kussmann,  A. W. Lange,  A. Behn,  Jia Deng,  Xintian Feng,  D. Ghosh,  
 M. Goldey,  P. R. Horn,  L. D. Jacobson,  I. Kaliman,  T. Kus,  A. Landau,  
 Jie Liu,  E. I. Proynov,  R. M. Richard,  R. P. Steele,  E. J. Sundstrom,  
 H. L. Woodcock III,  P. M. Zimmerman,  D. Zuev,  B. Albrecht,  E. Alguire,  
 S. A. Baeppler,  D. Barton,  Z. Benda,  Y. A. Bernard,  E. J. Berquist,  
 K. B. Bravaya,  H. Burton,  D. Casanova,  Chun-Min Chang,  Yunqing Chen,  
 A. Chien,  K. D. Closser,  M. P. Coons,  S. Coriani,  S. Dasgupta,  
 A. L. Dempwolff,  M. Diedenhofen,  Hainam Do,  R. G. Edgar,  Po-Tung Fang,  
 S. Faraji,  S. Fatehi,  Qingguo Feng,  K. D. Fenk,  J. Fosso-Tande,  
 Qinghui Ge,  A. Ghysels,  G. Gidofalvi,  J. Gomes,  J. Gonthier,  A. Gunina,  
 D. Hait,  M. W. D. Hanson-Heine,  P. H. P. Harbach,  A. W. Hauser,  
 J. E. Herr,  E. G. Hohenstein,  Z. C. Holden,  Kerwin Hui,  B. C. Huynh,  
 T.-C. Jagau,  Hyunjun Ji,  B. Kaduk,  K. Khistyaev,  Jaehoon Kim,  
 P. Klunzinger,  K. Koh,  D. Kosenkov,  L. Koulias,  T. Kowalczyk,  
 C. M. Krauter,  A. Kunitsa,  Ka Un Lao,  A. Laurent,  K. V. Lawler,  
 Joonho Lee,  D. Lefrancois,  S. Lehtola,  D. S. Levine,  Yi-Pei Li,  
 You-Sheng Lin,  Fenglai Liu,  E. Livshits,  A. Luenser,  P. Manohar,  
 E. Mansoor,  S. F. Manzer,  Shan-Ping Mao,  Yuezhi Mao,  N. Mardirossian,  
 A. V. Marenich,  T. Markovich,  L. A. Martinez-Martinez,  S. A. Maurer,  
 N. J. Mayhall,  S. C. McKenzie,  J.-M. Mewes,  A. F. Morrison,  
 J. W. Mullinax,  K. Nanda,  T. S. Nguyen-Beck,  R. Olivares-Amaya,  
 J. A. Parkhill,  T. M. Perrine,  F. Plasser,  P. Pokhilko,  S. Prager,  
 A. Prociuk,  E. Ramos,  D. R. Rehn,  F. Rob,  M. Schneider,  N. Sergueev,  
 S. M. Sharada,  S. Sharma,  D. W. Small,  T. Stauch,  T. Stein,  
 Yu-Chuan Su,  A. J. W. Thom,  A. Tkatchenko,  T. Tsuchimochi,  N. M. Tubman,  
 L. Vogt,  M. L. Vidal,  O. Vydrov,  M. A. Watson,  J. Wenzel,  
 M. de Wergifosse,  T. A. Wesolowski,  A. White,  J. Witte,  A. Yamada,  
 Jun Yang,  K. Yao,  S. Yeganeh,  S. R. Yost,  Zhi-Qiang You,  A. Zech,  
 Igor Ying Zhang,  Xing Zhang,  Yan Zhao,  Ying Zhu,  B. R. Brooks,  
 G. K. L. Chan,  C. J. Cramer,  M. S. Gordon,  W. J. Hehre,  A. Klamt,  
 M. W. Schmidt,  C. D. Sherrill,  D. G. Truhlar,  A. Aspuru-Guzik,  R. Baer,  
 A. T. Bell,  N. A. Besley,  Jeng-Da Chai,  A. E. DePrince, III,  
 R. A. DiStasio Jr.,  A. Dreuw,  B. D. Dunietz,  T. R. Furlani,  
 Chao-Ping Hsu,  Yousung Jung,  Jing Kong,  D. S. Lambrecht,  WanZhen Liang,  
 C. Ochsenfeld,  V. A. Rassolov,  L. V. Slipchenko,  J. E. Subotnik,  
 T. Van Voorhis,  J. M. Herbert,  A. I. Krylov,  P. M. W. Gill,  M. Head-Gordon

 Contributors to earlier versions of Q-Chem not listed above: 
 R. D. Adamson,  B. Austin,  J. Baker,  G. J. O. Beran,  K. Brandhorst,  
 S. T. Brown,  E. F. C. Byrd,  A. K. Chakraborty,  C.-L. Cheng,  
 Siu Hung Chien,  D. M. Chipman,  D. L. Crittenden,  H. Dachsel,  
 R. J. Doerksen,  A. D. Dutoi,  L. Fusti-Molnar,  W. A. Goddard III,  
 A. Golubeva-Zadorozhnaya,  S. R. Gwaltney,  G. Hawkins,  A. Heyden,  
 S. Hirata,  G. Kedziora,  F. J. Keil,  C. Kelley,  Jihan Kim,  R. A. King,  
 R. Z. Khaliullin,  P. P. Korambath,  W. Kurlancheek,  A. M. Lee,  M. S. Lee,  
 S. V. Levchenko,  Ching Yeh Lin,  D. Liotard,  R. C. Lochan,  I. Lotan,  
 P. E. Maslen,  N. Nair,  D. P. O'Neill,  D. Neuhauser,  E. Neuscamman,  
 C. M. Oana,  R. Olson,  B. Peters,  R. Peverati,  P. A. Pieniazek,  
 Y. M. Rhee,  J. Ritchie,  M. A. Rohrdanz,  E. Rosta,  N. J. Russ,  
 H. F. Schaefer III,  N. E. Schultz,  N. Shenvi,  A. C. Simmonett,  A. Sodt,  
 D. Stuck,  K. S. Thanthiriwatte,  V. Vanovschi,  Tao Wang,  A. Warshel,  
 C. F. Williams,  Q. Wu,  X. Xu,  W. Zhang

 Please cite Q-Chem as follows:
 Y. Shao et al., Mol. Phys. 113, 184-215 (2015)
 DOI: 10.1080/00268976.2014.952696

 Q-Chem 5.1.1 for Intel X86 EM64T Linux

 Parts of Q-Chem use Armadillo 8.300.2 (Tropical Shenanigans).
 http://arma.sourceforge.net/

 Q-Chem begins on Tue Mar  2 01:03:21 2021  

Host: ctcp005
0

     Scratch files written to /scratch/mewes/210640/qchem77000//
 Parallel job on  1  processors
The previous job contains 0 fragments, simply inherited here
Symmetry turned off for PCM/SM12/SMD calculation
Input Ideriv = 2
Curr. Ideriv = -1
Max.  Ideriv = 2
Input Ideriv = 2
Curr. Ideriv = 2
Max.  Ideriv = 2

Checking the input file for inconsistencies... 	...done.

--------------------------------------------------------------
User input:
--------------------------------------------------------------
$rem
threads 8
jobtype	sp
method PBEh-3c
basis def2-mSVP
mem_static	1024
mem_total	8000
sym_ignore	true
unrestricted true
scf_convergence	9
solvent_method	pcm
$end

$molecule
read incoords.mol
$end

$solvent
dielectric	2.38
$end

$pcm
theory iefpcm
$end
--------------------------------------------------------------
 Adding empirical dispersion correction 
 ----------------------------------------------------------------
 Doing -D3(BJ) with
 s6 =   1.00000
 s8 =   0.00000
 a1 =   0.48600
 a2 =   4.50000
 -D3 energy including 3body term =     -0.0782291158 hartrees
 ----------------------------------------------------------------
 Adding gCP correction 
 ----------------------------------------------------------------
 gCP energy =      0.1086884167 hartrees
 ----------------------------------------------------------------
             Standard Nuclear Orientation (Angstroms)
    I     Atom           X                Y                Z
 ----------------------------------------------------------------
    1      N       0.0000000000     0.0000000000     0.0000000000
    2      C       0.0000000000     0.0000000000     1.3978860000
    3      C       1.1857569303     0.0000000000     2.1328050047
    4      H       2.1444904891    -0.0457896492     1.6359334259
    5      C       1.1516224922     0.0621077817     3.5153537916
    6      H       2.0830242263     0.0627950308     4.0675436987
    7      C      -0.0600925230     0.1392175409     4.1816606784
    8      H      -0.0934415464     0.2050768636     5.2609449847
    9      C      -1.2377945372     0.1041877842     3.4491836615
   10      H      -2.1790726780     0.1278647031     3.9808736986
   11      C      -1.2328835259     0.0045605065     2.0639443516
   12      C      -1.0966953841     0.5349862286    -0.6821571193
   13      C      -0.9425581251     1.0852521434    -1.9536036962
   14      H       0.0253854403     1.0747448797    -2.4374596054
   15      C      -2.0256260019     1.6612717468    -2.5950682691
   16      H      -1.8956029407     2.0849380579    -3.5825297713
   17      C      -3.2603275694     1.7111571862    -1.9671201266
   18      H      -4.1073637613     2.1722323499    -2.4573394703
   19      C      -3.4092688680     1.1493058436    -0.7069335883
   20      H      -4.3837263816     1.1757537784    -0.2383714041
   21      C      -2.3481401794     0.5324146532    -0.0571131495
   22      C       1.0980138484    -0.5095916160    -0.7361400718
   23      C       2.2933537701     0.1785161567    -0.8434118154
   24      H       2.3612980911     1.1497225172    -0.3685790228
   25      C       0.9752137016    -1.7390443376    -1.3685135764
   26      H       0.0477878947    -2.2931806402    -1.3030369049
   27      C       2.0368422239    -2.2374733354    -2.0956393841
   28      H       1.9208324923    -3.1816660436    -2.6135651792
   29      C       3.2610444676    -1.5735084412    -2.1844098682
   30      C       3.4006978709    -0.3546366033    -1.5176560119
   31      C       4.3187539255    -2.1756231030    -3.0643861057
   32      H       3.8544867310    -2.9690764886    -3.6518521299
   33      H       5.1020687855    -2.6560575536    -2.4716443248
   34      C      -2.4839778541    -0.2399502616     1.2413503314
   35      C      -3.7575987887     0.1177286130     1.9983649052
   36      H      -4.6397261758    -0.0963956460     1.3956862861
   37      H      -3.8540514680    -0.4841202851     2.9016374333
   38      H      -3.7847924378     1.1703309241     2.2828326787
   39      C       4.9491493693    -1.1418417826    -4.0008582379
   40      H       5.2961499146    -1.6344888299    -4.9103401874
   41      H       4.1724677838    -0.4379559345    -4.3216337111
   42      C       6.1131172274    -0.4697713500    -3.3424826701
   43      C       7.3313501783    -0.4872157914    -3.9634498587
   44      H       7.3946429891    -0.8887480566    -4.9687371160
   45      C       8.5268158152    -0.0525022687    -3.3506484412
   46      C       9.7361681941    -0.0731260561    -4.0498856595
   47      N      10.7422088132    -0.0935070840    -4.6334243568
   48      C       8.4397104551     0.3718537182    -1.9757739136
   49      C       7.1872308669     0.4192168123    -1.3648186536
   50      H       7.1663746149     0.8053628657    -0.3533075850
   51      C       6.0161358614     0.0261698514    -1.9904629756
   52      C       9.5777357269     0.7518466284    -1.2433052002
   53      N      10.5133199781     1.0711859699    -0.6365083513
   54      C       4.6937091756     0.4517577943    -1.3531650852
   55      C       4.5052711559     1.8850737531    -1.7895468228
   56      C       4.2589772492     2.3766603732    -3.0550526941
   57      H       4.1142295991     1.7172188908    -3.8993288703
   58      C       4.2213159422     3.7517110238    -3.2227358036
   59      H       4.0452872073     4.1597612451    -4.2092790240
   60      C       4.4135110013     4.6468047959    -2.1432653328
   61      H       4.3796088739     5.7106755728    -2.3311679964
   62      C       4.6362618468     4.1753001080    -0.8775707740
   63      H       4.7771246403     4.8503832253    -0.0441692576
   64      C       4.6747768438     2.7828856559    -0.6907447456
   65      C       4.8609147222     2.0221096639     0.4857989975
   66      C       5.0292109107     2.4250873394     1.8237071486
   67      H       5.0207256047     3.4723710529     2.0933245296
   68      C       5.1997052274     1.4508949967     2.7714731554
   69      H       5.3323798930     1.7212290671     3.8098123047
   70      C       5.2090963999     0.0846723500     2.4127075061
   71      H       5.3578968152    -0.6568183012     3.1865278048
   72      C       5.0415795795    -0.3258564520     1.0986535786
   73      H       5.0582011926    -1.3754821252     0.8362803590
   74      C       4.8699331132     0.6459045513     0.1368714432
   75      C      -2.5381267426    -1.7462336272     0.9055853283
   76      H      -1.6442304089    -2.0845983918     0.3818807088
   77      H      -3.3996472735    -1.9649164309     0.2722013331
   78      H      -2.6261409360    -2.3338316159     1.8212511299
 ----------------------------------------------------------------
 Nuclear Repulsion Energy =  5531.7348818652 hartrees
 There are      158 alpha and      158 beta electrons
 Requested basis set is def2-mSVP
 There are 391 shells and 767 basis functions

 Total QAlloc Memory Limit   8000 MB
 Mega-Array Size      1001 MB
 MEM_STATIC part      1024 MB
 Discretize the solute cavity surface with Lebedev spheres
	Using 302 Lebedev grid points for each H atom
	Using 302 Lebedev grid points for other atoms
	Atomic van der Waals radii will be scaled by 1.20
 Remove points where switching function is < 1.0e-08
 Keep 8042 surface tesserae and discard 15514 interior tesserae
 Molecular Surface Area = 615.645 Angst**2
 A cutoff of  1.0D-12 yielded  37147 shell pairs
 There are    149137 function pairs (    164870 Cartesian)
 
 -------------------------------------------------------
 OpenMP Integral Computing Module                       
 Release: version 1.0, May 2013, Q-Chem Inc. Pittsburgh 
 -------------------------------------------------------
 Integral Job Info:
 Integral job number is                      11
 Integral operator is                         1
 short-range coefficients                     0
 long-range coefficients              100000000
 Omega coefficients                           0
 if combine SR and LR in K                    0
 Integral screening is                        0
 Integral computing path is                   2
 max size of driver memory is            800000
 size of driver memory is                593474
 size of scratch memory is              1809772
 max col of scratch BK array               1296
 max len of scratch array in speh3          155
 max len of scratch index in speh4           18
 max int batch size is                      520
 min int batch size is                       52
 fixed nKL is                                52
 max L of basis functions is                  2
 order of int derivative is                   0
 number of shells is                        391
 number of basis is                         814
 number of cartesian basis is               814
 number of contracted shell pairs         37147
 number of primitive shell pairs          78415
 maxK2 (contraction) of shell pair           25
 max number of K2 of shell pair               1
 max number of CS2 of shell pair           8718
 max number of PS2 of shell pair          14010
 mem total for path MDJ                  903884
 -------------------------------------------------------
 Smallest overlap matrix eigenvalue = 2.79E-04

 Scale SEOQF with 1.000000e-02/1.000000e-02/1.000000e-02

 Standard Electronic Orientation quadrupole field applied
 Nucleus-field energy     =     0.0000000145 hartrees
 Guess from superposition of atomic densities
 Warning:  Energy on first SCF cycle will be non-variational
 SAD guess density has 316.000000 electrons

 -----------------------------------------------------------------------
  General SCF calculation program by
  Eric Jon Sundstrom, Paul Horn, Yuezhi Mao, Dmitri Zuev, Alec White,
  David Stuck, Shaama M.S., Shane Yost, Joonho Lee, David Small,
  Daniel Levine, Susi Lehtola, Hugh Burton, Evgeny Epifanovsky
 -----------------------------------------------------------------------
 Exchange:     0.4200 Hartree-Fock + 0.5800 PBEh-3c
 Correlation:  1.0000 PBEh-3c
 Using SG-1 standard quadrature grid
 Dispersion:   Grimme D3
 using 8 threads for integral computing
 -------------------------------------------------------
 OpenMP Integral computing Module                
 Release: version 2.0, May 2017, Q-Chem Inc. Pleasanton 
 -------------------------------------------------------
 -------------------------------------------------------
 OpenMP BLAS3 based DFT computing Module                
 Release: version 1.0, May 2013, Q-Chem Inc. Pittsburgh 
 -------------------------------------------------------
 A unrestricted SCF calculation will be
 performed using DIIS
 SCF converges when DIIS error is below 1.0e-09
 ---------------------------------------
  Cycle       Energy         DIIS error
 ---------------------------------------
 Using non-symmetric K matrix
 Warning: not using a symmetric Q
    1   -1870.9213381558      1.54e-02  
    2   -1855.1562545814      1.07e-03  
    3   -1855.1366420328      1.20e-03  
    4   -1855.4904613715      3.89e-04  
    5   -1855.5298009652      1.05e-04  
    6   -1855.5322308576      4.46e-05  
    7   -1855.5327745724      9.36e-06  
    8   -1855.5328025559      3.44e-06  
    9   -1855.5328053053      1.07e-06  
   10   -1855.5328057053      4.43e-07  
   11   -1855.5328057442      1.61e-07  
   12   -1855.5328057243      5.76e-08  
   13   -1855.5328057293      2.15e-08  
   14   -1855.5328057280      7.01e-09  
   15   -1855.5328057282      2.46e-09  
   16   -1855.5328057280      1.02e-09  
   17   -1855.5328057281      2.69e-10  Convergence criterion met
 ---------------------------------------
 SCF time:   CPU 11772.75s  wall 1685.00s 
<S^2> =         -0.000000000

************** Final PCM Free Energy Summary **************
 G_electrostatic  =      -0.01666236 hartree =     -10.45579130 kcal/mol
 G_cavitation     =       0.00000000 hartree =       0.00000000 kcal/mol
 G_dispersion     =       0.00000000 hartree =       0.00000000 kcal/mol
 G_repulsion      =       0.00000000 hartree =       0.00000000 kcal/mol
 --------------------------------------------------
 Non-electrostatic Free Energy =       0.00000000 hartree =       0.00000000 kcal/mol
 Total                         =      -0.01666236 hartree =     -10.45579130 kcal/mol
 --------------------------------------------------
 SCF Energy (H0 + V/2)                       =   -1855.53280573 
 Solute Internal Energy (H0)                 =   -1855.51614336 
 Total Free Energy (H0 + V/2 + non-elec)     =   -1855.53280573 hartree
                                             = -1164364.40934558 kcal/mol
***********************************************************

 SCF   energy in the final basis set =    -1855.5328057281
 Total energy in the final basis set =    -1855.5328057281
 
 --------------------------------------------------------------
 
                    Orbital Energies (a.u.)
 --------------------------------------------------------------
 
 Alpha MOs
 -- Occupied --
-14.675 -14.665 -14.663 -10.525 -10.524 -10.509 -10.508 -10.507
-10.504 -10.498 -10.495 -10.490 -10.489 -10.489 -10.488 -10.482
-10.474 -10.472 -10.471 -10.468 -10.468 -10.467 -10.466 -10.461
-10.460 -10.460 -10.460 -10.459 -10.459 -10.459 -10.459 -10.459
-10.457 -10.457 -10.456 -10.451 -10.450 -10.444 -10.444 -10.442
-10.442 -10.442 -10.439 -10.438 -10.436 -10.426 -10.425  -1.088
 -1.039  -1.027  -1.023  -0.997  -0.982  -0.958  -0.958  -0.957
 -0.933  -0.928  -0.910  -0.894  -0.886  -0.880  -0.854  -0.852
 -0.847  -0.842  -0.833  -0.818  -0.810  -0.808  -0.792  -0.773
 -0.770  -0.740  -0.726  -0.722  -0.712  -0.707  -0.699  -0.686
 -0.674  -0.671  -0.670  -0.663  -0.662  -0.641  -0.618  -0.611
 -0.610  -0.604  -0.593  -0.582  -0.573  -0.565  -0.561  -0.556
 -0.538  -0.536  -0.534  -0.529  -0.528  -0.522  -0.519  -0.518
 -0.511  -0.505  -0.502  -0.500  -0.497  -0.495  -0.492  -0.491
 -0.487  -0.487  -0.479  -0.476  -0.469  -0.462  -0.456  -0.448
 -0.447  -0.444  -0.441  -0.440  -0.436  -0.434  -0.430  -0.429
 -0.426  -0.424  -0.423  -0.418  -0.417  -0.412  -0.410  -0.408
 -0.406  -0.402  -0.400  -0.397  -0.395  -0.393  -0.389  -0.379
 -0.372  -0.358  -0.344  -0.332  -0.321  -0.310  -0.303  -0.299
 -0.294  -0.288  -0.287  -0.281  -0.255  -0.229
 -- Virtual --
 -0.077  -0.040  -0.024  -0.008  -0.004   0.000   0.014   0.019
  0.025   0.033   0.042   0.045   0.054   0.055   0.080   0.106
  0.121   0.129   0.135   0.140   0.143   0.145   0.154   0.156
  0.161   0.161   0.166   0.171   0.175   0.179   0.184   0.185
  0.195   0.196   0.198   0.199   0.202   0.204   0.212   0.214
  0.216   0.219   0.224   0.225   0.230   0.231   0.234   0.234
  0.240   0.243   0.244   0.247   0.251   0.252   0.257   0.258
  0.260   0.263   0.266   0.269   0.278   0.283   0.286   0.287
  0.288   0.294   0.299   0.302   0.306   0.309   0.312   0.314
  0.319   0.331   0.334   0.339   0.341   0.350   0.353   0.361
  0.368   0.370   0.377   0.379   0.383   0.385   0.394   0.402
  0.407   0.414   0.423   0.426   0.434   0.440   0.450   0.459
  0.461   0.466   0.474   0.477   0.482   0.483   0.490   0.494
  0.501   0.505   0.512   0.515   0.516   0.521   0.523   0.525
  0.529   0.533   0.536   0.539   0.544   0.545   0.548   0.551
  0.554   0.558   0.564   0.565   0.567   0.569   0.574   0.577
  0.578   0.586   0.589   0.591   0.592   0.596   0.598   0.602
  0.603   0.606   0.609   0.614   0.617   0.620   0.622   0.623
  0.624   0.627   0.628   0.630   0.633   0.636   0.642   0.646
  0.647   0.648   0.651   0.657   0.660   0.664   0.667   0.670
  0.672   0.677   0.680   0.681   0.686   0.687   0.690   0.693
  0.697   0.700   0.702   0.707   0.715   0.716   0.719   0.724
  0.726   0.732   0.737   0.739   0.743   0.748   0.753   0.758
  0.759   0.764   0.768   0.776   0.783   0.787   0.791   0.802
  0.805   0.812   0.816   0.822   0.823   0.829   0.835   0.838
  0.844   0.852   0.867   0.874   0.876   0.887   0.897   0.908
  0.910   0.915   0.918   0.929   0.936   0.937   0.939   0.946
  0.950   0.952   0.957   0.958   0.960   0.967   0.969   0.974
  0.977   0.979   0.981   0.987   0.989   0.999   1.002   1.005
  1.008   1.011   1.012   1.015   1.020   1.024   1.027   1.031
  1.033   1.040   1.043   1.049   1.052   1.054   1.057   1.058
  1.060   1.064   1.069   1.074   1.078   1.081   1.084   1.093
  1.098   1.099   1.101   1.104   1.116   1.118   1.120   1.125
  1.130   1.133   1.136   1.141   1.148   1.152   1.155   1.156
  1.165   1.168   1.180   1.184   1.188   1.190   1.197   1.203
  1.210   1.220   1.230   1.239   1.243   1.248   1.259   1.267
  1.271   1.275   1.287   1.291   1.298   1.299   1.303   1.312
  1.315   1.316   1.325   1.331   1.338   1.345   1.346   1.352
  1.359   1.362   1.367   1.378   1.384   1.393   1.396   1.406
  1.412   1.418   1.422   1.432   1.442   1.459   1.475   1.485
  1.496   1.500   1.505   1.507   1.513   1.519   1.524   1.530
  1.536   1.538   1.542   1.544   1.547   1.551   1.552   1.555
  1.562   1.567   1.572   1.576   1.582   1.586   1.592   1.599
  1.599   1.611   1.611   1.616   1.622   1.631   1.641   1.649
  1.661   1.664   1.682   1.690   1.703   1.713   1.720   1.731
  1.738   1.743   1.755   1.763   1.781   1.782   1.785   1.803
  1.804   1.814   1.822   1.825   1.828   1.832   1.837   1.841
  1.850   1.854   1.857   1.862   1.866   1.876   1.881   1.888
  1.894   1.906   1.916   1.919   1.931   1.935   1.941   1.947
  1.957   1.958   1.967   1.977   1.979   1.983   1.990   1.994
  1.996   2.001   2.010   2.013   2.016   2.023   2.033   2.044
  2.045   2.051   2.057   2.062   2.065   2.070   2.076   2.079
  2.087   2.097   2.109   2.123   2.125   2.130   2.138   2.143
  2.146   2.156   2.160   2.165   2.169   2.171   2.175   2.186
  2.191   2.194   2.197   2.206   2.213   2.216   2.222   2.233
  2.238   2.247   2.251   2.257   2.258   2.264   2.270   2.273
  2.278   2.284   2.296   2.301   2.304   2.309   2.314   2.315
  2.324   2.328   2.335   2.344   2.350   2.355   2.362   2.372
  2.375   2.377   2.381   2.384   2.390   2.394   2.397   2.400
  2.405   2.423   2.438   2.445   2.460   2.471   2.479   2.487
  2.499   2.515   2.520   2.530   2.534   2.542   2.550   2.584
  2.590   2.592   2.599   2.609   2.618   2.633   2.639   2.651
  2.660   2.668   2.682   2.691   2.695   2.703   2.706   2.719
  2.721   2.729   2.733   2.736   2.743   2.746   2.751   2.756
  2.762   2.766   2.770   2.774   2.787   2.796   2.800   2.813
  2.822   2.823   2.829   2.836   2.843   2.848   2.858   2.860
  2.870   2.882   2.888   2.896   2.903   2.910   2.918   2.935
  2.945   2.969   2.983   2.986   2.994   3.014   3.033   3.033
  3.039   3.046   3.075   3.079   3.148   3.220   3.278   3.317
  3.363   3.367   3.374   3.381   3.397   3.500   3.549   3.556
  3.578   3.642  13.198  13.245  13.272  13.326  13.352  13.434
 13.621  13.658  13.668  13.688  13.727  13.735  13.757  13.762
 13.777  13.798  13.815  13.819  13.900  13.919  13.939  13.995
 14.072  14.104  14.128  14.177  14.179  14.195  14.197  14.217
 14.226  14.246  14.254  14.262  14.280  14.297  14.327  14.415
 14.547  14.559  14.567  14.587  14.592  14.620  19.478  19.546
 19.617
 
 Beta MOs
 -- Occupied --
-14.675 -14.665 -14.663 -10.525 -10.524 -10.509 -10.508 -10.507
-10.504 -10.498 -10.495 -10.490 -10.489 -10.489 -10.488 -10.482
-10.474 -10.472 -10.471 -10.468 -10.468 -10.467 -10.466 -10.461
-10.460 -10.460 -10.460 -10.459 -10.459 -10.459 -10.459 -10.459
-10.457 -10.457 -10.456 -10.451 -10.450 -10.444 -10.444 -10.442
-10.442 -10.442 -10.439 -10.438 -10.436 -10.426 -10.425  -1.088
 -1.039  -1.027  -1.023  -0.997  -0.982  -0.958  -0.958  -0.957
 -0.933  -0.928  -0.910  -0.894  -0.886  -0.880  -0.854  -0.852
 -0.847  -0.842  -0.833  -0.818  -0.810  -0.808  -0.792  -0.773
 -0.770  -0.740  -0.726  -0.722  -0.712  -0.707  -0.699  -0.686
 -0.674  -0.671  -0.670  -0.663  -0.662  -0.641  -0.618  -0.611
 -0.610  -0.604  -0.593  -0.582  -0.573  -0.565  -0.561  -0.556
 -0.538  -0.536  -0.534  -0.529  -0.528  -0.522  -0.519  -0.518
 -0.511  -0.505  -0.502  -0.500  -0.497  -0.495  -0.492  -0.491
 -0.487  -0.487  -0.479  -0.476  -0.469  -0.462  -0.456  -0.448
 -0.447  -0.444  -0.441  -0.440  -0.436  -0.434  -0.430  -0.429
 -0.426  -0.424  -0.423  -0.418  -0.417  -0.412  -0.410  -0.408
 -0.406  -0.402  -0.400  -0.397  -0.395  -0.393  -0.389  -0.379
 -0.372  -0.358  -0.344  -0.332  -0.321  -0.310  -0.303  -0.299
 -0.294  -0.288  -0.287  -0.281  -0.255  -0.229
 -- Virtual --
 -0.077  -0.040  -0.024  -0.008  -0.004   0.000   0.014   0.019
  0.025   0.033   0.042   0.045   0.054   0.055   0.080   0.106
  0.121   0.129   0.135   0.140   0.143   0.145   0.154   0.156
  0.161   0.161   0.166   0.171   0.175   0.179   0.184   0.185
  0.195   0.196   0.198   0.199   0.202   0.204   0.212   0.214
  0.216   0.219   0.224   0.225   0.230   0.231   0.234   0.234
  0.240   0.243   0.244   0.247   0.251   0.252   0.257   0.258
  0.260   0.263   0.266   0.269   0.278   0.283   0.286   0.287
  0.288   0.294   0.299   0.302   0.306   0.309   0.312   0.314
  0.319   0.331   0.334   0.339   0.341   0.350   0.353   0.361
  0.368   0.370   0.377   0.379   0.383   0.385   0.394   0.402
  0.407   0.414   0.423   0.426   0.434   0.440   0.450   0.459
  0.461   0.466   0.474   0.477   0.482   0.483   0.490   0.494
  0.501   0.505   0.512   0.515   0.516   0.521   0.523   0.525
  0.529   0.533   0.536   0.539   0.544   0.545   0.548   0.551
  0.554   0.558   0.564   0.565   0.567   0.569   0.574   0.577
  0.578   0.586   0.589   0.591   0.592   0.596   0.598   0.602
  0.603   0.606   0.609   0.614   0.617   0.620   0.622   0.623
  0.624   0.627   0.628   0.630   0.633   0.636   0.642   0.646
  0.647   0.648   0.651   0.657   0.660   0.664   0.667   0.670
  0.672   0.677   0.680   0.681   0.686   0.687   0.690   0.693
  0.697   0.700   0.702   0.707   0.715   0.716   0.719   0.724
  0.726   0.732   0.737   0.739   0.743   0.748   0.753   0.758
  0.759   0.764   0.768   0.776   0.783   0.787   0.791   0.802
  0.805   0.812   0.816   0.822   0.823   0.829   0.835   0.838
  0.844   0.852   0.867   0.874   0.876   0.887   0.897   0.908
  0.910   0.915   0.918   0.929   0.936   0.937   0.939   0.946
  0.950   0.952   0.957   0.958   0.960   0.967   0.969   0.974
  0.977   0.979   0.981   0.987   0.989   0.999   1.002   1.005
  1.008   1.011   1.012   1.015   1.020   1.024   1.027   1.031
  1.033   1.040   1.043   1.049   1.052   1.054   1.057   1.058
  1.060   1.064   1.069   1.074   1.078   1.081   1.084   1.093
  1.098   1.099   1.101   1.104   1.116   1.118   1.120   1.125
  1.130   1.133   1.136   1.141   1.148   1.152   1.155   1.156
  1.165   1.168   1.180   1.184   1.188   1.190   1.197   1.203
  1.210   1.220   1.230   1.239   1.243   1.248   1.259   1.267
  1.271   1.275   1.287   1.291   1.298   1.299   1.303   1.312
  1.315   1.316   1.325   1.331   1.338   1.345   1.346   1.352
  1.359   1.362   1.367   1.378   1.384   1.393   1.396   1.406
  1.412   1.418   1.422   1.432   1.442   1.459   1.475   1.485
  1.496   1.500   1.505   1.507   1.513   1.519   1.524   1.530
  1.536   1.538   1.542   1.544   1.547   1.551   1.552   1.555
  1.562   1.567   1.572   1.576   1.582   1.586   1.592   1.599
  1.599   1.611   1.611   1.616   1.622   1.631   1.641   1.649
  1.661   1.664   1.682   1.690   1.703   1.713   1.720   1.731
  1.738   1.743   1.755   1.763   1.781   1.782   1.785   1.803
  1.804   1.814   1.822   1.825   1.828   1.832   1.837   1.841
  1.850   1.854   1.857   1.862   1.866   1.876   1.881   1.888
  1.894   1.906   1.916   1.919   1.931   1.935   1.941   1.947
  1.957   1.958   1.967   1.977   1.979   1.983   1.990   1.994
  1.996   2.001   2.010   2.013   2.016   2.023   2.033   2.044
  2.045   2.051   2.057   2.062   2.065   2.070   2.076   2.079
  2.087   2.097   2.109   2.123   2.125   2.130   2.138   2.143
  2.146   2.156   2.160   2.165   2.169   2.171   2.175   2.186
  2.191   2.194   2.197   2.206   2.213   2.216   2.222   2.233
  2.238   2.247   2.251   2.257   2.258   2.264   2.270   2.273
  2.278   2.284   2.296   2.301   2.304   2.309   2.314   2.315
  2.324   2.328   2.335   2.344   2.350   2.355   2.362   2.372
  2.375   2.377   2.381   2.384   2.390   2.394   2.397   2.400
  2.405   2.423   2.438   2.445   2.460   2.471   2.479   2.487
  2.499   2.515   2.520   2.530   2.534   2.542   2.550   2.584
  2.590   2.592   2.599   2.609   2.618   2.633   2.639   2.651
  2.660   2.668   2.682   2.691   2.695   2.703   2.706   2.719
  2.721   2.729   2.733   2.736   2.743   2.746   2.751   2.756
  2.762   2.766   2.770   2.774   2.787   2.796   2.800   2.813
  2.822   2.823   2.829   2.836   2.843   2.848   2.858   2.860
  2.870   2.882   2.888   2.896   2.903   2.910   2.918   2.935
  2.945   2.969   2.983   2.986   2.994   3.014   3.033   3.033
  3.039   3.046   3.075   3.079   3.148   3.220   3.278   3.317
  3.363   3.367   3.374   3.381   3.397   3.500   3.549   3.556
  3.578   3.642  13.198  13.245  13.272  13.326  13.352  13.434
 13.621  13.658  13.668  13.688  13.727  13.735  13.757  13.762
 13.777  13.798  13.815  13.819  13.900  13.919  13.939  13.995
 14.072  14.104  14.128  14.177  14.179  14.195  14.197  14.217
 14.226  14.246  14.254  14.262  14.280  14.297  14.327  14.415
 14.547  14.559  14.567  14.587  14.592  14.620  19.478  19.546
 19.617
 --------------------------------------------------------------
 
          Ground-State Mulliken Net Atomic Charges

     Atom                 Charge (a.u.)    Spin (a.u.)
  --------------------------------------------------------
      1 N                    -0.719187       0.000000
      2 C                     0.309436       0.000000
      3 C                    -0.302145      -0.000000
      4 H                     0.273019      -0.000000
      5 C                    -0.251533       0.000000
      6 H                     0.227964      -0.000000
      7 C                    -0.235782       0.000000
      8 H                     0.225339      -0.000000
      9 C                    -0.336729       0.000000
     10 H                     0.227062      -0.000000
     11 C                     0.149846      -0.000000
     12 C                     0.306809      -0.000000
     13 C                    -0.290340      -0.000000
     14 H                     0.250241      -0.000000
     15 C                    -0.252255      -0.000000
     16 H                     0.230618      -0.000000
     17 C                    -0.234236       0.000000
     18 H                     0.226875       0.000000
     19 C                    -0.339453      -0.000000
     20 H                     0.227404      -0.000000
     21 C                     0.158836       0.000000
     22 C                     0.250270      -0.000000
     23 C                    -0.317157       0.000000
     24 H                     0.285093       0.000000
     25 C                    -0.240360       0.000000
     26 H                     0.248681       0.000000
     27 C                    -0.309811      -0.000000
     28 H                     0.234951      -0.000000
     29 C                     0.066210      -0.000000
     30 C                     0.220363      -0.000000
     31 C                    -0.528704      -0.000000
     32 H                     0.260710      -0.000000
     33 H                     0.259362       0.000000
     34 C                    -0.220618       0.000000
     35 C                    -0.672121      -0.000000
     36 H                     0.233896      -0.000000
     37 H                     0.234115      -0.000000
     38 H                     0.241368       0.000000
     39 C                    -0.544605      -0.000000
     40 H                     0.265566      -0.000000
     41 H                     0.266525      -0.000000
     42 C                     0.148633      -0.000000
     43 C                    -0.321723       0.000000
     44 H                     0.264267       0.000000
     45 C                     0.066371      -0.000000
     46 C                     0.008113      -0.000000
     47 N                    -0.193413       0.000000
     48 C                     0.080178       0.000000
     49 C                    -0.286705      -0.000000
     50 H                     0.291591       0.000000
     51 C                     0.165149       0.000000
     52 C                     0.008684      -0.000000
     53 N                    -0.192035      -0.000000
     54 C                    -0.409871       0.000000
     55 C                     0.147439       0.000000
     56 C                    -0.280187       0.000000
     57 H                     0.232764      -0.000000
     58 C                    -0.241370       0.000000
     59 H                     0.239731       0.000000
     60 C                    -0.227765      -0.000000
     61 H                     0.243373       0.000000
     62 C                    -0.313378       0.000000
     63 H                     0.231636       0.000000
     64 C                     0.111509      -0.000000
     65 C                     0.148421       0.000000
     66 C                    -0.323118      -0.000000
     67 H                     0.232779       0.000000
     68 C                    -0.221650       0.000000
     69 H                     0.243892      -0.000000
     70 C                    -0.257121      -0.000000
     71 H                     0.242581      -0.000000
     72 C                    -0.256034       0.000000
     73 H                     0.242968       0.000000
     74 C                     0.011197      -0.000000
     75 C                    -0.611117      -0.000000
     76 H                     0.237806      -0.000000
     77 H                     0.224126      -0.000000
     78 H                     0.226758      -0.000000
  --------------------------------------------------------
  Sum of atomic charges =    -0.000000
  Sum of spin   charges =     0.000000

 -----------------------------------------------------------------
                    Cartesian Multipole Moments
 -----------------------------------------------------------------
    Charge (ESU x 10^10)
                -0.0000
    Dipole Moment (Debye)
         X      -8.2233      Y      -1.7193      Z      -0.4157
       Tot       8.4113
    Quadrupole Moments (Debye-Ang)
        XX    -409.9052     XY     -10.7131     YY    -253.7786
        XZ      22.9875     YZ       5.8557     ZZ    -249.6057
    Octopole Moments (Debye-Ang^2)
       XXX   -4541.4479    XXY    -261.1578    XYY    -741.0515
       YYY    -324.8228    XXZ     630.9033    XYZ      50.8151
       YYZ     143.7583    XZZ    -870.0789    YZZ    -124.4552
       ZZZ     582.0424
    Hexadecapole Moments (Debye-Ang^3)
      XXXX  -65334.4026   XXXY   -3317.9400   XXYY   -7262.2869
      XYYY   -1287.0063   YYYY   -3930.9604   XXXZ   10525.4864
      XXYZ     324.3855   XYYZ    1572.9829   YYYZ     244.5139
      XXZZ   -9877.8545   XYZZ    -639.7390   YYZZ   -2101.4043
      XZZZ    5496.2351   YZZZ     324.3183   ZZZZ   -8816.5645
 -----------------------------------------------------------------
Archival summary:
1\1\ctcp005\SP\ProcedureUnspecified\BasisUnspecified\34431\mewes\TueMar201:31:272021TueMar201:31:272021\0\\#,ProcedureUnspecified,BasisUnspecified,\\0,1\N\C,1,1.39789\C,2,1.39504,1,121.79\H,3,1.08081,2,120.783,1,-2.82663,0\C,3,1.38436,2,120.342,1,177.02,0\H,5,1.08278,3,119.217,2,-179.891,0\C,5,1.38498,3,120.3,2,-0.689052,0\H,7,1.08181,5,120.686,3,-178.948,0\C,7,1.38735,5,119.162,3,2.32924,0\H,9,1.08132,7,118.606,5,177.753,0\C,9,1.38883,7,121.696,5,-0.524623,0\C,1,1.39796,2,119.207,3,-153.996,0\C,12,1.39396,1,120.624,2,152.055,0\H,13,1.08219,12,120.191,1,1.92107,0\C,13,1.38431,12,120.027,1,-177.331,0\H,15,1.08235,13,119.449,12,-179.944,0\C,15,1.38611,13,120.131,12,1.00627,0\H,17,1.08184,15,120.497,13,179.144,0\C,17,1.38778,15,119.499,13,-1.64616,0\H,19,1.08158,17,118.697,15,-178.635,0\C,19,1.38882,17,121.514,15,-0.157502,0\C,1,1.41676,2,121.305,3,24.8962,0\C,22,1.38341,1,122.075,2,-74.0969,0\H,23,1.0832,22,117.786,1,-1.9472,0\C,22,1.388,1,119.128,2,105.757,0\H,25,1.08235,22,120.116,1,0.468594,0\C,25,1.37993,22,119.469,1,179.522,0\H,27,1.08315,25,118.975,22,-177.945,0\C,27,1.39549,25,122.45,22,2.39914,0\C,29,1.39632,27,118.209,25,-0.564081,0\C,29,1.50188,27,117.667,25,-176.803,0\H,31,1.09098,29,107.901,27,10.8094,0\H,31,1.0935,29,111.286,27,-105.197,0\C,21,1.51691,19,123.936,17,-172.494,0\C,34,1.52418,21,112.364,19,-19.6213,0\H,35,1.0896,34,110.834,21,59.6873,0\H,35,1.08969,34,110.858,21,177.31,0\H,35,1.0907,34,112.138,21,-61.4585,0\C,31,1.53071,29,112.193,27,131.758,0\H,39,1.09099,31,109.635,29,-151.519,0\H,39,1.09617,31,108.717,29,-36.3626,0\C,39,1.49665,31,110.759,29,88.4154,0\C,42,1.36748,39,119.167,31,124.574,0\H,43,1.08436,42,118.536,39,6.93352,0\C,43,1.41196,42,123.591,39,-170.789,0\C,45,1.3971,43,120.739,42,-178.794,0\N,46,1.16321,45,179.823,43,-41.8977,0\C,45,1.44151,43,116.963,42,2.83986,0\C,48,1.39435,45,118.828,43,-4.4043,0\H,49,1.08291,48,116.02,45,-176.152,0\C,49,1.3847,48,123.509,45,2.77997,0\C,48,1.40571,45,121.846,43,176.329,0\N,52,1.15996,48,179.646,45,133.614,0\C,51,1.52843,49,117.666,48,-164.911,0\C,54,1.51008,51,104.582,49,79.9066,0\C,55,1.37979,54,128.718,51,67.7222,0\H,56,1.08103,55,121.525,54,3.75273,0\C,56,1.38575,55,117.993,54,-175.284,0\H,58,1.08202,56,119.272,55,179.042,0\C,58,1.41541,56,122.109,55,-0.602898,0\H,60,1.08087,58,119.052,56,179.652,0\C,60,1.36891,58,120.626,56,-0.499674,0\H,62,1.08173,60,121.237,58,-179.543,0\C,62,1.40542,60,117.945,58,0.358884,0\C,64,1.41339,62,130.357,60,-178.831,0\C,65,1.40738,64,130.765,62,1.82988,0\H,66,1.08147,65,120.887,64,0.572206,0\C,66,1.36981,65,117.969,64,-179.616,0\H,68,1.08112,66,120.13,65,179.98,0\C,68,1.41257,66,120.861,65,0.154671,0\H,70,1.08201,68,118.821,66,179.288,0\C,70,1.38684,68,121.746,66,-0.297145,0\H,72,1.08205,70,121,68,179.54,0\C,72,1.37797,70,117.88,68,0.320377,0\C,34,1.5442,21,108.281,19,99.4711,0\H,75,1.08987,34,112.245,21,59.5464,0\H,75,1.09143,34,110.445,21,-60.832,0\H,75,1.09154,34,110.214,21,179.442,0\\\@

 Total job time:  1686.60s(wall), 11782.07s(cpu) 
 Tue Mar  2 01:31:27 2021

        *************************************************************
        *                                                           *
        *  Thank you very much for using Q-Chem.  Have a nice day.  *
        *                                                           *
        *************************************************************


0 sent ACK to 0 
now end server 0 ... 
 
*************************************************************
Job 2 of 2 
*************************************************************
 
mFile = /cm/shared/apps/q-chem/intel/QCHEM_5.1.0_Trunk/bin/mpi/machines
Process 0 of 1 is on ctcp005 - thread support 0
initial socket setup ...start
initial socket setup ...done 
now start server 0 ... 
Q-Chem Developer Version!
                  Welcome to Q-Chem
     A Quantum Leap Into The Future Of Chemistry


 Q-Chem 5.1, Q-Chem, Inc., Pleasanton, CA (2018)

 Yihan Shao,  Zhengting Gan,  E. Epifanovsky,  A. T. B. Gilbert,  M. Wormit,  
 J. Kussmann,  A. W. Lange,  A. Behn,  Jia Deng,  Xintian Feng,  D. Ghosh,  
 M. Goldey,  P. R. Horn,  L. D. Jacobson,  I. Kaliman,  T. Kus,  A. Landau,  
 Jie Liu,  E. I. Proynov,  R. M. Richard,  R. P. Steele,  E. J. Sundstrom,  
 H. L. Woodcock III,  P. M. Zimmerman,  D. Zuev,  B. Albrecht,  E. Alguire,  
 S. A. Baeppler,  D. Barton,  Z. Benda,  Y. A. Bernard,  E. J. Berquist,  
 K. B. Bravaya,  H. Burton,  D. Casanova,  Chun-Min Chang,  Yunqing Chen,  
 A. Chien,  K. D. Closser,  M. P. Coons,  S. Coriani,  S. Dasgupta,  
 A. L. Dempwolff,  M. Diedenhofen,  Hainam Do,  R. G. Edgar,  Po-Tung Fang,  
 S. Faraji,  S. Fatehi,  Qingguo Feng,  K. D. Fenk,  J. Fosso-Tande,  
 Qinghui Ge,  A. Ghysels,  G. Gidofalvi,  J. Gomes,  J. Gonthier,  A. Gunina,  
 D. Hait,  M. W. D. Hanson-Heine,  P. H. P. Harbach,  A. W. Hauser,  
 J. E. Herr,  E. G. Hohenstein,  Z. C. Holden,  Kerwin Hui,  B. C. Huynh,  
 T.-C. Jagau,  Hyunjun Ji,  B. Kaduk,  K. Khistyaev,  Jaehoon Kim,  
 P. Klunzinger,  K. Koh,  D. Kosenkov,  L. Koulias,  T. Kowalczyk,  
 C. M. Krauter,  A. Kunitsa,  Ka Un Lao,  A. Laurent,  K. V. Lawler,  
 Joonho Lee,  D. Lefrancois,  S. Lehtola,  D. S. Levine,  Yi-Pei Li,  
 You-Sheng Lin,  Fenglai Liu,  E. Livshits,  A. Luenser,  P. Manohar,  
 E. Mansoor,  S. F. Manzer,  Shan-Ping Mao,  Yuezhi Mao,  N. Mardirossian,  
 A. V. Marenich,  T. Markovich,  L. A. Martinez-Martinez,  S. A. Maurer,  
 N. J. Mayhall,  S. C. McKenzie,  J.-M. Mewes,  A. F. Morrison,  
 J. W. Mullinax,  K. Nanda,  T. S. Nguyen-Beck,  R. Olivares-Amaya,  
 J. A. Parkhill,  T. M. Perrine,  F. Plasser,  P. Pokhilko,  S. Prager,  
 A. Prociuk,  E. Ramos,  D. R. Rehn,  F. Rob,  M. Schneider,  N. Sergueev,  
 S. M. Sharada,  S. Sharma,  D. W. Small,  T. Stauch,  T. Stein,  
 Yu-Chuan Su,  A. J. W. Thom,  A. Tkatchenko,  T. Tsuchimochi,  N. M. Tubman,  
 L. Vogt,  M. L. Vidal,  O. Vydrov,  M. A. Watson,  J. Wenzel,  
 M. de Wergifosse,  T. A. Wesolowski,  A. White,  J. Witte,  A. Yamada,  
 Jun Yang,  K. Yao,  S. Yeganeh,  S. R. Yost,  Zhi-Qiang You,  A. Zech,  
 Igor Ying Zhang,  Xing Zhang,  Yan Zhao,  Ying Zhu,  B. R. Brooks,  
 G. K. L. Chan,  C. J. Cramer,  M. S. Gordon,  W. J. Hehre,  A. Klamt,  
 M. W. Schmidt,  C. D. Sherrill,  D. G. Truhlar,  A. Aspuru-Guzik,  R. Baer,  
 A. T. Bell,  N. A. Besley,  Jeng-Da Chai,  A. E. DePrince, III,  
 R. A. DiStasio Jr.,  A. Dreuw,  B. D. Dunietz,  T. R. Furlani,  
 Chao-Ping Hsu,  Yousung Jung,  Jing Kong,  D. S. Lambrecht,  WanZhen Liang,  
 C. Ochsenfeld,  V. A. Rassolov,  L. V. Slipchenko,  J. E. Subotnik,  
 T. Van Voorhis,  J. M. Herbert,  A. I. Krylov,  P. M. W. Gill,  M. Head-Gordon

 Contributors to earlier versions of Q-Chem not listed above: 
 R. D. Adamson,  B. Austin,  J. Baker,  G. J. O. Beran,  K. Brandhorst,  
 S. T. Brown,  E. F. C. Byrd,  A. K. Chakraborty,  C.-L. Cheng,  
 Siu Hung Chien,  D. M. Chipman,  D. L. Crittenden,  H. Dachsel,  
 R. J. Doerksen,  A. D. Dutoi,  L. Fusti-Molnar,  W. A. Goddard III,  
 A. Golubeva-Zadorozhnaya,  S. R. Gwaltney,  G. Hawkins,  A. Heyden,  
 S. Hirata,  G. Kedziora,  F. J. Keil,  C. Kelley,  Jihan Kim,  R. A. King,  
 R. Z. Khaliullin,  P. P. Korambath,  W. Kurlancheek,  A. M. Lee,  M. S. Lee,  
 S. V. Levchenko,  Ching Yeh Lin,  D. Liotard,  R. C. Lochan,  I. Lotan,  
 P. E. Maslen,  N. Nair,  D. P. O'Neill,  D. Neuhauser,  E. Neuscamman,  
 C. M. Oana,  R. Olson,  B. Peters,  R. Peverati,  P. A. Pieniazek,  
 Y. M. Rhee,  J. Ritchie,  M. A. Rohrdanz,  E. Rosta,  N. J. Russ,  
 H. F. Schaefer III,  N. E. Schultz,  N. Shenvi,  A. C. Simmonett,  A. Sodt,  
 D. Stuck,  K. S. Thanthiriwatte,  V. Vanovschi,  Tao Wang,  A. Warshel,  
 C. F. Williams,  Q. Wu,  X. Xu,  W. Zhang

 Please cite Q-Chem as follows:
 Y. Shao et al., Mol. Phys. 113, 184-215 (2015)
 DOI: 10.1080/00268976.2014.952696

 Q-Chem 5.1.1 for Intel X86 EM64T Linux

 Parts of Q-Chem use Armadillo 8.300.2 (Tropical Shenanigans).
 http://arma.sourceforge.net/

 Q-Chem begins on Tue Mar  2 01:31:30 2021  

Host: ctcp005
0

     Scratch files written to /scratch/mewes/210640/qchem77000//
 Parallel job on  1  processors
The previous job contains 0 fragments, simply inherited here
Symmetry turned off for PCM/SM12/SMD calculation
Input Ideriv = 2
Curr. Ideriv = -1
Max.  Ideriv = 2
Input Ideriv = 2
Curr. Ideriv = 2
Max.  Ideriv = 2

Checking the input file for inconsistencies... 	...done.

--------------------------------------------------------------
User input:
--------------------------------------------------------------

$rem
threads 8
jobtype opt
method PBEh-3c
basis def2-mSVP
scf_guess	read
mem_static      1024
mem_total       8000
sym_ignore      true
unrestricted true
mom_start       1
scf_algorithm	diis
scf_max_cycles	250
solvent_method	pcm
geom_opt_tol_energy 25
geom_opt_tol_gradient 75
$end

$solvent
dielectric      2.38
$end

$pcm
theory iefpcm
$end

$occupied
1 2 3 4 5 6 7 8 9 10 11 12 13 14 15 16 17 18 19 20 21 22 23 24 25 26 27 28 29 30 31 32 33 34 35 36 37 38 39 40 41 42 43 44 45 46 47 48 49 50 51 52 53 54 55 56 57 58 59 60 61 62 63 64 65 66 67 68 69 70 71 72 73 74 75 76 77 78 79 80 81 82 83 84 85 86 87 88 89 90 91 92 93 94 95 96 97 98 99 100 101 102 103 104 105 106 107 108 109 110 111 112 113 114 115 116 117 118 119 120 121 122 123 124 125 126 127 128 129 130 131 132 133 134 135 136 137 138 139 140 141 142 143 144 145 146 147 148 149 150 151 152 153 154 155 156 158 159
1 2 3 4 5 6 7 8 9 10 11 12 13 14 15 16 17 18 19 20 21 22 23 24 25 26 27 28 29 30 31 32 33 34 35 36 37 38 39 40 41 42 43 44 45 46 47 48 49 50 51 52 53 54 55 56 57 58 59 60 61 62 63 64 65 66 67 68 69 70 71 72 73 74 75 76 77 78 79 80 81 82 83 84 85 86 87 88 89 90 91 92 93 94 95 96 97 98 99 100 101 102 103 104 105 106 107 108 109 110 111 112 113 114 115 116 117 118 119 120 121 122 123 124 125 126 127 128 129 130 131 132 133 134 135 136 137 138 139 140 141 142 143 144 145 146 147 148 149 150 151 152 153 154 155 156 157 158
$end

$molecule
read incoords.mol
$end

--------------------------------------------------------------
 Adding empirical dispersion correction 
 ----------------------------------------------------------------
 Doing -D3(BJ) with
 s6 =   1.00000
 s8 =   0.00000
 a1 =   0.48600
 a2 =   4.50000
 -D3 energy including 3body term =     -0.0782291158 hartrees
 ----------------------------------------------------------------
 Adding gCP correction 
 ----------------------------------------------------------------
 gCP energy =      0.1086884167 hartrees
 ----------------------------------------------------------------
             Standard Nuclear Orientation (Angstroms)
    I     Atom           X                Y                Z
 ----------------------------------------------------------------
    1      N       0.0000000000     0.0000000000     0.0000000000
    2      C       0.0000000000     0.0000000000     1.3978860000
    3      C       1.1857569303     0.0000000000     2.1328050047
    4      H       2.1444904891    -0.0457896492     1.6359334259
    5      C       1.1516224922     0.0621077817     3.5153537916
    6      H       2.0830242263     0.0627950308     4.0675436987
    7      C      -0.0600925230     0.1392175409     4.1816606784
    8      H      -0.0934415464     0.2050768636     5.2609449847
    9      C      -1.2377945372     0.1041877842     3.4491836615
   10      H      -2.1790726780     0.1278647031     3.9808736986
   11      C      -1.2328835259     0.0045605065     2.0639443516
   12      C      -1.0966953841     0.5349862286    -0.6821571193
   13      C      -0.9425581251     1.0852521434    -1.9536036962
   14      H       0.0253854403     1.0747448797    -2.4374596054
   15      C      -2.0256260019     1.6612717468    -2.5950682691
   16      H      -1.8956029407     2.0849380579    -3.5825297713
   17      C      -3.2603275694     1.7111571862    -1.9671201266
   18      H      -4.1073637613     2.1722323499    -2.4573394703
   19      C      -3.4092688680     1.1493058436    -0.7069335883
   20      H      -4.3837263816     1.1757537784    -0.2383714041
   21      C      -2.3481401794     0.5324146532    -0.0571131495
   22      C       1.0980138484    -0.5095916160    -0.7361400718
   23      C       2.2933537701     0.1785161567    -0.8434118154
   24      H       2.3612980911     1.1497225172    -0.3685790228
   25      C       0.9752137016    -1.7390443376    -1.3685135764
   26      H       0.0477878947    -2.2931806402    -1.3030369049
   27      C       2.0368422239    -2.2374733354    -2.0956393841
   28      H       1.9208324923    -3.1816660436    -2.6135651792
   29      C       3.2610444676    -1.5735084412    -2.1844098682
   30      C       3.4006978709    -0.3546366033    -1.5176560119
   31      C       4.3187539255    -2.1756231030    -3.0643861057
   32      H       3.8544867310    -2.9690764886    -3.6518521299
   33      H       5.1020687855    -2.6560575536    -2.4716443248
   34      C      -2.4839778541    -0.2399502616     1.2413503314
   35      C      -3.7575987887     0.1177286130     1.9983649052
   36      H      -4.6397261758    -0.0963956460     1.3956862861
   37      H      -3.8540514680    -0.4841202851     2.9016374333
   38      H      -3.7847924378     1.1703309241     2.2828326787
   39      C       4.9491493693    -1.1418417826    -4.0008582379
   40      H       5.2961499146    -1.6344888299    -4.9103401874
   41      H       4.1724677838    -0.4379559345    -4.3216337111
   42      C       6.1131172274    -0.4697713500    -3.3424826701
   43      C       7.3313501783    -0.4872157914    -3.9634498587
   44      H       7.3946429891    -0.8887480566    -4.9687371160
   45      C       8.5268158152    -0.0525022687    -3.3506484412
   46      C       9.7361681941    -0.0731260561    -4.0498856595
   47      N      10.7422088132    -0.0935070840    -4.6334243568
   48      C       8.4397104551     0.3718537182    -1.9757739136
   49      C       7.1872308669     0.4192168123    -1.3648186536
   50      H       7.1663746149     0.8053628657    -0.3533075850
   51      C       6.0161358614     0.0261698514    -1.9904629756
   52      C       9.5777357269     0.7518466284    -1.2433052002
   53      N      10.5133199781     1.0711859699    -0.6365083513
   54      C       4.6937091756     0.4517577943    -1.3531650852
   55      C       4.5052711559     1.8850737531    -1.7895468228
   56      C       4.2589772492     2.3766603732    -3.0550526941
   57      H       4.1142295991     1.7172188908    -3.8993288703
   58      C       4.2213159422     3.7517110238    -3.2227358036
   59      H       4.0452872073     4.1597612451    -4.2092790240
   60      C       4.4135110013     4.6468047959    -2.1432653328
   61      H       4.3796088739     5.7106755728    -2.3311679964
   62      C       4.6362618468     4.1753001080    -0.8775707740
   63      H       4.7771246403     4.8503832253    -0.0441692576
   64      C       4.6747768438     2.7828856559    -0.6907447456
   65      C       4.8609147222     2.0221096639     0.4857989975
   66      C       5.0292109107     2.4250873394     1.8237071486
   67      H       5.0207256047     3.4723710529     2.0933245296
   68      C       5.1997052274     1.4508949967     2.7714731554
   69      H       5.3323798930     1.7212290671     3.8098123047
   70      C       5.2090963999     0.0846723500     2.4127075061
   71      H       5.3578968152    -0.6568183012     3.1865278048
   72      C       5.0415795795    -0.3258564520     1.0986535786
   73      H       5.0582011926    -1.3754821252     0.8362803590
   74      C       4.8699331132     0.6459045513     0.1368714432
   75      C      -2.5381267426    -1.7462336272     0.9055853283
   76      H      -1.6442304089    -2.0845983918     0.3818807088
   77      H      -3.3996472735    -1.9649164309     0.2722013331
   78      H      -2.6261409360    -2.3338316159     1.8212511299
 ----------------------------------------------------------------
 Nuclear Repulsion Energy =  5531.7348818652 hartrees
 There are      158 alpha and      158 beta electrons
 Requested basis set is def2-mSVP
 There are 391 shells and 767 basis functions

 Total QAlloc Memory Limit   8000 MB
 Mega-Array Size      1001 MB
 MEM_STATIC part      1024 MB
 Discretize the solute cavity surface with Lebedev spheres
	Using 302 Lebedev grid points for each H atom
	Using 302 Lebedev grid points for other atoms
	Atomic van der Waals radii will be scaled by 1.20
 Remove points where switching function is < 1.0e-08
 Keep 8042 surface tesserae and discard 15514 interior tesserae
 Molecular Surface Area = 615.645 Angst**2
 A cutoff of  1.0D-11 yielded  34779 shell pairs
 There are    139649 function pairs (    154218 Cartesian)
 
 -------------------------------------------------------
 OpenMP Integral Computing Module                       
 Release: version 1.0, May 2013, Q-Chem Inc. Pittsburgh 
 -------------------------------------------------------
 Integral Job Info:
 Integral job number is                      11
 Integral operator is                         1
 short-range coefficients                     0
 long-range coefficients              100000000
 Omega coefficients                           0
 if combine SR and LR in K                    0
 Integral screening is                        0
 Integral computing path is                   2
 max size of driver memory is            800000
 size of driver memory is                593474
 size of scratch memory is              1809772
 max col of scratch BK array               1296
 max len of scratch array in speh3          155
 max len of scratch index in speh4           18
 max int batch size is                      520
 min int batch size is                       52
 fixed nKL is                                52
 max L of basis functions is                  2
 order of int derivative is                   0
 number of shells is                        391
 number of basis is                         814
 number of cartesian basis is               814
 number of contracted shell pairs         34779
 number of primitive shell pairs          72955
 maxK2 (contraction) of shell pair           25
 max number of K2 of shell pair               1
 max number of CS2 of shell pair           8260
 max number of PS2 of shell pair          13030
 mem total for path MDJ                  879340
 -------------------------------------------------------
 Smallest overlap matrix eigenvalue = 2.79E-04

 Scale SEOQF with 1.000000e-02/1.000000e-02/1.000000e-02

 Standard Electronic Orientation quadrupole field applied
 Nucleus-field energy     =     0.0000000145 hartrees
 Guess MOs from SCF MO coefficient file
 Reading MOs from coefficient file
 User-specified occupied guess orbitals will be used
   Alpha:
   1   2   3   4   5   6   7   8   9  10  11  12  13  14  15
  16  17  18  19  20  21  22  23  24  25  26  27  28  29  30
  31  32  33  34  35  36  37  38  39  40  41  42  43  44  45
  46  47  48  49  50  51  52  53  54  55  56  57  58  59  60
  61  62  63  64  65  66  67  68  69  70  71  72  73  74  75
  76  77  78  79  80  81  82  83  84  85  86  87  88  89  90
  91  92  93  94  95  96  97  98  99 100 101 102 103 104 105
 106 107 108 109 110 111 112 113 114 115 116 117 118 119 120
 121 122 123 124 125 126 127 128 129 130 131 132 133 134 135
 136 137 138 139 140 141 142 143 144 145 146 147 148 149 150
 151 152 153 154 155 156 158 159
 Reading MOs from coefficient file
   Beta:
   1   2   3   4   5   6   7   8   9  10  11  12  13  14  15
  16  17  18  19  20  21  22  23  24  25  26  27  28  29  30
  31  32  33  34  35  36  37  38  39  40  41  42  43  44  45
  46  47  48  49  50  51  52  53  54  55  56  57  58  59  60
  61  62  63  64  65  66  67  68  69  70  71  72  73  74  75
  76  77  78  79  80  81  82  83  84  85  86  87  88  89  90
  91  92  93  94  95  96  97  98  99 100 101 102 103 104 105
 106 107 108 109 110 111 112 113 114 115 116 117 118 119 120
 121 122 123 124 125 126 127 128 129 130 131 132 133 134 135
 136 137 138 139 140 141 142 143 144 145 146 147 148 149 150
 151 152 153 154 155 156 157 158
 An unrestricted hybrid HF-DFT SCF calculation will be
 performed using Pulay DIIS extrapolation
 Polarizable Continuum solvation model will be applied
 Exchange:     0.4200 Hartree-Fock + 0.5800 PBEh-3c
 Correlation:  1.0000 PBEh-3c
 Using SG-1 standard quadrature grid
 Dispersion:   Grimme D3
 SCF converges when DIIS error is below 1.0E-08
 using 8 threads for integral computing
 -------------------------------------------------------
 OpenMP Integral computing Module                
 Release: version 2.0, May 2017, Q-Chem Inc. Pleasanton 
 -------------------------------------------------------
 -------------------------------------------------------
 OpenMP BLAS3 based DFT computing Module                
 Release: version 1.0, May 2013, Q-Chem Inc. Pittsburgh 
 -------------------------------------------------------
 MOM overlap:    156.9871006192 / 158
 MOM overlap:    157.8885477886 / 158
 ---------------------------------------
  Cycle       Energy         DIIS Error
 ---------------------------------------
    1   -1855.3203635793      6.50E-04
 Using non-symmetric K matrix
 MOM overlap:    157.2822671383 / 158
 MOM overlap:    157.9560141055 / 158
    2   -1855.1854816118      1.27E-03
 MOM overlap:    157.9920517767 / 158
 MOM overlap:    157.9985565846 / 158
    3   -1855.4021592061      1.82E-04
 MOM overlap:    157.9964990387 / 158
 MOM overlap:    157.9996387277 / 158
    4   -1855.4068574395      7.96E-05
 MOM overlap:    157.9974104835 / 158
 MOM overlap:    157.9997218490 / 158
    5   -1855.4082855677      5.01E-05
 MOM overlap:    157.9991201102 / 158
 MOM overlap:    157.9998460806 / 158
    6   -1855.4091481154      3.38E-05
 MOM overlap:    157.9997866952 / 158
 MOM overlap:    157.9999597513 / 158
    7   -1855.4095059543      1.44E-05
 MOM overlap:    157.9998307263 / 158
 MOM overlap:    157.9999600421 / 158
    8   -1855.4096189767      7.85E-06
 MOM overlap:    157.9998817089 / 158
 MOM overlap:    157.9999706176 / 158
    9   -1855.4096874935      3.55E-06
 MOM overlap:    157.9999714859 / 158
 MOM overlap:    157.9999920129 / 158
   10   -1855.4097189509      1.87E-06
 MOM overlap:    157.9999945972 / 158
 MOM overlap:    157.9999982624 / 158
   11   -1855.4097270552      8.11E-07
 MOM overlap:    157.9999978956 / 158
 MOM overlap:    157.9999991857 / 158
   12   -1855.4097292890      5.02E-07
 MOM overlap:    157.9999978808 / 158
 MOM overlap:    157.9999993022 / 158
   13   -1855.4097303520      3.15E-07
 MOM overlap:    157.9999986297 / 158
 MOM overlap:    157.9999995821 / 158
   14   -1855.4097310219      2.51E-07
 MOM overlap:    157.9999997233 / 158
 MOM overlap:    157.9999999184 / 158
   15   -1855.4097313201      1.72E-07
 MOM overlap:    157.9999996358 / 158
 MOM overlap:    157.9999999259 / 158
   16   -1855.4097314085      9.89E-08
 MOM overlap:    157.9999999232 / 158
 MOM overlap:    157.9999999906 / 158
   17   -1855.4097314523      4.23E-08
 MOM overlap:    157.9999999421 / 158
 MOM overlap:    157.9999999965 / 158
   18   -1855.4097314615      3.53E-08
 MOM overlap:    157.9999999315 / 158
 MOM overlap:    157.9999999980 / 158
   19   -1855.4097314650      1.83E-08
 MOM overlap:    157.9999999570 / 158
 MOM overlap:    157.9999999990 / 158
   20   -1855.4097314658      1.42E-08
 MOM overlap:    157.9999999782 / 158
 MOM overlap:    157.9999999997 / 158
   21   -1855.4097314653      1.07E-08
 MOM overlap:    157.9999999890 / 158
 MOM overlap:    157.9999999998 / 158
   22   -1855.4097314621      8.88E-09 Convergence criterion met
 ---------------------------------------

************** Final PCM Free Energy Summary **************
 G_electrostatic  =      -0.03288577 hartree =     -20.63613265 kcal/mol
 G_cavitation     =       0.00000000 hartree =       0.00000000 kcal/mol
 G_dispersion     =       0.00000000 hartree =       0.00000000 kcal/mol
 G_repulsion      =       0.00000000 hartree =       0.00000000 kcal/mol
 --------------------------------------------------
 Non-electrostatic Free Energy =       0.00000000 hartree =       0.00000000 kcal/mol
 Total                         =      -0.03288577 hartree =     -20.63613265 kcal/mol
 --------------------------------------------------
 SCF Energy (H0 + V/2)                       =   -1855.40973146 
 Solute Internal Energy (H0)                 =   -1855.37684569 
 Total Free Energy (H0 + V/2 + non-elec)     =   -1855.40973146 hartree
                                             = -1164287.17907805 kcal/mol
***********************************************************

 <S^2> = 1.0526
 SCF time:  CPU 6199.39 s  wall 1528.08 s
 SCF   energy in the final basis set = -1855.40973146
 Total energy in the final basis set = -1855.40973146
 
 --------------------------------------------------------------
 
                    Orbital Energies (a.u.)
 --------------------------------------------------------------
 
 Alpha MOs
 -- Occupied --
-14.684 -14.613 -14.606 -10.521 -10.520 -10.517 -10.517 -10.514
-10.507 -10.506 -10.504 -10.502 -10.499 -10.499 -10.499 -10.497
-10.496 -10.492 -10.489 -10.489 -10.478 -10.474 -10.473 -10.466
-10.464 -10.463 -10.459 -10.458 -10.458 -10.457 -10.456 -10.455
-10.452 -10.452 -10.451 -10.451 -10.450 -10.450 -10.449 -10.449
-10.445 -10.445 -10.445 -10.444 -10.443 -10.432 -10.431  -1.097
 -1.057  -0.997  -0.995  -0.989  -0.975  -0.970  -0.965  -0.957
 -0.945  -0.920  -0.918  -0.907  -0.889  -0.872  -0.869  -0.859
 -0.855  -0.846  -0.842  -0.832  -0.826  -0.809  -0.791  -0.776
 -0.765  -0.754  -0.731  -0.725  -0.712  -0.709  -0.706  -0.698
 -0.690  -0.688  -0.678  -0.673  -0.656  -0.632  -0.626  -0.619
 -0.617  -0.608  -0.605  -0.594  -0.577  -0.567  -0.564  -0.558
 -0.549  -0.546  -0.544  -0.539  -0.537  -0.535  -0.528  -0.527
 -0.523  -0.516  -0.514  -0.508  -0.506  -0.499  -0.498  -0.496
 -0.492  -0.485  -0.480  -0.472  -0.465  -0.465  -0.461  -0.452
 -0.450  -0.447  -0.446  -0.445  -0.443  -0.443  -0.434  -0.433
 -0.428  -0.426  -0.423  -0.420  -0.410  -0.408  -0.407  -0.403
 -0.401  -0.394  -0.392  -0.390  -0.387  -0.380  -0.371  -0.365
 -0.364  -0.359  -0.351  -0.345  -0.334  -0.310  -0.307  -0.297
 -0.296  -0.294  -0.289  -0.281  -0.238  -0.132
 -- Virtual --
 -0.198  -0.058  -0.031  -0.016  -0.013   0.004   0.007   0.011
  0.013   0.024   0.031   0.037   0.087   0.094   0.099   0.118
  0.120   0.123   0.132   0.135   0.141   0.143   0.146   0.150
  0.152   0.157   0.159   0.164   0.169   0.171   0.177   0.178
  0.186   0.188   0.189   0.192   0.195   0.195   0.201   0.205
  0.209   0.216   0.219   0.220   0.222   0.227   0.233   0.234
  0.234   0.238   0.242   0.243   0.249   0.250   0.252   0.253
  0.255   0.257   0.262   0.265   0.266   0.271   0.276   0.278
  0.282   0.288   0.291   0.294   0.299   0.304   0.309   0.311
  0.322   0.327   0.328   0.329   0.338   0.345   0.352   0.357
  0.359   0.361   0.374   0.375   0.382   0.383   0.392   0.400
  0.405   0.410   0.421   0.425   0.436   0.445   0.450   0.454
  0.460   0.467   0.468   0.472   0.477   0.484   0.493   0.498
  0.501   0.504   0.506   0.510   0.517   0.519   0.521   0.526
  0.527   0.529   0.531   0.535   0.536   0.538   0.541   0.542
  0.552   0.554   0.558   0.560   0.562   0.565   0.566   0.573
  0.575   0.576   0.580   0.584   0.588   0.590   0.593   0.594
  0.595   0.600   0.600   0.605   0.606   0.612   0.614   0.616
  0.619   0.619   0.625   0.626   0.628   0.633   0.634   0.638
  0.640   0.640   0.641   0.646   0.653   0.657   0.660   0.662
  0.665   0.669   0.671   0.675   0.677   0.685   0.689   0.695
  0.700   0.703   0.706   0.712   0.713   0.718   0.724   0.724
  0.726   0.733   0.736   0.739   0.746   0.749   0.750   0.756
  0.762   0.763   0.764   0.769   0.771   0.778   0.782   0.799
  0.802   0.809   0.815   0.815   0.822   0.824   0.834   0.843
  0.846   0.856   0.858   0.870   0.875   0.888   0.892   0.896
  0.907   0.910   0.911   0.923   0.931   0.933   0.939   0.940
  0.945   0.948   0.951   0.954   0.956   0.962   0.964   0.968
  0.974   0.979   0.983   0.986   0.990   0.991   0.993   0.997
  0.999   1.002   1.003   1.009   1.015   1.016   1.020   1.025
  1.027   1.030   1.033   1.038   1.041   1.046   1.051   1.055
  1.056   1.060   1.066   1.073   1.076   1.079   1.085   1.089
  1.090   1.094   1.096   1.105   1.108   1.114   1.118   1.119
  1.122   1.124   1.130   1.137   1.139   1.145   1.154   1.157
  1.161   1.173   1.175   1.182   1.184   1.188   1.195   1.200
  1.212   1.222   1.232   1.238   1.244   1.250   1.254   1.257
  1.265   1.274   1.275   1.281   1.284   1.290   1.292   1.298
  1.305   1.318   1.319   1.328   1.331   1.337   1.342   1.345
  1.353   1.370   1.371   1.382   1.386   1.390   1.403   1.405
  1.414   1.425   1.435   1.438   1.447   1.461   1.465   1.477
  1.483   1.491   1.493   1.496   1.499   1.505   1.508   1.508
  1.514   1.518   1.525   1.529   1.537   1.545   1.550   1.555
  1.561   1.564   1.565   1.577   1.585   1.585   1.599   1.600
  1.606   1.615   1.618   1.634   1.636   1.638   1.652   1.659
  1.663   1.677   1.692   1.693   1.698   1.709   1.719   1.728
  1.735   1.748   1.759   1.775   1.783   1.787   1.792   1.797
  1.800   1.806   1.812   1.820   1.821   1.826   1.843   1.848
  1.849   1.854   1.858   1.863   1.867   1.868   1.874   1.887
  1.890   1.907   1.911   1.927   1.936   1.938   1.941   1.945
  1.954   1.957   1.961   1.966   1.973   1.976   1.978   1.985
  1.990   1.997   2.004   2.016   2.029   2.030   2.035   2.038
  2.052   2.057   2.059   2.062   2.072   2.085   2.086   2.090
  2.093   2.096   2.103   2.113   2.121   2.127   2.129   2.133
  2.140   2.144   2.149   2.152   2.160   2.162   2.173   2.179
  2.188   2.195   2.200   2.207   2.208   2.211   2.214   2.226
  2.227   2.230   2.243   2.247   2.249   2.251   2.254   2.264
  2.271   2.275   2.285   2.290   2.295   2.299   2.303   2.307
  2.312   2.322   2.330   2.333   2.343   2.352   2.355   2.363
  2.367   2.370   2.374   2.382   2.385   2.389   2.392   2.403
  2.410   2.416   2.435   2.440   2.460   2.469   2.473   2.487
  2.503   2.509   2.514   2.521   2.527   2.544   2.553   2.573
  2.582   2.590   2.598   2.607   2.623   2.628   2.631   2.639
  2.655   2.659   2.674   2.681   2.685   2.693   2.701   2.707
  2.715   2.724   2.728   2.729   2.734   2.737   2.741   2.745
  2.751   2.754   2.764   2.766   2.780   2.787   2.791   2.800
  2.820   2.822   2.830   2.835   2.837   2.851   2.853   2.862
  2.867   2.872   2.885   2.891   2.899   2.910   2.927   2.930
  2.955   2.969   2.976   2.988   2.995   3.007   3.024   3.032
  3.051   3.068   3.076   3.079   3.129   3.213   3.277   3.335
  3.354   3.358   3.362   3.413   3.426   3.492   3.538   3.541
  3.547   3.694  13.183  13.237  13.293  13.317  13.348  13.395
 13.619  13.652  13.660  13.696  13.715  13.734  13.749  13.753
 13.767  13.779  13.812  13.814  13.875  13.912  13.947  14.015
 14.066  14.099  14.145  14.155  14.169  14.180  14.187  14.208
 14.213  14.238  14.246  14.254  14.257  14.336  14.351  14.420
 14.520  14.524  14.578  14.580  14.600  14.613  19.530  19.598
 19.608
 
 Beta MOs
 -- Occupied --
-14.684 -14.610 -14.602 -10.522 -10.521 -10.520 -10.520 -10.514
-10.511 -10.510 -10.504 -10.503 -10.500 -10.499 -10.498 -10.497
-10.495 -10.490 -10.489 -10.486 -10.478 -10.474 -10.473 -10.467
-10.464 -10.464 -10.459 -10.458 -10.458 -10.456 -10.455 -10.454
-10.452 -10.451 -10.451 -10.450 -10.450 -10.449 -10.448 -10.448
-10.445 -10.445 -10.445 -10.444 -10.442 -10.432 -10.431  -1.097
 -1.064  -1.003  -0.996  -0.984  -0.971  -0.968  -0.965  -0.956
 -0.945  -0.923  -0.918  -0.905  -0.890  -0.872  -0.866  -0.858
 -0.857  -0.853  -0.842  -0.830  -0.826  -0.808  -0.790  -0.776
 -0.769  -0.750  -0.732  -0.724  -0.713  -0.711  -0.705  -0.701
 -0.690  -0.688  -0.678  -0.673  -0.656  -0.632  -0.626  -0.619
 -0.616  -0.609  -0.606  -0.594  -0.577  -0.567  -0.564  -0.558
 -0.550  -0.546  -0.545  -0.540  -0.537  -0.536  -0.530  -0.527
 -0.526  -0.518  -0.514  -0.508  -0.506  -0.499  -0.498  -0.497
 -0.493  -0.487  -0.479  -0.477  -0.468  -0.467  -0.461  -0.455
 -0.453  -0.450  -0.447  -0.445  -0.443  -0.439  -0.434  -0.431
 -0.427  -0.424  -0.423  -0.421  -0.410  -0.407  -0.404  -0.401
 -0.399  -0.390  -0.389  -0.388  -0.386  -0.380  -0.377  -0.368
 -0.362  -0.357  -0.349  -0.344  -0.338  -0.320  -0.310  -0.303
 -0.297  -0.295  -0.289  -0.283  -0.248  -0.238
 -- Virtual --
 -0.081  -0.043  -0.028  -0.018  -0.007  -0.001   0.006   0.010
  0.012   0.018   0.024   0.037   0.089   0.102   0.107   0.117
  0.119   0.123   0.133   0.135   0.141   0.145   0.149   0.151
  0.154   0.159   0.159   0.164   0.169   0.170   0.177   0.178
  0.182   0.186   0.188   0.191   0.193   0.195   0.198   0.203
  0.209   0.216   0.219   0.220   0.222   0.227   0.233   0.234
  0.234   0.239   0.242   0.244   0.249   0.251   0.253   0.253
  0.256   0.260   0.263   0.265   0.270   0.273   0.277   0.281
  0.283   0.288   0.291   0.295   0.301   0.304   0.309   0.311
  0.322   0.328   0.328   0.330   0.338   0.344   0.352   0.357
  0.359   0.362   0.374   0.375   0.382   0.383   0.390   0.400
  0.404   0.412   0.421   0.425   0.438   0.445   0.450   0.452
  0.459   0.466   0.470   0.471   0.477   0.483   0.492   0.497
  0.500   0.504   0.506   0.508   0.517   0.519   0.522   0.526
  0.526   0.529   0.531   0.534   0.536   0.538   0.540   0.542
  0.552   0.554   0.557   0.558   0.560   0.562   0.565   0.572
  0.573   0.576   0.578   0.581   0.584   0.588   0.591   0.593
  0.595   0.600   0.601   0.604   0.606   0.613   0.614   0.616
  0.618   0.619   0.625   0.626   0.627   0.632   0.633   0.638
  0.638   0.640   0.641   0.645   0.654   0.657   0.658   0.661
  0.665   0.668   0.672   0.673   0.676   0.685   0.688   0.694
  0.699   0.703   0.707   0.711   0.713   0.717   0.724   0.725
  0.726   0.734   0.736   0.739   0.745   0.749   0.752   0.756
  0.762   0.762   0.764   0.770   0.774   0.778   0.781   0.800
  0.803   0.810   0.815   0.816   0.823   0.825   0.833   0.845
  0.846   0.858   0.861   0.869   0.876   0.888   0.893   0.896
  0.908   0.910   0.911   0.922   0.931   0.932   0.939   0.943
  0.945   0.950   0.952   0.954   0.956   0.961   0.966   0.968
  0.974   0.980   0.984   0.987   0.990   0.992   0.994   0.999
  1.001   1.003   1.006   1.008   1.015   1.016   1.020   1.024
  1.025   1.030   1.033   1.036   1.041   1.046   1.051   1.054
  1.056   1.060   1.066   1.073   1.077   1.079   1.084   1.089
  1.090   1.094   1.096   1.105   1.108   1.113   1.118   1.119
  1.123   1.125   1.130   1.137   1.139   1.145   1.154   1.157
  1.162   1.173   1.175   1.182   1.186   1.188   1.196   1.201
  1.213   1.222   1.232   1.239   1.245   1.249   1.253   1.257
  1.264   1.272   1.275   1.278   1.283   1.290   1.291   1.297
  1.305   1.318   1.319   1.324   1.330   1.335   1.342   1.347
  1.354   1.370   1.371   1.382   1.385   1.398   1.404   1.406
  1.415   1.426   1.436   1.438   1.447   1.459   1.466   1.474
  1.479   1.488   1.491   1.493   1.496   1.504   1.506   1.507
  1.514   1.518   1.523   1.528   1.535   1.545   1.549   1.554
  1.560   1.563   1.565   1.575   1.584   1.585   1.599   1.601
  1.607   1.615   1.618   1.635   1.637   1.640   1.653   1.660
  1.665   1.677   1.691   1.693   1.700   1.709   1.718   1.728
  1.735   1.748   1.761   1.774   1.783   1.787   1.793   1.797
  1.801   1.805   1.812   1.819   1.821   1.826   1.843   1.849
  1.851   1.854   1.858   1.864   1.867   1.869   1.874   1.887
  1.891   1.907   1.912   1.927   1.937   1.939   1.943   1.946
  1.954   1.958   1.961   1.967   1.974   1.977   1.978   1.985
  1.990   1.996   2.004   2.016   2.025   2.031   2.037   2.041
  2.051   2.057   2.062   2.063   2.072   2.080   2.086   2.093
  2.095   2.097   2.105   2.113   2.123   2.126   2.130   2.133
  2.139   2.144   2.148   2.150   2.160   2.162   2.173   2.178
  2.187   2.192   2.199   2.206   2.208   2.209   2.217   2.224
  2.227   2.230   2.242   2.247   2.249   2.253   2.254   2.263
  2.269   2.275   2.286   2.290   2.296   2.298   2.302   2.307
  2.312   2.323   2.328   2.330   2.341   2.353   2.355   2.362
  2.367   2.374   2.376   2.382   2.384   2.388   2.392   2.404
  2.411   2.416   2.433   2.441   2.461   2.469   2.472   2.487
  2.502   2.507   2.514   2.521   2.527   2.544   2.552   2.573
  2.582   2.590   2.597   2.608   2.623   2.628   2.631   2.639
  2.654   2.658   2.672   2.680   2.685   2.693   2.698   2.706
  2.716   2.722   2.726   2.730   2.735   2.738   2.742   2.748
  2.752   2.755   2.764   2.766   2.780   2.789   2.791   2.800
  2.819   2.822   2.829   2.834   2.836   2.851   2.852   2.861
  2.868   2.877   2.885   2.892   2.899   2.910   2.929   2.931
  2.953   2.970   2.976   2.989   3.000   3.007   3.024   3.033
  3.052   3.068   3.076   3.080   3.129   3.213   3.277   3.333
  3.354   3.357   3.363   3.414   3.427   3.492   3.536   3.541
  3.547   3.696  13.182  13.237  13.294  13.317  13.348  13.393
 13.617  13.653  13.660  13.696  13.715  13.734  13.749  13.753
 13.767  13.779  13.812  13.814  13.872  13.912  13.947  14.015
 14.065  14.099  14.144  14.153  14.169  14.180  14.187  14.207
 14.213  14.238  14.246  14.254  14.256  14.338  14.352  14.421
 14.519  14.522  14.578  14.580  14.602  14.613  19.535  19.603
 19.608
 --------------------------------------------------------------
 
          Ground-State Mulliken Net Atomic Charges

     Atom                 Charge (a.u.)    Spin (a.u.)
  --------------------------------------------------------
      1 N                    -0.719554      -0.000625
      2 C                     0.309954       0.000352
      3 C                    -0.298889      -0.000237
      4 H                     0.256286       0.000383
      5 C                    -0.249399      -0.000313
      6 H                     0.222549       0.000061
      7 C                    -0.235380      -0.000153
      8 H                     0.228973       0.000005
      9 C                    -0.335401       0.000141
     10 H                     0.231055      -0.000012
     11 C                     0.149842      -0.000231
     12 C                     0.305412       0.000029
     13 C                    -0.291506       0.000114
     14 H                     0.247509       0.000012
     15 C                    -0.251926      -0.000167
     16 H                     0.232440       0.000008
     17 C                    -0.233491       0.000189
     18 H                     0.229954      -0.000012
     19 C                    -0.338832      -0.000120
     20 H                     0.229964       0.000008
     21 C                     0.158710       0.000160
     22 C                     0.250470       0.010941
     23 C                    -0.328423      -0.017033
     24 H                     0.269607       0.000705
     25 C                    -0.234706      -0.021008
     26 H                     0.254225       0.001233
     27 C                    -0.306739      -0.003459
     28 H                     0.243434       0.000500
     29 C                     0.070639      -0.000296
     30 C                     0.218993      -0.009762
     31 C                    -0.515805       0.007968
     32 H                     0.249181      -0.001176
     33 H                     0.262736      -0.000847
     34 C                    -0.221656       0.000013
     35 C                    -0.672196      -0.000002
     36 H                     0.236315       0.000000
     37 H                     0.235618      -0.000000
     38 H                     0.240965      -0.000000
     39 C                    -0.540181      -0.014821
     40 H                     0.256080       0.000664
     41 H                     0.226457       0.012258
     42 C                     0.096860       0.172331
     43 C                    -0.330901      -0.091626
     44 H                     0.228991       0.004292
     45 C                    -0.001822       0.316395
     46 C                    -0.045561      -0.089649
     47 N                    -0.266152       0.186416
     48 C                     0.014114       0.213752
     49 C                    -0.297212      -0.154854
     50 H                     0.236066       0.009769
     51 C                     0.118602       0.223148
     52 C                    -0.037616      -0.061711
     53 N                    -0.257453       0.125328
     54 C                    -0.412404       0.031620
     55 C                     0.207432      -0.214760
     56 C                    -0.271380       0.170313
     57 H                     0.267715      -0.007786
     58 C                    -0.191048      -0.277597
     59 H                     0.279970       0.014935
     60 C                    -0.219214       0.042190
     61 H                     0.274507      -0.001484
     62 C                    -0.288095      -0.048440
     63 H                     0.256862       0.004268
     64 C                     0.138900      -0.110457
     65 C                     0.177071      -0.072259
     66 C                    -0.298485      -0.060837
     67 H                     0.259261       0.004671
     68 C                    -0.209520       0.036521
     69 H                     0.275655      -0.000853
     70 C                    -0.213615      -0.246339
     71 H                     0.281868       0.013271
     72 C                    -0.238272       0.138074
     73 H                     0.275865      -0.005687
     74 C                     0.063704      -0.228406
     75 C                    -0.610523      -0.000019
     76 H                     0.237144      -0.000000
     77 H                     0.227004      -0.000000
     78 H                     0.228397       0.000002
  --------------------------------------------------------
  Sum of atomic charges =    -0.000000
  Sum of spin   charges =     0.000000

 -----------------------------------------------------------------
                    Cartesian Multipole Moments
 -----------------------------------------------------------------
    Charge (ESU x 10^10)
                -0.0000
    Dipole Moment (Debye)
         X     -19.9073      Y       4.0317      Z       7.1407
       Tot      21.5301
    Quadrupole Moments (Debye-Ang)
        XX    -563.9812     XY      13.5747     YY    -231.6595
        XZ      91.7729     YZ      -4.9615     ZZ    -262.7563
    Octopole Moments (Debye-Ang^2)
       XXX   -6277.3087    XXY    -174.4614    XYY    -657.0908
       YYY    -228.6905    XXZ    1261.4688    XYZ       5.1676
       YYZ     109.5704    XZZ   -1060.2946    YZZ     -74.7863
       ZZZ     706.2299
    Hexadecapole Moments (Debye-Ang^3)
      XXXX  -83571.6958   XXXY   -3201.0116   XXYY   -6979.1047
      XYYY    -859.1933   YYYY   -3485.4424   XXXZ   16446.4157
      XXYZ     120.8208   XYYZ    1464.7043   YYYZ      50.2068
      XXZZ  -11924.9713   XYZZ    -409.9400   YYZZ   -1954.4090
      XZZZ    6624.5150   YZZZ     174.7682   ZZZZ   -9204.3167
 -----------------------------------------------------------------
 Calculating analytic gradient of the SCF energy
 -1.174597532774024E-003 -1.174575320701301E-003
 -1.174598918170789E-003 -1.174573973796293E-003
 -1.174586239364783E-003 -1.174586614008246E-003
 -1.174624080891895E-003 -1.174548755753832E-003
 -1.174598449323519E-003 -1.174574477146215E-003
 -1.174577588620456E-003 -1.174595259155830E-003
 -1.174572326546590E-003 -1.174600529489544E-003
 -1.174583994050619E-003 -1.174588941101886E-003
 -1.174570725294318E-003 -1.174602121328338E-003
 -1.174588361752988E-003 -1.174584495773341E-003
 -1.174571562772552E-003 -1.174601351604317E-003
 -1.174579966479967E-003 -1.174592902935758E-003
 -1.174605856852336E-003 -1.174566977334310E-003
 -1.174583515039184E-003 -1.174589407327041E-003
 -1.174578188178060E-003 -1.174594675905150E-003
 -1.174585555750072E-003 -1.174587301430356E-003
 -1.174581041536067E-003 -1.174591834102396E-003
 -1.174567915734714E-003 -1.174604928941217E-003
 -1.174570169517941E-003 -1.174602699109858E-003
 -1.174592120802702E-003 -1.174580806715051E-003
 -1.174557747905523E-003 -1.174615099074620E-003
 -1.174590836961223E-003 -1.174582029572548E-003
 -1.174591214018554E-003 -1.174581680503101E-003
 -1.174582685235863E-003 -1.174590190367885E-003
 -1.174617423238955E-003 -1.174555437834780E-003
 -1.174596201228684E-003 -1.174576733798237E-003
[...]
  0.210   0.216   0.218   0.221   0.221   0.225   0.231   0.233
  0.234   0.238   0.242   0.243   0.248   0.250   0.251   0.252
  0.256   0.257   0.261   0.264   0.266   0.271   0.274   0.277
  0.280   0.288   0.291   0.291   0.299   0.304   0.305   0.311
  0.314   0.324   0.327   0.328   0.337   0.343   0.349   0.355
  0.356   0.358   0.372   0.378   0.382   0.384   0.392   0.402
  0.406   0.411   0.420   0.426   0.437   0.443   0.449   0.453
  0.458   0.465   0.467   0.469   0.477   0.481   0.492   0.493
  0.500   0.504   0.507   0.509   0.516   0.521   0.522   0.525
  0.527   0.529   0.531   0.532   0.533   0.537   0.541   0.546
  0.551   0.552   0.556   0.558   0.560   0.562   0.564   0.570
  0.573   0.577   0.580   0.580   0.584   0.586   0.588   0.595
  0.597   0.598   0.601   0.602   0.607   0.610   0.613   0.617
  0.620   0.623   0.624   0.627   0.628   0.632   0.634   0.634
  0.640   0.640   0.642   0.644   0.650   0.657   0.662   0.666
  0.669   0.670   0.675   0.680   0.686   0.690   0.693   0.694
  0.697   0.703   0.708   0.710   0.720   0.721   0.722   0.726
  0.731   0.733   0.735   0.740   0.746   0.747   0.753   0.753
  0.759   0.762   0.766   0.771   0.773   0.777   0.784   0.800
  0.802   0.811   0.816   0.818   0.823   0.831   0.832   0.839
  0.848   0.858   0.860   0.868   0.882   0.888   0.891   0.898
  0.904   0.909   0.915   0.923   0.928   0.930   0.934   0.939
  0.942   0.946   0.948   0.952   0.957   0.962   0.965   0.967
  0.971   0.977   0.982   0.984   0.989   0.992   0.992   0.995
  0.998   0.999   1.001   1.004   1.009   1.015   1.020   1.021
  1.029   1.033   1.035   1.037   1.040   1.044   1.049   1.052
  1.058   1.062   1.067   1.069   1.072   1.075   1.080   1.087
  1.090   1.094   1.096   1.104   1.107   1.114   1.117   1.118
  1.124   1.126   1.129   1.135   1.140   1.142   1.154   1.157
  1.159   1.163   1.178   1.183   1.185   1.190   1.202   1.204
  1.211   1.220   1.230   1.234   1.240   1.250   1.253   1.256
  1.259   1.267   1.271   1.278   1.281   1.287   1.292   1.296
  1.307   1.311   1.313   1.329   1.332   1.334   1.343   1.347
  1.351   1.359   1.371   1.384   1.389   1.390   1.397   1.400
  1.416   1.416   1.427   1.435   1.451   1.456   1.465   1.473
  1.484   1.488   1.491   1.493   1.497   1.505   1.508   1.510
  1.511   1.519   1.522   1.527   1.535   1.542   1.547   1.556
  1.556   1.560   1.563   1.572   1.578   1.586   1.591   1.598
  1.602   1.611   1.617   1.634   1.638   1.644   1.651   1.659
  1.661   1.682   1.687   1.695   1.701   1.710   1.718   1.729
  1.740   1.747   1.759   1.768   1.781   1.785   1.791   1.797
  1.799   1.805   1.812   1.822   1.827   1.833   1.841   1.848
  1.852   1.857   1.861   1.863   1.869   1.869   1.876   1.887
  1.898   1.911   1.917   1.926   1.930   1.935   1.939   1.948
  1.953   1.954   1.963   1.968   1.974   1.977   1.981   1.991
  1.997   1.998   2.011   2.017   2.029   2.032   2.036   2.037
  2.052   2.058   2.060   2.063   2.073   2.086   2.087   2.090
  2.094   2.096   2.102   2.114   2.121   2.124   2.128   2.131
  2.140   2.145   2.152   2.154   2.159   2.163   2.175   2.180
  2.191   2.198   2.199   2.206   2.207   2.212   2.214   2.228
  2.229   2.231   2.240   2.246   2.248   2.254   2.257   2.261
  2.271   2.276   2.282   2.284   2.290   2.301   2.303   2.306
  2.314   2.328   2.332   2.335   2.343   2.348   2.352   2.360
  2.366   2.369   2.372   2.379   2.382   2.386   2.388   2.404
  2.409   2.421   2.436   2.445   2.461   2.465   2.468   2.491
  2.507   2.515   2.520   2.527   2.539   2.548   2.551   2.571
  2.578   2.587   2.593   2.607   2.618   2.623   2.631   2.643
  2.656   2.661   2.676   2.682   2.685   2.695   2.705   2.706
  2.717   2.726   2.727   2.729   2.731   2.735   2.743   2.745
  2.750   2.755   2.765   2.766   2.779   2.787   2.791   2.794
  2.818   2.825   2.832   2.835   2.837   2.851   2.855   2.862
  2.870   2.874   2.888   2.896   2.904   2.911   2.919   2.927
  2.954   2.980   2.989   2.990   2.996   3.005   3.026   3.031
  3.048   3.067   3.077   3.091   3.134   3.219   3.274   3.336
  3.347   3.358   3.362   3.416   3.428   3.493   3.535   3.539
  3.552   3.697  13.186  13.239  13.294  13.315  13.361  13.390
 13.623  13.655  13.659  13.697  13.713  13.728  13.748  13.755
 13.766  13.779  13.809  13.825  13.875  13.907  13.947  14.022
 14.069  14.095  14.144  14.156  14.170  14.176  14.187  14.206
 14.208  14.234  14.249  14.257  14.261  14.334  14.352  14.420
 14.520  14.526  14.576  14.590  14.601  14.614  19.533  19.597
 19.623
 
 Beta MOs
 -- Occupied --
-14.687 -14.609 -14.600 -10.522 -10.521 -10.521 -10.520 -10.514
-10.510 -10.509 -10.503 -10.501 -10.500 -10.499 -10.499 -10.498
-10.495 -10.491 -10.490 -10.486 -10.480 -10.475 -10.473 -10.469
-10.466 -10.463 -10.460 -10.459 -10.458 -10.456 -10.454 -10.453
-10.452 -10.452 -10.451 -10.451 -10.451 -10.450 -10.449 -10.447
-10.446 -10.446 -10.444 -10.444 -10.442 -10.433 -10.430  -1.100
 -1.064  -1.002  -0.997  -0.985  -0.971  -0.968  -0.966  -0.956
 -0.945  -0.923  -0.918  -0.906  -0.890  -0.873  -0.866  -0.858
 -0.857  -0.854  -0.842  -0.831  -0.827  -0.808  -0.790  -0.776
 -0.768  -0.751  -0.732  -0.725  -0.712  -0.711  -0.707  -0.700
 -0.690  -0.688  -0.680  -0.673  -0.656  -0.632  -0.626  -0.620
 -0.617  -0.609  -0.606  -0.594  -0.579  -0.567  -0.563  -0.558
 -0.549  -0.546  -0.544  -0.540  -0.537  -0.534  -0.530  -0.528
 -0.525  -0.518  -0.513  -0.509  -0.507  -0.499  -0.499  -0.497
 -0.493  -0.488  -0.483  -0.476  -0.470  -0.466  -0.461  -0.455
 -0.453  -0.451  -0.447  -0.444  -0.444  -0.439  -0.434  -0.431
 -0.426  -0.424  -0.423  -0.422  -0.410  -0.407  -0.404  -0.401
 -0.400  -0.390  -0.389  -0.388  -0.385  -0.380  -0.377  -0.371
 -0.364  -0.358  -0.349  -0.344  -0.338  -0.320  -0.307  -0.306
 -0.297  -0.297  -0.290  -0.282  -0.248  -0.240
 -- Virtual --
 -0.080  -0.042  -0.028  -0.020  -0.007  -0.000   0.005   0.010
  0.011   0.017   0.025   0.038   0.089   0.103   0.108   0.118
  0.119   0.126   0.132   0.134   0.142   0.144   0.149   0.151
  0.154   0.158   0.160   0.164   0.169   0.171   0.176   0.178
  0.184   0.187   0.187   0.191   0.193   0.194   0.196   0.203
  0.209   0.217   0.218   0.220   0.221   0.225   0.230   0.232
  0.234   0.238   0.243   0.244   0.249   0.250   0.251   0.254
  0.255   0.259   0.263   0.265   0.270   0.273   0.277   0.279
  0.280   0.288   0.291   0.292   0.301   0.303   0.305   0.312
  0.315   0.324   0.327   0.328   0.337   0.343   0.349   0.354
  0.356   0.359   0.372   0.378   0.382   0.385   0.390   0.402
  0.405   0.412   0.421   0.426   0.438   0.443   0.449   0.452
  0.457   0.465   0.468   0.469   0.476   0.481   0.490   0.491
  0.499   0.504   0.507   0.507   0.516   0.521   0.522   0.524
  0.527   0.529   0.530   0.532   0.533   0.537   0.540   0.545
  0.550   0.552   0.556   0.557   0.558   0.561   0.563   0.568
  0.573   0.574   0.578   0.580   0.582   0.584   0.586   0.594
  0.595   0.598   0.600   0.603   0.607   0.610   0.613   0.617
  0.619   0.622   0.625   0.627   0.628   0.631   0.633   0.634
  0.638   0.640   0.641   0.644   0.649   0.657   0.663   0.666
  0.667   0.671   0.674   0.680   0.686   0.688   0.692   0.693
  0.697   0.704   0.709   0.711   0.719   0.722   0.723   0.726
  0.730   0.734   0.736   0.740   0.746   0.748   0.752   0.755
  0.758   0.763   0.768   0.770   0.774   0.778   0.783   0.800
  0.802   0.813   0.816   0.820   0.824   0.831   0.831   0.841
  0.850   0.860   0.862   0.869   0.882   0.889   0.890   0.898
  0.904   0.910   0.915   0.923   0.928   0.930   0.934   0.939
  0.946   0.946   0.948   0.953   0.959   0.961   0.966   0.967
  0.971   0.978   0.983   0.985   0.989   0.992   0.993   0.998
  0.998   1.000   1.004   1.006   1.009   1.015   1.019   1.021
  1.028   1.032   1.035   1.036   1.040   1.044   1.049   1.052
  1.057   1.062   1.067   1.068   1.072   1.076   1.080   1.087
  1.089   1.094   1.096   1.104   1.107   1.114   1.117   1.119
  1.125   1.126   1.130   1.135   1.140   1.143   1.154   1.157
  1.160   1.163   1.178   1.182   1.185   1.191   1.202   1.205
  1.214   1.220   1.230   1.234   1.241   1.250   1.253   1.255
  1.259   1.266   1.269   1.276   1.281   1.285   1.290   1.295
  1.306   1.310   1.313   1.327   1.332   1.333   1.343   1.346
  1.352   1.358   1.371   1.385   1.388   1.395   1.400   1.401
  1.416   1.417   1.427   1.437   1.452   1.458   1.462   1.472
  1.479   1.486   1.489   1.490   1.493   1.504   1.506   1.509
  1.510   1.519   1.521   1.524   1.534   1.541   1.545   1.555
  1.556   1.560   1.562   1.570   1.577   1.586   1.591   1.600
  1.603   1.612   1.617   1.635   1.640   1.645   1.652   1.659
  1.664   1.682   1.686   1.695   1.701   1.710   1.718   1.728
  1.740   1.747   1.759   1.769   1.780   1.785   1.791   1.796
  1.800   1.805   1.813   1.820   1.827   1.834   1.842   1.848
  1.853   1.857   1.861   1.864   1.869   1.871   1.877   1.888
  1.897   1.911   1.917   1.925   1.932   1.935   1.943   1.947
  1.952   1.955   1.963   1.970   1.975   1.976   1.981   1.991
  1.995   1.998   2.011   2.017   2.024   2.033   2.036   2.041
  2.051   2.058   2.062   2.066   2.073   2.082   2.086   2.093
  2.095   2.098   2.105   2.114   2.123   2.124   2.127   2.132
  2.140   2.145   2.151   2.153   2.159   2.162   2.174   2.178
  2.189   2.194   2.200   2.205   2.207   2.210   2.218   2.226
  2.229   2.231   2.239   2.247   2.250   2.254   2.257   2.259
  2.271   2.272   2.282   2.286   2.290   2.300   2.303   2.306
  2.315   2.328   2.330   2.332   2.343   2.349   2.352   2.359
  2.367   2.372   2.374   2.379   2.382   2.386   2.388   2.405
  2.410   2.421   2.434   2.445   2.461   2.465   2.468   2.490
  2.504   2.515   2.520   2.527   2.540   2.548   2.550   2.570
  2.579   2.587   2.593   2.608   2.618   2.622   2.630   2.643
  2.654   2.659   2.674   2.681   2.685   2.695   2.702   2.705
  2.718   2.723   2.726   2.728   2.731   2.737   2.744   2.746
  2.753   2.756   2.765   2.767   2.779   2.787   2.792   2.795
  2.818   2.824   2.830   2.834   2.836   2.851   2.854   2.862
  2.871   2.878   2.889   2.897   2.904   2.911   2.920   2.928
  2.952   2.980   2.989   2.992   3.001   3.006   3.026   3.031
  3.049   3.067   3.078   3.091   3.134   3.219   3.274   3.334
  3.347   3.357   3.363   3.418   3.429   3.493   3.535   3.537
  3.552   3.698  13.184  13.239  13.296  13.315  13.361  13.389
 13.621  13.655  13.660  13.697  13.713  13.728  13.748  13.755
 13.766  13.779  13.809  13.825  13.872  13.907  13.946  14.022
 14.068  14.095  14.143  14.155  14.170  14.175  14.187  14.206
 14.208  14.234  14.249  14.256  14.261  14.336  14.353  14.420
 14.519  14.525  14.576  14.590  14.602  14.614  19.538  19.602
 19.623
 --------------------------------------------------------------
 
          Ground-State Mulliken Net Atomic Charges

     Atom                 Charge (a.u.)    Spin (a.u.)
  --------------------------------------------------------
      1 N                    -0.699921      -0.000575
      2 C                     0.310697       0.000283
      3 C                    -0.302583      -0.000520
      4 H                     0.257750       0.000068
      5 C                    -0.250061      -0.000262
      6 H                     0.223602       0.000063
      7 C                    -0.235047       0.000091
      8 H                     0.229036      -0.000012
      9 C                    -0.337016      -0.000105
     10 H                     0.231377       0.000003
     11 C                     0.152396       0.000051
     12 C                     0.310181       0.000125
     13 C                    -0.300042       0.000022
     14 H                     0.252810       0.000016
     15 C                    -0.250325      -0.000128
     16 H                     0.231352       0.000006
     17 C                    -0.235704       0.000117
     18 H                     0.229387      -0.000010
     19 C                    -0.335781      -0.000111
     20 H                     0.230247       0.000009
     21 C                     0.155437       0.000089
     22 C                     0.202258       0.012256
     23 C                    -0.282187      -0.019348
     24 H                     0.271901       0.000762
     25 C                    -0.240133      -0.024206
     26 H                     0.252006       0.001368
     27 C                    -0.314323      -0.005609
     28 H                     0.243934       0.000621
     29 C                     0.068334       0.001030
     30 C                     0.219805      -0.014620
     31 C                    -0.513662       0.007813
     32 H                     0.249034      -0.001148
     33 H                     0.261651      -0.000828
     34 C                    -0.223111      -0.000006
     35 C                    -0.673046       0.000002
     36 H                     0.236665      -0.000002
     37 H                     0.236280      -0.000001
     38 H                     0.239512       0.000000
     39 C                    -0.542036      -0.014378
     40 H                     0.256208       0.000535
     41 H                     0.225698       0.012220
     42 C                     0.097147       0.167417
     43 C                    -0.332732      -0.086591
     44 H                     0.228540       0.003686
     45 C                    -0.003086       0.318866
     46 C                    -0.046678      -0.088918
     47 N                    -0.266529       0.186916
     48 C                     0.014176       0.213701
     49 C                    -0.297669      -0.156437
     50 H                     0.236680       0.009622
     51 C                     0.119810       0.229280
     52 C                    -0.038429      -0.061165
     53 N                    -0.256726       0.124840
     54 C                    -0.412777       0.031179
     55 C                     0.202198      -0.220740
     56 C                    -0.268431       0.164183
     57 H                     0.268066      -0.007422
     58 C                    -0.193900      -0.265122
     59 H                     0.278926       0.014292
     60 C                    -0.216992       0.037773
     61 H                     0.274040      -0.001284
     62 C                    -0.291620      -0.044775
     63 H                     0.256429       0.004063
     64 C                     0.142973      -0.099581
     65 C                     0.175093      -0.082517
     66 C                    -0.298518      -0.045764
     67 H                     0.258287       0.003919
     68 C                    -0.205859       0.022795
     69 H                     0.275034      -0.000146
     70 C                    -0.213228      -0.238696
     71 H                     0.279637       0.012919
     72 C                    -0.240027       0.136415
     73 H                     0.275220      -0.005325
     74 C                     0.074816      -0.233075
     75 C                    -0.605335       0.000007
     76 H                     0.235757      -0.000001
     77 H                     0.226684       0.000000
     78 H                     0.226443       0.000000
  --------------------------------------------------------
  Sum of atomic charges =    -0.000000
  Sum of spin   charges =     0.000000

 -----------------------------------------------------------------
                    Cartesian Multipole Moments
 -----------------------------------------------------------------
    Charge (ESU x 10^10)
                -0.0000
    Dipole Moment (Debye)
         X     -20.7398      Y       2.0241      Z       7.7105
       Tot      22.2191
    Quadrupole Moments (Debye-Ang)
        XX    -569.2416     XY     -17.7504     YY    -235.0453
        XZ      95.3691     YZ       1.7546     ZZ    -265.4862
    Octopole Moments (Debye-Ang^2)
       XXX   -6211.6199    XXY    -433.8015    XYY    -735.7925
       YYY    -255.5875    XXZ    1297.9878    XYZ      56.9761
       YYZ     117.0143    XZZ   -1085.6684    YZZ     -95.6338
       ZZZ     727.1672
    Hexadecapole Moments (Debye-Ang^3)
      XXXX  -80647.0595   XXXY   -5604.5862   XXYY   -7373.9664
      XYYY   -1163.8256   YYYY   -3804.4544   XXXZ   16754.5457
      XXYZ     723.0046   XYYZ    1581.1962   YYYZ     232.6207
      XXZZ  -11933.8304   XYZZ    -666.1426   YYZZ   -2020.0659
      XZZZ    6841.5941   YZZZ     384.0725   ZZZZ   -9312.2545
 -----------------------------------------------------------------
Archival summary:
1\1\ctcp005\OPT\ProcedureUnspecified\BasisUnspecified\34431\mewes\TueMar206:07:152021TueMar206:07:152021\0\\#,OPT,ProcedureUnspecified,BasisUnspecified,\\0,1\N\C,1,1.39866\C,2,1.39499,1,121.443\H,3,1.08084,2,120.577,1,1.98217,0\C,3,1.38503,2,120.157,1,-177.922,0\H,5,1.08234,3,119.283,2,-179.863,0\C,5,1.38434,3,120.314,2,0.698797,0\H,7,1.0818,5,120.634,3,179.278,0\C,7,1.38745,5,119.249,3,-1.87182,0\H,9,1.08136,7,118.654,5,-178.258,0\C,9,1.38813,7,121.651,5,0.261163,0\C,1,1.40032,2,118.825,3,151.282,0\C,12,1.3946,1,121.833,2,-150.743,0\H,13,1.08128,12,120.722,1,-2.46854,0\C,13,1.38496,12,120.114,1,176.978,0\H,15,1.08255,13,119.23,12,-179.884,0\C,15,1.38432,13,120.354,12,-0.514027,0\H,17,1.08172,15,120.681,13,-179.105,0\C,17,1.38755,15,119.241,13,1.95983,0\H,19,1.08146,17,118.64,15,178.412,0\C,19,1.38791,17,121.686,15,-0.425817,0\C,1,1.41664,2,118.411,3,-9.03328,0\C,22,1.38079,1,120.329,2,84.3521,0\H,23,1.08263,22,116.837,1,0.039585,0\C,22,1.384,1,120.449,2,-94.9559,0\H,25,1.08238,22,120.208,1,-0.512676,0\C,25,1.38384,22,118.907,1,178.361,0\H,27,1.08312,25,118.915,22,-177.888,0\C,27,1.39516,25,122.669,22,1.79665,0\C,23,1.39775,22,122.311,1,178.976,0\C,29,1.50096,27,118.148,25,-176.306,0\H,31,1.09129,29,107.959,27,11.0753,0\H,31,1.09343,29,111.162,27,-104.969,0\C,11,1.51618,9,123.596,7,-171.981,0\C,34,1.52475,11,112.36,9,-19.7447,0\H,35,1.08953,34,110.838,11,177.417,0\H,35,1.0897,34,110.77,11,60.0539,0\H,35,1.09059,34,112.234,11,-61.156,0\C,30,1.53158,23,113.927,22,-172.036,0\C,39,1.50891,30,110.282,23,-53.8829,0\C,40,1.38325,39,128.465,30,-68.0193,0\H,41,1.08135,40,121.228,39,1.28492,0\C,41,1.38234,40,118.022,39,-178.184,0\H,43,1.08207,41,119.372,40,179.575,0\C,43,1.41681,41,121.996,40,-0.339944,0\H,45,1.0809,43,119.008,41,179.765,0\C,45,1.36913,43,120.715,41,-0.465658,0\H,47,1.08153,45,121.053,43,-179.416,0\C,47,1.40471,45,118.035,43,0.238169,0\C,49,1.41453,47,130.686,45,-176.98,0\C,50,1.40531,49,130.805,47,2.21007,0\H,51,1.08148,50,120.955,49,-0.902288,0\C,51,1.36929,50,117.993,49,178.474,0\H,53,1.08104,51,120.021,50,-179.554,0\C,53,1.41284,51,120.959,50,0.551876,0\H,55,1.08198,53,118.813,51,179.285,0\C,55,1.38435,53,121.674,51,-0.624576,0\H,57,1.08195,55,121.226,53,-179.769,0\C,57,1.37881,55,117.884,53,0.272383,0\C,39,1.52258,30,122.884,23,179.936,0\C,60,1.38843,39,117.195,30,-154.514,0\H,61,1.08371,60,120.177,39,12.5707,0\C,61,1.38994,60,123.482,39,-166.183,0\C,63,1.40812,61,118.971,60,-178.795,0\N,64,1.15859,63,178.99,61,-23.4456,0\C,63,1.44044,61,118.835,60,2.4202,0\C,66,1.39879,63,122.538,61,177.134,0\N,67,1.16196,66,179.227,63,171.246,0\C,66,1.41122,63,117.056,61,-3.73459,0\H,69,1.08431,66,117.766,63,-175.72,0\C,69,1.36815,66,123.657,63,2.49608,0\C,71,1.49684,69,119.362,66,-172.32,0\H,72,1.09113,71,108.743,69,3.81255,0\H,72,1.09722,71,112.825,69,-113.017,0\C,34,1.54386,11,107.846,9,99.0294,0\H,75,1.08982,34,112.061,11,58.2757,0\H,75,1.09127,34,110.381,11,178.594,0\H,75,1.09161,34,110.203,11,-61.7444,0\\\@

 Total job time:  16544.24s(wall), 66486.95s(cpu) 
 Tue Mar  2 06:07:15 2021

        *************************************************************
        *                                                           *
        *  Thank you very much for using Q-Chem.  Have a nice day.  *
        *                                                           *
        *************************************************************


0 sent ACK to 0 
now end server 0 ... 
