mFile = /cm/shared/apps/q-chem/intel/QCHEM_5.1.0_Trunk/bin/mpi/machines
Process 0 of 1 is on ctcp010 - thread support 0
initial socket setup ...start
initial socket setup ...done 
now start server 0 ... 
Q-Chem Developer Version!
                  Welcome to Q-Chem
     A Quantum Leap Into The Future Of Chemistry


 Q-Chem 5.1, Q-Chem, Inc., Pleasanton, CA (2018)

 Yihan Shao,  Zhengting Gan,  E. Epifanovsky,  A. T. B. Gilbert,  M. Wormit,  
 J. Kussmann,  A. W. Lange,  A. Behn,  Jia Deng,  Xintian Feng,  D. Ghosh,  
 M. Goldey,  P. R. Horn,  L. D. Jacobson,  I. Kaliman,  T. Kus,  A. Landau,  
 Jie Liu,  E. I. Proynov,  R. M. Richard,  R. P. Steele,  E. J. Sundstrom,  
 H. L. Woodcock III,  P. M. Zimmerman,  D. Zuev,  B. Albrecht,  E. Alguire,  
 S. A. Baeppler,  D. Barton,  Z. Benda,  Y. A. Bernard,  E. J. Berquist,  
 K. B. Bravaya,  H. Burton,  D. Casanova,  Chun-Min Chang,  Yunqing Chen,  
 A. Chien,  K. D. Closser,  M. P. Coons,  S. Coriani,  S. Dasgupta,  
 A. L. Dempwolff,  M. Diedenhofen,  Hainam Do,  R. G. Edgar,  Po-Tung Fang,  
 S. Faraji,  S. Fatehi,  Qingguo Feng,  K. D. Fenk,  J. Fosso-Tande,  
 Qinghui Ge,  A. Ghysels,  G. Gidofalvi,  J. Gomes,  J. Gonthier,  A. Gunina,  
 D. Hait,  M. W. D. Hanson-Heine,  P. H. P. Harbach,  A. W. Hauser,  
 J. E. Herr,  E. G. Hohenstein,  Z. C. Holden,  Kerwin Hui,  B. C. Huynh,  
 T.-C. Jagau,  Hyunjun Ji,  B. Kaduk,  K. Khistyaev,  Jaehoon Kim,  
 P. Klunzinger,  K. Koh,  D. Kosenkov,  L. Koulias,  T. Kowalczyk,  
 C. M. Krauter,  A. Kunitsa,  Ka Un Lao,  A. Laurent,  K. V. Lawler,  
 Joonho Lee,  D. Lefrancois,  S. Lehtola,  D. S. Levine,  Yi-Pei Li,  
 You-Sheng Lin,  Fenglai Liu,  E. Livshits,  A. Luenser,  P. Manohar,  
 E. Mansoor,  S. F. Manzer,  Shan-Ping Mao,  Yuezhi Mao,  N. Mardirossian,  
 A. V. Marenich,  T. Markovich,  L. A. Martinez-Martinez,  S. A. Maurer,  
 N. J. Mayhall,  S. C. McKenzie,  J.-M. Mewes,  A. F. Morrison,  
 J. W. Mullinax,  K. Nanda,  T. S. Nguyen-Beck,  R. Olivares-Amaya,  
 J. A. Parkhill,  T. M. Perrine,  F. Plasser,  P. Pokhilko,  S. Prager,  
 A. Prociuk,  E. Ramos,  D. R. Rehn,  F. Rob,  M. Schneider,  N. Sergueev,  
 S. M. Sharada,  S. Sharma,  D. W. Small,  T. Stauch,  T. Stein,  
 Yu-Chuan Su,  A. J. W. Thom,  A. Tkatchenko,  T. Tsuchimochi,  N. M. Tubman,  
 L. Vogt,  M. L. Vidal,  O. Vydrov,  M. A. Watson,  J. Wenzel,  
 M. de Wergifosse,  T. A. Wesolowski,  A. White,  J. Witte,  A. Yamada,  
 Jun Yang,  K. Yao,  S. Yeganeh,  S. R. Yost,  Zhi-Qiang You,  A. Zech,  
 Igor Ying Zhang,  Xing Zhang,  Yan Zhao,  Ying Zhu,  B. R. Brooks,  
 G. K. L. Chan,  C. J. Cramer,  M. S. Gordon,  W. J. Hehre,  A. Klamt,  
 M. W. Schmidt,  C. D. Sherrill,  D. G. Truhlar,  A. Aspuru-Guzik,  R. Baer,  
 A. T. Bell,  N. A. Besley,  Jeng-Da Chai,  A. E. DePrince, III,  
 R. A. DiStasio Jr.,  A. Dreuw,  B. D. Dunietz,  T. R. Furlani,  
 Chao-Ping Hsu,  Yousung Jung,  Jing Kong,  D. S. Lambrecht,  WanZhen Liang,  
 C. Ochsenfeld,  V. A. Rassolov,  L. V. Slipchenko,  J. E. Subotnik,  
 T. Van Voorhis,  J. M. Herbert,  A. I. Krylov,  P. M. W. Gill,  M. Head-Gordon

 Contributors to earlier versions of Q-Chem not listed above: 
 R. D. Adamson,  B. Austin,  J. Baker,  G. J. O. Beran,  K. Brandhorst,  
 S. T. Brown,  E. F. C. Byrd,  A. K. Chakraborty,  C.-L. Cheng,  
 Siu Hung Chien,  D. M. Chipman,  D. L. Crittenden,  H. Dachsel,  
 R. J. Doerksen,  A. D. Dutoi,  L. Fusti-Molnar,  W. A. Goddard III,  
 A. Golubeva-Zadorozhnaya,  S. R. Gwaltney,  G. Hawkins,  A. Heyden,  
 S. Hirata,  G. Kedziora,  F. J. Keil,  C. Kelley,  Jihan Kim,  R. A. King,  
 R. Z. Khaliullin,  P. P. Korambath,  W. Kurlancheek,  A. M. Lee,  M. S. Lee,  
 S. V. Levchenko,  Ching Yeh Lin,  D. Liotard,  R. C. Lochan,  I. Lotan,  
 P. E. Maslen,  N. Nair,  D. P. O'Neill,  D. Neuhauser,  E. Neuscamman,  
 C. M. Oana,  R. Olson,  B. Peters,  R. Peverati,  P. A. Pieniazek,  
 Y. M. Rhee,  J. Ritchie,  M. A. Rohrdanz,  E. Rosta,  N. J. Russ,  
 H. F. Schaefer III,  N. E. Schultz,  N. Shenvi,  A. C. Simmonett,  A. Sodt,  
 D. Stuck,  K. S. Thanthiriwatte,  V. Vanovschi,  Tao Wang,  A. Warshel,  
 C. F. Williams,  Q. Wu,  X. Xu,  W. Zhang

 Please cite Q-Chem as follows:
 Y. Shao et al., Mol. Phys. 113, 184-215 (2015)
 DOI: 10.1080/00268976.2014.952696

 Q-Chem 5.1.1 for Intel X86 EM64T Linux

 Parts of Q-Chem use Armadillo 8.300.2 (Tropical Shenanigans).
 http://arma.sourceforge.net/

 Q-Chem begins on Wed Dec 19 09:20:20 2018  

Host: ctcp010
0

     Scratch files written to /scratch/mewes1/142079/qchem118876//
 Parallel job on  1  processors
The previous job contains 0 fragments, simply inherited here
Symmetry turned off for PCM/SM12/SMD calculation
Input Ideriv = 2
Curr. Ideriv = -1
Max.  Ideriv = 2
Input Ideriv = 2
Curr. Ideriv = 2
Max.  Ideriv = 2

Checking the input file for inconsistencies... 	...done.

--------------------------------------------------------------
User input:
--------------------------------------------------------------
$rem
threads 8
jobtype	sp
method PBEh-3c
basis def2-mSVP
mem_static	1024
mem_total	8000
sym_ignore	true
unrestricted true
scf_convergence	9
solvent_method	pcm
$end

$molecule
read incoords.mol
$end

$solvent
dielectric	1.0001
$end

$pcm
theory iefpcm
heavypoints 194
hpoints	    194
$end
--------------------------------------------------------------
 Adding empirical dispersion correction 
 ----------------------------------------------------------------
 Doing -D3(BJ) with
 s6 =   1.00000
 s8 =   0.00000
 a1 =   0.48600
 a2 =   4.50000
 -D3 energy including 3body term =     -0.1265287039 hartrees
 ----------------------------------------------------------------
 Adding gCP correction 
 ----------------------------------------------------------------
 gCP energy =      0.1748591731 hartrees
 ----------------------------------------------------------------
             Standard Nuclear Orientation (Angstroms)
    I     Atom           X                Y                Z
 ----------------------------------------------------------------
    1      C     -12.5747250000    -3.1072410000   -10.4887290000
    2      C     -11.8031050000    -2.2718880000    -9.6591590000
    3      N     -10.6065860000    -2.9002540000    -9.3790780000
    4      C     -10.5949430000    -4.1288320000   -10.0066010000
    5      C     -11.7985780000    -4.2960810000   -10.7137160000
    6      C     -12.0232590000    -5.4647410000   -11.4352980000
    7      C     -11.0500080000    -6.4465640000   -11.4400630000
    8      C      -9.8569430000    -6.2650210000   -10.7335200000
    9      C      -9.6098030000    -5.1108220000   -10.0109660000
   10      C     -13.8427500000    -2.7031760000   -10.8934320000
   11      C     -14.3219350000    -1.4791440000   -10.4649940000
   12      C     -13.5455210000    -0.6632430000    -9.6360830000
   13      C     -12.2814850000    -1.0439120000    -9.2192210000
   14      C      -9.6144360000    -2.4486940000    -8.4811290000
   15      C      -8.8661230000    -1.3175030000    -8.7658420000
   16      C      -7.8608580000    -0.9059450000    -7.8971510000
   17      C      -7.5929500000    -1.6439550000    -6.7382430000
   18      C      -8.3635850000    -2.7782940000    -6.4497820000
   19      C      -9.3740340000    -3.1661200000    -7.3190090000
   20      B      -6.4006120000    -1.2607660000    -5.7862810000
   21      C      -5.0060900000    -1.8949340000    -6.0329120000
   22      C      -4.8201270000    -2.7393540000    -7.1265100000
   23      C      -3.6020820000    -3.3604030000    -7.3181730000
   24      C      -2.5342350000    -3.1453540000    -6.4196380000
   25      C      -2.7089110000    -2.3001070000    -5.3351220000
   26      C      -3.9414820000    -1.6698030000    -5.1275080000
   27      C      -1.4058780000    -3.9720940000    -6.8626490000
   28      C      -1.8495650000    -4.6574960000    -8.0109770000
   29      C      -3.1755070000    -4.3195130000    -8.3319040000
   30      C      -1.0925260000    -5.5793370000    -8.7262680000
   31      C       0.2174940000    -5.8110440000    -8.2438200000
   32      C       0.6658510000    -5.1452940000    -7.1264700000
   33      C      -0.1345870000    -4.2183760000    -6.4148830000
   34      C      -3.7725820000    -4.9180410000    -9.4112600000
   35      C      -3.0239240000    -5.8557900000   -10.1601370000
   36      C      -1.7270580000    -6.1847530000    -9.8388820000
   37      B      -4.1726570000    -0.7638570000    -3.8829520000
   38      C      -5.5563570000    -0.0828610000    -3.6595920000
   39      C      -5.7772610000     0.7300290000    -2.5418060000
   40      C      -7.0225420000     1.3021970000    -2.3343020000
   41      C      -8.0660880000     1.0639670000    -3.2556560000
   42      C      -7.8617430000     0.2599840000    -4.3602150000
   43      C      -6.6121380000    -0.3201150000    -4.5737640000
   44      C      -9.2643700000     1.7547720000    -2.7924970000
   45      C      -8.9072140000     2.3917190000    -1.5922340000
   46      C      -7.5588050000     2.1514720000    -1.2656440000
   47      C      -9.7890390000     3.1419830000    -0.8222110000
   48      C     -11.1129830000     3.2533550000    -1.3140960000
   49      C     -11.4691160000     2.6335260000    -2.4897710000
   50      C     -10.5514180000     1.8713370000    -3.2495770000
   51      C      -7.0686960000     2.6956850000    -0.1080100000
   52      C      -7.9393130000     3.4690930000     0.6979180000
   53      C      -9.2555680000     3.6940260000     0.3664340000
   54      C      -7.0391060000     0.3093250000    -8.2212780000
   55      C      -8.0946120000    -3.5847930000    -5.2105450000
   56      C      -3.0382610000    -0.5708200000    -2.8106760000
   57      C      -2.9320150000    -1.4873360000    -1.7573830000
   58      C      -1.9562850000    -1.3107670000    -0.7838430000
   59      C      -1.0983140000    -0.2215730000    -0.8386690000
   60      C      -1.2005190000     0.6890750000    -1.8808540000
   61      C      -2.1580710000     0.5147620000    -2.8741540000
   62      N      -0.1297790000    -0.0364820000     0.1737890000
   63      C      -0.4003010000     0.1736220000     1.5109990000
   64      C       0.8078380000     0.3508900000     2.2042340000
   65      C       1.8610510000     0.2443400000     1.2282070000
   66      C       1.2379180000     0.0069560000    -0.0085620000
   67      C       0.7804400000     0.5936690000     3.5740650000
   68      C      -0.4400820000     0.6598830000     4.2209830000
   69      C      -1.6330030000     0.4918960000     3.5109530000
   70      C      -1.6332640000     0.2488510000     2.1495750000
   71      C       3.2484480000     0.3278250000     1.2895920000
   72      C       3.9828670000     0.1717950000     0.1281190000
   73      C       3.3446550000    -0.0733710000    -1.0919340000
   74      C       1.9672700000    -0.1619760000    -1.1798640000
   75      C      -3.8657190000    -2.6637650000    -1.6899180000
   76      C      -2.2657250000     1.4951890000    -4.0079960000
   77      H      -2.5605740000     0.1258360000     1.6053980000
   78      H      -2.5776660000     0.5555490000     4.0354500000
   79      H       1.4796300000    -0.3555940000    -2.1264480000
   80      H       3.9392220000    -0.1979260000    -1.9876970000
   81      C       5.4295450000     0.2595460000     0.1719860000
   82      H       3.7470430000     0.5124770000     2.2328810000
   83      C      -0.4881990000     0.9117160000     5.6481360000
   84      H       1.7015620000     0.7333390000     4.1256710000
   85      H      -0.5362910000     1.5448340000    -1.9119900000
   86      H      -1.8599360000    -2.0268640000     0.0236570000
   87      H      -3.6922150000    -3.2696810000    -0.8012680000
   88      H      -4.9101340000    -2.3440890000    -1.6696240000
   89      H      -3.7476690000    -3.3145930000    -2.5588100000
   90      H      -1.5262030000     2.2911510000    -3.9290390000
   91      H      -3.2515510000     1.9645780000    -4.0368540000
   92      H      -2.1180190000     1.0035720000    -4.9722460000
   93      H      -4.9732090000     0.9013560000    -1.8344420000
   94      H      -8.6732680000     0.0664980000    -5.0537400000
   95      H     -10.8796050000     1.3957660000    -4.1657060000
   96      H      -6.0425980000     2.5478140000     0.2043530000
   97      H     -12.4862210000     2.7271700000    -2.8476150000
   98      H     -11.8493710000     3.8247360000    -0.7622790000
   99      H      -7.5491230000     3.8969430000     1.6119940000
  100      H      -9.8828580000     4.2902700000     1.0176960000
  101      H      -5.6384960000    -2.9240780000    -7.8136270000
  102      H      -1.8979630000    -2.1364540000    -4.6336720000
  103      H       0.2678490000    -3.7309460000    -5.5357020000
  104      H      -4.7935730000    -4.6967670000    -9.6980350000
  105      H       0.8661300000    -6.5155490000    -8.7498950000
  106      H       1.6689710000    -5.3382030000    -6.7696700000
  107      H      -3.4926150000    -6.3313320000   -11.0119720000
  108      H      -1.1927060000    -6.9125910000   -10.4372700000
  109      H      -9.0535150000    -0.7688010000    -9.6816600000
  110      H      -9.9756890000    -4.0403320000    -7.0975630000
  111      H     -11.6942130000    -0.4071240000    -8.5709790000
  112      H     -13.9429910000     0.2884850000    -9.3080700000
  113      H      -8.6823090000    -4.9856120000    -9.4681180000
  114      H      -9.1073470000    -7.0456820000   -10.7501480000
  115      C     -11.2636340000    -7.6746480000   -12.1807890000
  116      H     -12.9473150000    -5.6042320000   -11.9828740000
  117      C     -15.6416580000    -1.0362680000   -10.8708180000
  118      H     -14.4465840000    -3.3402350000   -11.5281580000
  119      H      -8.8005450000    -4.4080250000    -5.1075240000
  120      H      -8.1683030000    -2.9720400000    -4.3098300000
  121      H      -7.0898450000    -4.0134130000    -5.2257090000
  122      H      -7.3517600000     0.7695930000    -9.1578850000
  123      H      -7.1201560000     1.0664780000    -7.4386600000
  124      H      -5.9799670000     0.0592680000    -8.3161560000
  125      H     -16.0977060000    -1.7916240000   -11.5090800000
  126      H     -16.2611240000    -0.8848330000    -9.9880670000
  127      H     -15.5573000000    -0.0997320000   -11.4200950000
  128      H     -12.2385260000    -7.6416320000   -12.6649550000
  129      H     -10.4866740000    -7.7828010000   -12.9361410000
  130      H     -11.2261430000    -8.5218450000   -11.4975810000
  131      H       0.5252960000     1.0156060000     6.0327850000
  132      H      -1.0437150000     1.8292750000     5.8363070000
  133      H      -0.9823170000     0.0794010000     6.1471560000
  134      H       5.7506320000     0.4531470000     1.1944060000
  135      H       5.8607660000    -0.6793030000    -0.1722990000
  136      H       5.7637400000     1.0706970000    -0.4732020000
 ----------------------------------------------------------------
 Nuclear Repulsion Energy = 11544.5448096738 hartrees
 There are      268 alpha and      268 beta electrons
 Requested basis set is def2-mSVP
 There are 672 shells and 1312 basis functions

 Total QAlloc Memory Limit   8000 MB
 Mega-Array Size      1001 MB
 MEM_STATIC part      1024 MB
 Discretize the solute cavity surface with Lebedev spheres
	Using 194 Lebedev grid points for each H atom
	Using 194 Lebedev grid points for other atoms
	Atomic van der Waals radii will be scaled by 1.20
 Remove points where switching function is < 1.0e-08
 Keep 10179 surface tesserae and discard 16205 interior tesserae
 Molecular Surface Area = 1067.725 Angst**2
 A cutoff of  1.0D-12 yielded  60545 shell pairs
 There are    241015 function pairs (    265746 Cartesian)
 
 -------------------------------------------------------
 OpenMP Integral Computing Module                       
 Release: version 1.0, May 2013, Q-Chem Inc. Pittsburgh 
 -------------------------------------------------------
 Integral Job Info:
 Integral job number is                      11
 Integral operator is                         1
 short-range coefficients                     0
 long-range coefficients              100000000
 Omega coefficients                           0
 if combine SR and LR in K                    0
 Integral screening is                        0
 Integral computing path is                   2
 max size of driver memory is            800000
 size of driver memory is                593474
 size of scratch memory is              1809772
 max col of scratch BK array               1296
 max len of scratch array in speh3          155
 max len of scratch index in speh4           18
 max int batch size is                      520
 min int batch size is                       52
 fixed nKL is                                52
 max L of basis functions is                  2
 order of int derivative is                   0
 number of shells is                        672
 number of basis is                        1392
 number of cartesian basis is              1392
 number of contracted shell pairs         60545
 number of primitive shell pairs         127077
 maxK2 (contraction) of shell pair           25
 max number of K2 of shell pair               1
 max number of CS2 of shell pair          14419
 max number of PS2 of shell pair          22175
 mem total for path MDJ                 1118956
 -------------------------------------------------------
 Smallest overlap matrix eigenvalue = 1.97E-04

 Scale SEOQF with 1.000000e-02/1.000000e-02/1.000000e-02

 Standard Electronic Orientation quadrupole field applied
 Nucleus-field energy     =    -0.0000001042 hartrees
 Guess from superposition of atomic densities
 Warning:  Energy on first SCF cycle will be non-variational
 SAD guess density has 536.000001 electrons

 -----------------------------------------------------------------------
  General SCF calculation program by
  Eric Jon Sundstrom, Paul Horn, Yuezhi Mao, Dmitri Zuev, Alec White,
  David Stuck, Shaama M.S., Shane Yost, Joonho Lee, David Small,
  Daniel Levine, Susi Lehtola, Hugh Burton, Evgeny Epifanovsky
 -----------------------------------------------------------------------
 Exchange:     0.4200 Hartree-Fock + 0.5800 PBEh-3c
 Correlation:  1.0000 PBEh-3c
 Using SG-1 standard quadrature grid
 Dispersion:   Grimme D3
 using 8 threads for integral computing
 -------------------------------------------------------
 OpenMP Integral computing Module                
 Release: version 2.0, May 2017, Q-Chem Inc. Pleasanton 
 -------------------------------------------------------
 -------------------------------------------------------
 OpenMP BLAS3 based DFT computing Module                
 Release: version 1.0, May 2013, Q-Chem Inc. Pittsburgh 
 -------------------------------------------------------
 A unrestricted SCF calculation will be
 performed using DIIS
 SCF converges when DIIS error is below 1.0e-09
 ---------------------------------------
  Cycle       Energy         DIIS error
 ---------------------------------------
 Using non-symmetric K matrix
 Warning: not using a symmetric Q
    1   -3110.0583275477      1.20e-02  
    2   -3081.7858922740      8.13e-04  
    3   -3081.9565925347      7.38e-04  
    4   -3082.3719526314      2.84e-04  
    5   -3082.4434188505      7.87e-05  
    6   -3082.4486807423      2.95e-05  
    7   -3082.4494178138      7.33e-06  
    8   -3082.4494626513      2.79e-06  
    9   -3082.4494699039      6.39e-07  
   10   -3082.4494703139      2.63e-07  
   11   -3082.4494703906      9.33e-08  
   12   -3082.4494704015      3.70e-08  
   13   -3082.4494704032      1.34e-08  
   14   -3082.4494704034      4.39e-09  
   15   -3082.4494704034      2.28e-09  
   16   -3082.4494704034      7.38e-10  Convergence criterion met
 ---------------------------------------
 SCF time:   CPU 26759.69s  wall 3608.00s 
<S^2> =          0.000000000

************** Final PCM Free Energy Summary **************
 G_electrostatic  =      -0.00000225 hartree =      -0.00140908 kcal/mol
 G_cavitation     =       0.00000000 hartree =       0.00000000 kcal/mol
 G_dispersion     =       0.00000000 hartree =       0.00000000 kcal/mol
 G_repulsion      =       0.00000000 hartree =       0.00000000 kcal/mol
 --------------------------------------------------
 Non-electrostatic Free Energy =       0.00000000 hartree =       0.00000000 kcal/mol
 Total                         =      -0.00000225 hartree =      -0.00140908 kcal/mol
 --------------------------------------------------
 SCF Energy (H0 + V/2)                       =   -3082.44947040 
 Solute Internal Energy (H0)                 =   -3082.44946816 
 Total Free Energy (H0 + V/2 + non-elec)     =   -3082.44947040 hartree
                                             = -1934266.23655704 kcal/mol
***********************************************************

 SCF   energy in the final basis set =    -3082.4494704034
 Total energy in the final basis set =    -3082.4494704034
 
 --------------------------------------------------------------
 
                    Orbital Energies (a.u.)
 --------------------------------------------------------------
 
 Alpha MOs
 -- Occupied --
-14.682 -14.682 -10.491 -10.490 -10.477 -10.477 -10.477 -10.476
-10.469 -10.469 -10.469 -10.469 -10.469 -10.469 -10.468 -10.468
-10.467 -10.467 -10.466 -10.466 -10.466 -10.466 -10.466 -10.466
-10.464 -10.464 -10.463 -10.463 -10.463 -10.463 -10.462 -10.462
-10.462 -10.461 -10.461 -10.461 -10.459 -10.458 -10.451 -10.450
-10.447 -10.447 -10.446 -10.446 -10.443 -10.442 -10.442 -10.442
-10.441 -10.441 -10.441 -10.440 -10.440 -10.440 -10.439 -10.439
-10.439 -10.438 -10.438 -10.438 -10.438 -10.438 -10.438 -10.438
-10.438 -10.437 -10.437 -10.437 -10.435 -10.435 -10.434 -10.434
-10.432 -10.431 -10.422 -10.422 -10.422 -10.422  -6.957  -6.955
 -1.102  -1.102  -1.020  -1.020  -0.976  -0.975  -0.966  -0.964
 -0.951  -0.951  -0.948  -0.947  -0.937  -0.937  -0.914  -0.906
 -0.895  -0.893  -0.882  -0.881  -0.868  -0.868  -0.862  -0.859
 -0.852  -0.851  -0.850  -0.850  -0.839  -0.838  -0.826  -0.818
 -0.817  -0.810  -0.810  -0.810  -0.781  -0.780  -0.776  -0.775
 -0.766  -0.765  -0.761  -0.759  -0.740  -0.733  -0.731  -0.725
 -0.712  -0.711  -0.696  -0.694  -0.690  -0.684  -0.675  -0.671
 -0.659  -0.658  -0.656  -0.656  -0.654  -0.653  -0.640  -0.640
 -0.639  -0.638  -0.601  -0.600  -0.597  -0.594  -0.592  -0.592
 -0.589  -0.584  -0.583  -0.580  -0.579  -0.559  -0.557  -0.555
 -0.554  -0.548  -0.539  -0.538  -0.534  -0.533  -0.531  -0.526
 -0.518  -0.514  -0.511  -0.511  -0.507  -0.503  -0.501  -0.497
 -0.496  -0.495  -0.495  -0.494  -0.494  -0.493  -0.493  -0.488
 -0.488  -0.488  -0.486  -0.485  -0.482  -0.480  -0.480  -0.480
 -0.480  -0.479  -0.476  -0.474  -0.473  -0.473  -0.473  -0.473
 -0.473  -0.471  -0.467  -0.467  -0.467  -0.460  -0.451  -0.446
 -0.446  -0.446  -0.441  -0.436  -0.435  -0.432  -0.429  -0.428
 -0.428  -0.427  -0.427  -0.418  -0.415  -0.415  -0.410  -0.409
 -0.405  -0.404  -0.402  -0.399  -0.399  -0.398  -0.398  -0.397
 -0.397  -0.394  -0.394  -0.394  -0.389  -0.388  -0.386  -0.382
 -0.381  -0.374  -0.365  -0.363  -0.361  -0.356  -0.352  -0.348
 -0.324  -0.320  -0.320  -0.318  -0.299  -0.298  -0.288  -0.288
 -0.286  -0.285  -0.283  -0.282  -0.282  -0.267  -0.262  -0.260
 -0.244  -0.243  -0.226  -0.225
 -- Virtual --
 -0.097  -0.063  -0.042  -0.034  -0.009  -0.008  -0.008   0.002
  0.006   0.006   0.011   0.019   0.020   0.036   0.037   0.041
  0.060   0.061   0.064   0.067   0.067   0.078   0.080   0.087
  0.119   0.123   0.138   0.140   0.143   0.149   0.151   0.153
  0.154   0.154   0.157   0.159   0.160   0.161   0.162   0.162
  0.168   0.173   0.176   0.177   0.178   0.179   0.180   0.184
  0.185   0.186   0.187   0.187   0.190   0.190   0.191   0.192
  0.195   0.197   0.198   0.198   0.199   0.200   0.208   0.209
  0.210   0.212   0.212   0.214   0.219   0.220   0.222   0.223
  0.225   0.228   0.228   0.230   0.233   0.233   0.235   0.237
  0.238   0.242   0.244   0.244   0.245   0.246   0.249   0.249
  0.250   0.251   0.252   0.253   0.254   0.255   0.256   0.257
  0.257   0.259   0.262   0.263   0.264   0.270   0.272   0.274
  0.276   0.276   0.277   0.279   0.283   0.285   0.287   0.288
  0.288   0.296   0.298   0.303   0.304   0.308   0.313   0.313
  0.316   0.319   0.319   0.319   0.324   0.327   0.327   0.331
  0.331   0.334   0.342   0.344   0.354   0.358   0.360   0.371
  0.372   0.373   0.375   0.379   0.380   0.389   0.390   0.392
  0.393   0.394   0.398   0.410   0.411   0.413   0.414   0.417
  0.420   0.424   0.430   0.431   0.435   0.446   0.446   0.450
  0.455   0.456   0.462   0.468   0.469   0.471   0.472   0.472
  0.479   0.480   0.483   0.487   0.489   0.489   0.490   0.490
  0.497   0.498   0.498   0.504   0.509   0.509   0.510   0.511
  0.512   0.517   0.521   0.522   0.522   0.525   0.525   0.525
  0.527   0.528   0.529   0.530   0.532   0.533   0.535   0.541
  0.543   0.546   0.546   0.548   0.549   0.550   0.553   0.556
  0.556   0.557   0.557   0.559   0.561   0.567   0.568   0.572
  0.576   0.576   0.578   0.580   0.580   0.583   0.584   0.585
  0.586   0.586   0.587   0.587   0.590   0.591   0.592   0.593
  0.594   0.594   0.595   0.596   0.599   0.600   0.601   0.606
  0.609   0.611   0.612   0.614   0.615   0.616   0.618   0.618
  0.619   0.620   0.622   0.623   0.624   0.626   0.627   0.629
  0.631   0.634   0.634   0.635   0.639   0.641   0.641   0.642
  0.645   0.645   0.646   0.650   0.650   0.651   0.652   0.654
  0.655   0.658   0.658   0.663   0.668   0.675   0.679   0.679
  0.681   0.682   0.682   0.684   0.689   0.691   0.692   0.693
  0.696   0.698   0.699   0.701   0.703   0.707   0.711   0.715
  0.716   0.722   0.724   0.725   0.726   0.728   0.729   0.731
  0.733   0.734   0.738   0.739   0.743   0.744   0.746   0.752
  0.754   0.756   0.756   0.758   0.764   0.766   0.766   0.767
  0.768   0.770   0.773   0.774   0.778   0.780   0.782   0.784
  0.785   0.789   0.796   0.798   0.799   0.803   0.804   0.806
  0.807   0.810   0.812   0.813   0.814   0.822   0.827   0.829
  0.833   0.835   0.842   0.845   0.847   0.851   0.855   0.860
  0.869   0.872   0.873   0.878   0.880   0.898   0.901   0.905
  0.906   0.910   0.911   0.914   0.918   0.924   0.925   0.934
  0.938   0.941   0.944   0.944   0.947   0.950   0.951   0.957
  0.958   0.959   0.961   0.962   0.965   0.967   0.971   0.977
  0.981   0.982   0.982   0.985   0.986   0.992   0.993   0.995
  0.996   0.997   0.998   1.006   1.009   1.011   1.014   1.017
  1.018   1.021   1.021   1.022   1.024   1.026   1.028   1.030
  1.030   1.034   1.034   1.037   1.038   1.041   1.052   1.053
  1.054   1.055   1.056   1.057   1.059   1.059   1.061   1.061
  1.066   1.066   1.067   1.067   1.068   1.068   1.070   1.072
  1.076   1.079   1.080   1.081   1.083   1.085   1.086   1.092
  1.094   1.097   1.099   1.110   1.110   1.112   1.115   1.116
  1.118   1.119   1.123   1.127   1.130   1.131   1.134   1.137
  1.138   1.139   1.141   1.147   1.148   1.152   1.154   1.155
  1.156   1.158   1.160   1.161   1.164   1.167   1.176   1.181
  1.186   1.195   1.196   1.198   1.198   1.203   1.207   1.212
  1.216   1.216   1.224   1.231   1.234   1.236   1.243   1.244
  1.247   1.249   1.260   1.264   1.265   1.270   1.273   1.277
  1.279   1.284   1.286   1.295   1.296   1.298   1.301   1.304
  1.307   1.311   1.313   1.316   1.318   1.320   1.321   1.329
  1.329   1.334   1.338   1.342   1.345   1.350   1.353   1.355
  1.358   1.364   1.366   1.370   1.371   1.374   1.376   1.378
  1.381   1.387   1.389   1.391   1.394   1.399   1.402   1.404
  1.405   1.409   1.410   1.413   1.417   1.420   1.434   1.436
  1.438   1.438   1.438   1.445   1.448   1.448   1.449   1.449
  1.451   1.458   1.462   1.472   1.477   1.485   1.498   1.505
  1.507   1.507   1.510   1.513   1.514   1.514   1.514   1.515
  1.520   1.521   1.522   1.525   1.527   1.528   1.533   1.535
  1.537   1.538   1.539   1.543   1.545   1.545   1.547   1.549
  1.551   1.553   1.554   1.557   1.558   1.561   1.562   1.566
  1.567   1.568   1.571   1.575   1.578   1.580   1.581   1.585
  1.591   1.598   1.604   1.607   1.612   1.623   1.623   1.630
  1.637   1.645   1.648   1.649   1.659   1.665   1.682   1.690
  1.695   1.721   1.738   1.742   1.745   1.748   1.762   1.777
  1.779   1.792   1.802   1.803   1.803   1.806   1.806   1.810
  1.811   1.812   1.818   1.820   1.827   1.832   1.832   1.834
  1.836   1.842   1.843   1.847   1.857   1.861   1.875   1.881
  1.883   1.887   1.891   1.899   1.901   1.904   1.906   1.914
  1.914   1.918   1.919   1.919   1.923   1.923   1.924   1.925
  1.927   1.928   1.935   1.940   1.942   1.945   1.947   1.951
  1.953   1.955   1.956   1.961   1.961   1.972   1.974   1.978
  1.980   1.980   1.981   1.984   1.990   1.992   1.996   2.008
  2.009   2.011   2.011   2.014   2.017   2.019   2.027   2.033
  2.038   2.040   2.042   2.043   2.060   2.062   2.065   2.067
  2.068   2.081   2.084   2.088   2.094   2.094   2.095   2.099
  2.107   2.107   2.116   2.124   2.127   2.128   2.136   2.139
  2.141   2.146   2.147   2.148   2.150   2.153   2.154   2.168
  2.168   2.170   2.179   2.183   2.183   2.187   2.193   2.194
  2.198   2.199   2.200   2.213   2.215   2.221   2.222   2.224
  2.225   2.228   2.229   2.239   2.242   2.244   2.247   2.248
  2.257   2.258   2.263   2.267   2.270   2.271   2.273   2.273
  2.275   2.275   2.278   2.281   2.283   2.288   2.289   2.291
  2.304   2.305   2.306   2.308   2.317   2.318   2.320   2.332
  2.335   2.336   2.342   2.343   2.345   2.348   2.349   2.350
  2.352   2.352   2.355   2.356   2.356   2.357   2.364   2.371
  2.377   2.380   2.382   2.388   2.389   2.391   2.397   2.398
  2.404   2.405   2.406   2.407   2.408   2.408   2.413   2.414
  2.416   2.419   2.425   2.426   2.426   2.429   2.433   2.436
  2.445   2.448   2.454   2.455   2.466   2.468   2.469   2.475
  2.482   2.485   2.488   2.488   2.489   2.494   2.498   2.499
  2.501   2.506   2.511   2.512   2.513   2.515   2.515   2.539
  2.547   2.550   2.552   2.574   2.580   2.584   2.609   2.625
  2.638   2.639   2.639   2.648   2.649   2.662   2.666   2.668
  2.672   2.673   2.680   2.684   2.704   2.705   2.709   2.716
  2.721   2.722   2.726   2.726   2.726   2.732   2.736   2.738
  2.739   2.744   2.748   2.752   2.765   2.771   2.773   2.777
  2.782   2.783   2.787   2.788   2.801   2.802   2.803   2.804
  2.805   2.806   2.808   2.809   2.810   2.817   2.821   2.822
  2.834   2.836   2.842   2.851   2.851   2.851   2.865   2.867
  2.878   2.887   2.891   2.896   2.902   2.904   2.908   2.910
  2.929   2.934   2.949   2.949   2.950   2.952   2.952   2.955
  2.959   2.961   2.964   2.979   2.982   2.990   2.997   3.002
  3.004   3.037   3.048   3.066   3.076   3.078   3.078   3.084
  3.085   3.086   3.111   3.145   3.148   3.229   3.249   3.252
  3.271   3.276   3.350   3.353   3.398   3.437   3.444   3.453
  3.456   3.472   3.480   3.486   3.489   3.491   3.569   3.573
  3.635   3.637   3.663   3.676   9.578   9.719  13.137  13.171
 13.242  13.244  13.430  13.438  13.439  13.491  13.507  13.521
 13.522  13.540  13.681  13.682  13.702  13.707  13.712  13.720
 13.726  13.774  13.776  13.786  13.789  13.801  13.852  13.855
 13.882  13.891  13.904  13.918  13.939  13.941  13.941  13.982
 13.982  13.994  14.000  14.008  14.021  14.022  14.028  14.039
 14.116  14.141  14.145  14.156  14.157  14.186  14.186  14.191
 14.217  14.250  14.251  14.252  14.254  14.257  14.280  14.281
 14.303  14.306  14.330  14.336  14.337  14.337  14.508  14.512
 14.565  14.569  14.580  14.581  14.584  14.585  14.601  14.604
 14.620  14.621  19.588  19.592
 
 Beta MOs
 -- Occupied --
-14.682 -14.682 -10.491 -10.490 -10.477 -10.477 -10.477 -10.476
-10.469 -10.469 -10.469 -10.469 -10.469 -10.469 -10.468 -10.468
-10.467 -10.467 -10.466 -10.466 -10.466 -10.466 -10.466 -10.466
-10.464 -10.464 -10.463 -10.463 -10.463 -10.463 -10.462 -10.462
-10.462 -10.461 -10.461 -10.461 -10.459 -10.458 -10.451 -10.450
-10.447 -10.447 -10.446 -10.446 -10.443 -10.442 -10.442 -10.442
-10.441 -10.441 -10.441 -10.440 -10.440 -10.440 -10.439 -10.439
-10.439 -10.438 -10.438 -10.438 -10.438 -10.438 -10.438 -10.438
-10.438 -10.437 -10.437 -10.437 -10.435 -10.435 -10.434 -10.434
-10.432 -10.431 -10.422 -10.422 -10.422 -10.422  -6.957  -6.955
 -1.102  -1.102  -1.020  -1.020  -0.976  -0.975  -0.966  -0.964
 -0.951  -0.951  -0.948  -0.947  -0.937  -0.937  -0.914  -0.906
 -0.895  -0.893  -0.882  -0.881  -0.868  -0.868  -0.862  -0.859
 -0.852  -0.851  -0.850  -0.850  -0.839  -0.838  -0.826  -0.818
 -0.817  -0.810  -0.810  -0.810  -0.781  -0.780  -0.776  -0.775
 -0.766  -0.765  -0.761  -0.759  -0.740  -0.733  -0.731  -0.725
 -0.712  -0.711  -0.696  -0.694  -0.690  -0.684  -0.675  -0.671
 -0.659  -0.658  -0.656  -0.656  -0.654  -0.653  -0.640  -0.640
 -0.639  -0.638  -0.601  -0.600  -0.597  -0.594  -0.592  -0.592
 -0.589  -0.584  -0.583  -0.580  -0.579  -0.559  -0.557  -0.555
 -0.554  -0.548  -0.539  -0.538  -0.534  -0.533  -0.531  -0.526
 -0.518  -0.514  -0.511  -0.511  -0.507  -0.503  -0.501  -0.497
 -0.496  -0.495  -0.495  -0.494  -0.494  -0.493  -0.493  -0.488
 -0.488  -0.488  -0.486  -0.485  -0.482  -0.480  -0.480  -0.480
 -0.480  -0.479  -0.476  -0.474  -0.473  -0.473  -0.473  -0.473
 -0.473  -0.471  -0.467  -0.467  -0.467  -0.460  -0.451  -0.446
 -0.446  -0.446  -0.441  -0.436  -0.435  -0.432  -0.429  -0.428
 -0.428  -0.427  -0.427  -0.418  -0.415  -0.415  -0.410  -0.409
 -0.405  -0.404  -0.402  -0.399  -0.399  -0.398  -0.398  -0.397
 -0.397  -0.394  -0.394  -0.394  -0.389  -0.388  -0.386  -0.382
 -0.381  -0.374  -0.365  -0.363  -0.361  -0.356  -0.352  -0.348
 -0.324  -0.320  -0.320  -0.318  -0.299  -0.298  -0.288  -0.288
 -0.286  -0.285  -0.283  -0.282  -0.282  -0.267  -0.262  -0.260
 -0.244  -0.243  -0.226  -0.225
 -- Virtual --
 -0.097  -0.063  -0.042  -0.034  -0.009  -0.008  -0.008   0.002
  0.006   0.006   0.011   0.019   0.020   0.036   0.037   0.041
  0.060   0.061   0.064   0.067   0.067   0.078   0.080   0.087
  0.119   0.123   0.138   0.140   0.143   0.149   0.151   0.153
  0.154   0.154   0.157   0.159   0.160   0.161   0.162   0.162
  0.168   0.173   0.176   0.177   0.178   0.179   0.180   0.184
  0.185   0.186   0.187   0.187   0.190   0.190   0.191   0.192
  0.195   0.197   0.198   0.198   0.199   0.200   0.208   0.209
  0.210   0.212   0.212   0.214   0.219   0.220   0.222   0.223
  0.225   0.228   0.228   0.230   0.233   0.233   0.235   0.237
  0.238   0.242   0.244   0.244   0.245   0.246   0.249   0.249
  0.250   0.251   0.252   0.253   0.254   0.255   0.256   0.257
  0.257   0.259   0.262   0.263   0.264   0.270   0.272   0.274
  0.276   0.276   0.277   0.279   0.283   0.285   0.287   0.288
  0.288   0.296   0.298   0.303   0.304   0.308   0.313   0.313
  0.316   0.319   0.319   0.319   0.324   0.327   0.327   0.331
  0.331   0.334   0.342   0.344   0.354   0.358   0.360   0.371
  0.372   0.373   0.375   0.379   0.380   0.389   0.390   0.392
  0.393   0.394   0.398   0.410   0.411   0.413   0.414   0.417
  0.420   0.424   0.430   0.431   0.435   0.446   0.446   0.450
  0.455   0.456   0.462   0.468   0.469   0.471   0.472   0.472
  0.479   0.480   0.483   0.487   0.489   0.489   0.490   0.490
  0.497   0.498   0.498   0.504   0.509   0.509   0.510   0.511
  0.512   0.517   0.521   0.522   0.522   0.525   0.525   0.525
  0.527   0.528   0.529   0.530   0.532   0.533   0.535   0.541
  0.543   0.546   0.546   0.548   0.549   0.550   0.553   0.556
  0.556   0.557   0.557   0.559   0.561   0.567   0.568   0.572
  0.576   0.576   0.578   0.580   0.580   0.583   0.584   0.585
  0.586   0.586   0.587   0.587   0.590   0.591   0.592   0.593
  0.594   0.594   0.595   0.596   0.599   0.600   0.601   0.606
  0.609   0.611   0.612   0.614   0.615   0.616   0.618   0.618
  0.619   0.620   0.622   0.623   0.624   0.626   0.627   0.629
  0.631   0.634   0.634   0.635   0.639   0.641   0.641   0.642
  0.645   0.645   0.646   0.650   0.650   0.651   0.652   0.654
  0.655   0.658   0.658   0.663   0.668   0.675   0.679   0.679
  0.681   0.682   0.682   0.684   0.689   0.691   0.692   0.693
  0.696   0.698   0.699   0.701   0.703   0.707   0.711   0.715
  0.716   0.722   0.724   0.725   0.726   0.728   0.729   0.731
  0.733   0.734   0.738   0.739   0.743   0.744   0.746   0.752
  0.754   0.756   0.756   0.758   0.764   0.766   0.766   0.767
  0.768   0.770   0.773   0.774   0.778   0.780   0.782   0.784
  0.785   0.789   0.796   0.798   0.799   0.803   0.804   0.806
  0.807   0.810   0.812   0.813   0.814   0.822   0.827   0.829
  0.833   0.835   0.842   0.845   0.847   0.851   0.855   0.860
  0.869   0.872   0.873   0.878   0.880   0.898   0.901   0.905
  0.906   0.910   0.911   0.914   0.918   0.924   0.925   0.934
  0.938   0.941   0.944   0.944   0.947   0.950   0.951   0.957
  0.958   0.959   0.961   0.962   0.965   0.967   0.971   0.977
  0.981   0.982   0.982   0.985   0.986   0.992   0.993   0.995
  0.996   0.997   0.998   1.006   1.009   1.011   1.014   1.017
  1.018   1.021   1.021   1.022   1.024   1.026   1.028   1.030
  1.030   1.034   1.034   1.037   1.038   1.041   1.052   1.053
  1.054   1.055   1.056   1.057   1.059   1.059   1.061   1.061
  1.066   1.066   1.067   1.067   1.068   1.068   1.070   1.072
  1.076   1.079   1.080   1.081   1.083   1.085   1.086   1.092
  1.094   1.097   1.099   1.110   1.110   1.112   1.115   1.116
  1.118   1.119   1.123   1.127   1.130   1.131   1.134   1.137
  1.138   1.139   1.141   1.147   1.148   1.152   1.154   1.155
  1.156   1.158   1.160   1.161   1.164   1.167   1.176   1.181
  1.186   1.195   1.196   1.198   1.198   1.203   1.207   1.212
  1.216   1.216   1.224   1.231   1.234   1.236   1.243   1.244
  1.247   1.249   1.260   1.264   1.265   1.270   1.273   1.277
  1.279   1.284   1.286   1.295   1.296   1.298   1.301   1.304
  1.307   1.311   1.313   1.316   1.318   1.320   1.321   1.329
  1.329   1.334   1.338   1.342   1.345   1.350   1.353   1.355
  1.358   1.364   1.366   1.370   1.371   1.374   1.376   1.378
  1.381   1.387   1.389   1.391   1.394   1.399   1.402   1.404
  1.405   1.409   1.410   1.413   1.417   1.420   1.434   1.436
  1.438   1.438   1.438   1.445   1.448   1.448   1.449   1.449
  1.451   1.458   1.462   1.472   1.477   1.485   1.498   1.505
  1.507   1.507   1.510   1.513   1.514   1.514   1.514   1.515
  1.520   1.521   1.522   1.525   1.527   1.528   1.533   1.535
  1.537   1.538   1.539   1.543   1.545   1.545   1.547   1.549
  1.551   1.553   1.554   1.557   1.558   1.561   1.562   1.566
  1.567   1.568   1.571   1.575   1.578   1.580   1.581   1.585
  1.591   1.598   1.604   1.607   1.612   1.623   1.623   1.630
  1.637   1.645   1.648   1.649   1.659   1.665   1.682   1.690
  1.695   1.721   1.738   1.742   1.745   1.748   1.762   1.777
  1.779   1.792   1.802   1.803   1.803   1.806   1.806   1.810
  1.811   1.812   1.818   1.820   1.827   1.832   1.832   1.834
  1.836   1.842   1.843   1.847   1.857   1.861   1.875   1.881
  1.883   1.887   1.891   1.899   1.901   1.904   1.906   1.914
  1.914   1.918   1.919   1.919   1.923   1.923   1.924   1.925
  1.927   1.928   1.935   1.940   1.942   1.945   1.947   1.951
  1.953   1.955   1.956   1.961   1.961   1.972   1.974   1.978
  1.980   1.980   1.981   1.984   1.990   1.992   1.996   2.008
  2.009   2.011   2.011   2.014   2.017   2.019   2.027   2.033
  2.038   2.040   2.042   2.043   2.060   2.062   2.065   2.067
  2.068   2.081   2.084   2.088   2.094   2.094   2.095   2.099
  2.107   2.107   2.116   2.124   2.127   2.128   2.136   2.139
  2.141   2.146   2.147   2.148   2.150   2.153   2.154   2.168
  2.168   2.170   2.179   2.183   2.183   2.187   2.193   2.194
  2.198   2.199   2.200   2.213   2.215   2.221   2.222   2.224
  2.225   2.228   2.229   2.239   2.242   2.244   2.247   2.248
  2.257   2.258   2.263   2.267   2.270   2.271   2.273   2.273
  2.275   2.275   2.278   2.281   2.283   2.288   2.289   2.291
  2.304   2.305   2.306   2.308   2.317   2.318   2.320   2.332
  2.335   2.336   2.342   2.343   2.345   2.348   2.349   2.350
  2.352   2.352   2.355   2.356   2.356   2.357   2.364   2.371
  2.377   2.380   2.382   2.388   2.389   2.391   2.397   2.398
  2.404   2.405   2.406   2.407   2.408   2.408   2.413   2.414
  2.416   2.419   2.425   2.426   2.426   2.429   2.433   2.436
  2.445   2.448   2.454   2.455   2.466   2.468   2.469   2.475
  2.482   2.485   2.488   2.488   2.489   2.494   2.498   2.499
  2.501   2.506   2.511   2.512   2.513   2.515   2.515   2.539
  2.547   2.550   2.552   2.574   2.580   2.584   2.609   2.625
  2.638   2.639   2.639   2.648   2.649   2.662   2.666   2.668
  2.672   2.673   2.680   2.684   2.704   2.705   2.709   2.716
  2.721   2.722   2.726   2.726   2.726   2.732   2.736   2.738
  2.739   2.744   2.748   2.752   2.765   2.771   2.773   2.777
  2.782   2.783   2.787   2.788   2.801   2.802   2.803   2.804
  2.805   2.806   2.808   2.809   2.810   2.817   2.821   2.822
  2.834   2.836   2.842   2.851   2.851   2.851   2.865   2.867
  2.878   2.887   2.891   2.896   2.902   2.904   2.908   2.910
  2.929   2.934   2.949   2.949   2.950   2.952   2.952   2.955
  2.959   2.961   2.964   2.979   2.982   2.990   2.997   3.002
  3.004   3.037   3.048   3.066   3.076   3.078   3.078   3.084
  3.085   3.086   3.111   3.145   3.148   3.229   3.249   3.252
  3.271   3.276   3.350   3.353   3.398   3.437   3.444   3.453
  3.456   3.472   3.480   3.486   3.489   3.491   3.569   3.573
  3.635   3.637   3.663   3.676   9.578   9.719  13.137  13.171
 13.242  13.244  13.430  13.438  13.439  13.491  13.507  13.521
 13.522  13.540  13.681  13.682  13.702  13.707  13.712  13.720
 13.726  13.774  13.776  13.786  13.789  13.801  13.852  13.855
 13.882  13.891  13.904  13.918  13.939  13.941  13.941  13.982
 13.982  13.994  14.000  14.008  14.021  14.022  14.028  14.039
 14.116  14.141  14.145  14.156  14.157  14.186  14.186  14.191
 14.217  14.250  14.251  14.252  14.254  14.257  14.280  14.281
 14.303  14.306  14.330  14.336  14.337  14.337  14.508  14.512
 14.565  14.569  14.580  14.581  14.584  14.585  14.601  14.604
 14.620  14.621  19.588  19.592
 --------------------------------------------------------------
 
          Ground-State Mulliken Net Atomic Charges

     Atom                 Charge (a.u.)    Spin (a.u.)
  --------------------------------------------------------
      1 C                     0.107655      -0.000000
      2 C                     0.331443       0.000000
      3 N                    -0.737829       0.000000
      4 C                     0.327116      -0.000000
      5 C                     0.107484       0.000000
      6 C                    -0.402350       0.000000
      7 C                     0.126087       0.000000
      8 C                    -0.273399       0.000000
      9 C                    -0.268387      -0.000000
     10 C                    -0.401933      -0.000000
     11 C                     0.125939      -0.000000
     12 C                    -0.273345      -0.000000
     13 C                    -0.271261       0.000000
     14 C                     0.306034       0.000000
     15 C                    -0.345492      -0.000000
     16 C                     0.055786       0.000000
     17 C                    -0.216569      -0.000000
     18 C                     0.047825      -0.000000
     19 C                    -0.341557      -0.000000
     20 B                     0.704134       0.000000
     21 C                    -0.151341       0.000000
     22 C                    -0.379499      -0.000000
     23 C                     0.086177       0.000000
     24 C                     0.108706      -0.000000
     25 C                    -0.394306       0.000000
     26 C                    -0.156806      -0.000000
     27 C                     0.196842      -0.000000
     28 C                    -0.060616       0.000000
     29 C                     0.196344      -0.000000
     30 C                     0.249629      -0.000000
     31 C                    -0.334840      -0.000000
     32 C                    -0.203776       0.000000
     33 C                    -0.383955      -0.000000
     34 C                    -0.375066       0.000000
     35 C                    -0.206931       0.000000
     36 C                    -0.330584      -0.000000
     37 B                     0.707232       0.000000
     38 C                    -0.152894      -0.000000
     39 C                    -0.391327      -0.000000
     40 C                     0.112210      -0.000000
     41 C                     0.084503      -0.000000
     42 C                    -0.382796       0.000000
     43 C                    -0.154646      -0.000000
     44 C                     0.195346       0.000000
     45 C                    -0.059276      -0.000000
     46 C                     0.196401      -0.000000
     47 C                     0.251252       0.000000
     48 C                    -0.331056      -0.000000
     49 C                    -0.206461       0.000000
     50 C                    -0.375158       0.000000
     51 C                    -0.384871      -0.000000
     52 C                    -0.203756       0.000000
     53 C                    -0.335702      -0.000000
     54 C                    -0.758076       0.000000
     55 C                    -0.762680       0.000000
     56 C                    -0.209968       0.000000
     57 C                     0.046349      -0.000000
     58 C                    -0.352854      -0.000000
     59 C                     0.313329      -0.000000
     60 C                    -0.345290       0.000000
     61 C                     0.055251      -0.000000
     62 N                    -0.739892      -0.000000
     63 C                     0.326284       0.000000
     64 C                     0.113814      -0.000000
     65 C                     0.110569      -0.000000
     66 C                     0.328434       0.000000
     67 C                    -0.405900      -0.000000
     68 C                     0.126042       0.000000
     69 C                    -0.274168       0.000000
     70 C                    -0.271284      -0.000000
     71 C                    -0.405553       0.000000
     72 C                     0.125944      -0.000000
     73 C                    -0.274323       0.000000
     74 C                    -0.271485       0.000000
     75 C                    -0.763998      -0.000000
     76 C                    -0.759444       0.000000
     77 H                     0.231216       0.000000
     78 H                     0.206666      -0.000000
     79 H                     0.231084      -0.000000
     80 H                     0.206873       0.000000
     81 C                    -0.702958      -0.000000
     82 H                     0.196680      -0.000000
     83 C                    -0.703043      -0.000000
     84 H                     0.196564      -0.000000
     85 H                     0.234972       0.000000
     86 H                     0.235209       0.000000
     87 H                     0.242309      -0.000000
     88 H                     0.247678       0.000000
     89 H                     0.248959       0.000000
     90 H                     0.240850      -0.000000
     91 H                     0.247663      -0.000000
     92 H                     0.244704       0.000000
     93 H                     0.232176       0.000000
     94 H                     0.229695       0.000000
     95 H                     0.219677       0.000000
     96 H                     0.221409       0.000000
     97 H                     0.228829      -0.000000
     98 H                     0.222183       0.000000
     99 H                     0.228826       0.000000
    100 H                     0.222514      -0.000000
    101 H                     0.232706      -0.000000
    102 H                     0.229962       0.000000
    103 H                     0.220559      -0.000000
    104 H                     0.220364       0.000000
    105 H                     0.222515      -0.000000
    106 H                     0.228688       0.000000
    107 H                     0.229284       0.000000
    108 H                     0.222233       0.000000
    109 H                     0.231544      -0.000000
    110 H                     0.235877       0.000000
    111 H                     0.227692       0.000000
    112 H                     0.206346       0.000000
    113 H                     0.227935      -0.000000
    114 H                     0.206098      -0.000000
    115 C                    -0.703155      -0.000000
    116 H                     0.196444      -0.000000
    117 C                    -0.703330      -0.000000
    118 H                     0.196545       0.000000
    119 H                     0.242574      -0.000000
    120 H                     0.248254      -0.000000
    121 H                     0.247713       0.000000
    122 H                     0.240561       0.000000
    123 H                     0.244769       0.000000
    124 H                     0.246965       0.000000
    125 H                     0.221492       0.000000
    126 H                     0.227035      -0.000000
    127 H                     0.227313       0.000000
    128 H                     0.221689      -0.000000
    129 H                     0.226825       0.000000
    130 H                     0.227340       0.000000
    131 H                     0.221549       0.000000
    132 H                     0.226647      -0.000000
    133 H                     0.227266       0.000000
    134 H                     0.221447       0.000000
    135 H                     0.226966       0.000000
    136 H                     0.227093      -0.000000
  --------------------------------------------------------
  Sum of atomic charges =     0.000000
  Sum of spin   charges =     0.000000

 -----------------------------------------------------------------
                    Cartesian Multipole Moments
 -----------------------------------------------------------------
    Charge (ESU x 10^10)
                 0.0000
    Dipole Moment (Debye)
         X      -0.1670      Y       0.0119      Z       0.0202
       Tot       0.1686
    Quadrupole Moments (Debye-Ang)
        XX    -431.7437     XY     -25.4729     YY    -438.9187
        XZ     -21.8335     YZ      22.6100     ZZ    -445.8740
    Octopole Moments (Debye-Ang^2)
       XXX    7021.2101    XXY     916.1620    XYY    2383.4793
       YYY    1694.3375    XXZ    2209.2122    XYZ      24.8361
       YYZ    1900.9850    XZZ    2586.0724    YZZ     387.2785
       ZZZ    6384.2751
    Hexadecapole Moments (Debye-Ang^3)
      XXXX -141160.1131   XXXY  -15218.7491   XXYY  -28050.0232
      XYYY  -10907.0269   YYYY  -24670.6365   XXXZ  -51275.7954
      XXYZ   -7049.6291   XYYZ  -16997.5047   YYYZ  -18872.0514
      XXZZ  -44051.2818   XYZZ   -3503.5037   YYZZ  -20563.4849
      XZZZ  -53407.4828   YZZZ  -17715.0351   ZZZZ -116056.3579
 -----------------------------------------------------------------
Archival summary:
1\1\ctcp010\SP\ProcedureUnspecified\BasisUnspecified\276256\mewes1\WedDec1910:20:332018WedDec1910:20:332018\0\\#,ProcedureUnspecified,BasisUnspecified,\\0,1\N\C,1,1.37961\C,1,1.3802,2,108.69\C,3,1.38936,1,129.541,2,177.903,0\H,4,1.08195,3,121.535,1,1.14502,0\C,4,1.38437,3,117.521,1,-178.561,0\H,6,1.08229,4,119.069,3,179.986,0\C,2,1.39098,1,129.501,3,-179.802,0\H,8,1.08195,2,121.591,1,0.287521,0\C,8,1.38396,2,117.641,1,-179.942,0\H,10,1.08241,8,119.068,2,-179.805,0\C,10,1.39842,8,121.628,2,0.138388,0\C,12,1.38247,10,120.443,8,0.0753708,0\H,13,1.08313,12,120.491,10,179.954,0\C,13,1.39174,12,118.979,10,-0.192213,0\C,6,1.39843,4,121.668,3,0.231544,0\C,16,1.38255,6,120.518,4,0.107184,0\H,17,1.08321,16,120.602,6,179.441,0\C,17,1.39102,16,118.879,6,-0.156962,0\C,1,1.4123,2,124.611,3,173.419,0\C,20,1.38587,1,120.643,2,118.638,0\H,21,1.08393,20,119.565,1,0.713151,0\C,20,1.38673,1,119.288,2,-60.0046,0\H,23,1.0841,20,119.483,1,-2.33715,0\C,23,1.38815,20,120.425,1,177.065,0\C,21,1.39089,20,120.23,1,-177.844,0\C,26,1.39982,21,119.96,20,0.700443,0\C,16,1.45,6,119.539,4,179.832,0\H,28,1.089,16,109.471,6,-60,0\H,28,1.089,16,109.471,6,180,0\H,28,1.089,16,109.471,6,60,0\C,12,1.45,10,119.587,8,-179.899,0\H,32,1.089,12,109.471,10,-60,0\H,32,1.089,12,109.471,10,180,0\H,32,1.089,12,109.471,10,60,0\C,26,1.5024,21,119.995,20,179.082,0\H,36,1.08942,26,111.731,21,0.714607,0\H,36,1.09194,26,111.448,21,121.099,0\H,36,1.09239,26,111.339,21,-119.469,0\C,25,1.50283,23,119.781,20,-178.582,0\H,40,1.08934,25,111.565,23,-2.82763,0\H,40,1.09187,25,111.53,23,-123.187,0\H,40,1.09248,25,111.328,23,117.276,0\B,27,1.57313,26,121.173,21,175.841,0\C,44,1.54912,27,121.203,26,92.6293,0\C,45,1.39414,44,119.666,27,-3.63923,0\H,46,1.08489,45,119.891,44,-1.2297,0\C,46,1.38137,45,119.818,44,177.869,0\C,48,1.41232,46,120.698,45,-0.2405,0\C,49,1.38606,48,119.772,46,0.33274,0\H,50,1.08454,49,120.214,48,-179.482,0\C,50,1.39966,49,120.073,48,-0.11516,0\C,48,1.45863,46,130.622,45,-178.478,0\C,53,1.37077,48,134.889,46,-0.627869,0\H,54,1.08313,53,121.951,48,-0.935499,0\C,53,1.40495,48,106.09,46,178.207,0\C,56,1.39048,53,123.814,48,-178.853,0\C,56,1.40804,53,111.361,48,0.113528,0\C,58,1.36985,56,118.09,53,-179.151,0\H,59,1.08273,58,121.912,56,179.802,0\C,54,1.41436,53,118.419,48,178.799,0\H,61,1.08228,54,118.606,53,-179.971,0\C,61,1.37595,54,122.265,53,-0.167558,0\H,63,1.08316,61,119.799,54,-179.791,0\C,57,1.415,56,115.887,53,179.133,0\H,65,1.08312,57,120.1,56,-179.98,0\C,65,1.37586,57,119.953,56,-0.214497,0\H,67,1.08205,65,118.938,57,-179.842,0\C,44,1.55167,27,119.041,26,-90.3529,0\C,69,1.39412,44,119.479,27,3.02501,0\H,70,1.08443,69,119.97,44,1.86986,0\C,70,1.38061,69,119.937,44,-176.833,0\C,72,1.41206,70,120.687,69,-0.306029,0\C,73,1.38605,72,119.701,70,-0.127498,0\H,74,1.08464,73,120.252,72,179.371,0\C,74,1.39986,73,120.105,72,0.416379,0\C,72,1.45928,70,130.541,69,176.99,0\C,77,1.37104,72,134.952,70,0.722887,0\H,78,1.08334,77,121.982,72,1.57609,0\C,77,1.40547,72,105.974,70,-177.547,0\C,80,1.39088,77,123.741,72,178.332,0\C,80,1.409,77,111.481,72,-0.197323,0\C,82,1.37016,80,118.104,77,178.946,0\H,83,1.08282,82,121.956,80,-179.631,0\C,78,1.41445,77,118.407,72,-178.096,0\H,85,1.08233,78,118.606,77,179.909,0\C,85,1.37597,78,122.259,77,0.155436,0\H,87,1.08321,85,119.776,78,179.668,0\C,81,1.41513,80,115.916,77,-178.946,0\H,89,1.08313,81,120.105,80,-179.969,0\C,89,1.37576,81,119.957,80,0.343377,0\H,91,1.08202,89,118.926,81,179.749,0\B,76,1.55663,74,120.756,73,177.476,0\C,93,1.57286,76,120.622,74,-1.7577,0\C,94,1.39902,93,121.202,76,94.5196,0\C,95,1.39066,94,119.872,93,177.344,0\H,96,1.08374,95,120.032,94,-178.225,0\C,96,1.38776,95,120.322,94,1.11745,0\C,98,1.38761,96,119.948,95,-0.124205,0\H,99,1.08357,98,119.552,96,178.977,0\C,99,1.38961,98,120.412,96,-0.888108,0\N,98,1.41329,96,120.167,95,-179.584,0\C,102,1.38038,98,125.423,96,117.189,0\C,102,1.38048,98,126.047,96,-60.653,0\C,104,1.39012,102,128.85,98,-2.45725,0\H,105,1.08227,104,121.486,102,0.170526,0\C,105,1.38303,104,117.463,102,-179.83,0\H,107,1.08232,105,119.151,104,-179.84,0\C,103,1.39055,102,128.819,98,0.0331414,0\H,109,1.0822,103,121.513,102,0.853086,0\C,109,1.3829,103,117.479,102,-178.946,0\H,111,1.08238,109,119.157,103,-179.984,0\C,111,1.39836,109,121.408,103,0.175651,0\C,113,1.38295,111,120.638,109,0.335898,0\H,114,1.0827,113,120.42,111,179.433,0\C,114,1.39145,113,119.094,111,-0.294027,0\C,107,1.39855,105,121.411,104,0.23159,0\C,117,1.38302,107,120.669,105,0.277924,0\H,118,1.08281,117,120.419,107,179.686,0\C,118,1.39126,117,119.06,107,-0.323701,0\C,113,1.45,111,119.493,109,-179.943,0\H,121,1.089,113,109.471,111,180,0\H,121,1.089,113,109.471,111,-60,0\H,121,1.089,113,109.471,111,60,0\C,117,1.45,107,119.491,105,-179.862,0\H,125,1.089,117,109.471,107,60,0\H,125,1.089,117,109.471,107,-180,0\H,125,1.089,117,109.471,107,-60,0\C,95,1.50281,94,119.696,93,-1.89123,0\H,129,1.08935,95,111.924,94,179.598,0\H,129,1.09225,95,111.405,94,59.211,0\H,129,1.09237,95,111.266,94,-60.0804,0\C,101,1.50344,99,120.269,98,-179.601,0\H,133,1.08947,101,111.894,99,2.58015,0\H,133,1.09201,101,111.316,99,-117.702,0\H,133,1.09243,101,111.445,99,122.915,0\\\@

 Total job time:  3612.98s(wall), 26775.37s(cpu) 
 Wed Dec 19 10:20:33 2018

        *************************************************************
        *                                                           *
        *  Thank you very much for using Q-Chem.  Have a nice day.  *
        *                                                           *
        *************************************************************


0 sent ACK to 0 
now end server 0 ... 
 
*************************************************************
Job 2 of 2 
*************************************************************
 
mFile = /cm/shared/apps/q-chem/intel/QCHEM_5.1.0_Trunk/bin/mpi/machines
Process 0 of 1 is on ctcp010 - thread support 0
initial socket setup ...start
initial socket setup ...done 
now start server 0 ... 
Q-Chem Developer Version!
                  Welcome to Q-Chem
     A Quantum Leap Into The Future Of Chemistry


 Q-Chem 5.1, Q-Chem, Inc., Pleasanton, CA (2018)

 Yihan Shao,  Zhengting Gan,  E. Epifanovsky,  A. T. B. Gilbert,  M. Wormit,  
 J. Kussmann,  A. W. Lange,  A. Behn,  Jia Deng,  Xintian Feng,  D. Ghosh,  
 M. Goldey,  P. R. Horn,  L. D. Jacobson,  I. Kaliman,  T. Kus,  A. Landau,  
 Jie Liu,  E. I. Proynov,  R. M. Richard,  R. P. Steele,  E. J. Sundstrom,  
 H. L. Woodcock III,  P. M. Zimmerman,  D. Zuev,  B. Albrecht,  E. Alguire,  
 S. A. Baeppler,  D. Barton,  Z. Benda,  Y. A. Bernard,  E. J. Berquist,  
 K. B. Bravaya,  H. Burton,  D. Casanova,  Chun-Min Chang,  Yunqing Chen,  
 A. Chien,  K. D. Closser,  M. P. Coons,  S. Coriani,  S. Dasgupta,  
 A. L. Dempwolff,  M. Diedenhofen,  Hainam Do,  R. G. Edgar,  Po-Tung Fang,  
 S. Faraji,  S. Fatehi,  Qingguo Feng,  K. D. Fenk,  J. Fosso-Tande,  
 Qinghui Ge,  A. Ghysels,  G. Gidofalvi,  J. Gomes,  J. Gonthier,  A. Gunina,  
 D. Hait,  M. W. D. Hanson-Heine,  P. H. P. Harbach,  A. W. Hauser,  
 J. E. Herr,  E. G. Hohenstein,  Z. C. Holden,  Kerwin Hui,  B. C. Huynh,  
 T.-C. Jagau,  Hyunjun Ji,  B. Kaduk,  K. Khistyaev,  Jaehoon Kim,  
 P. Klunzinger,  K. Koh,  D. Kosenkov,  L. Koulias,  T. Kowalczyk,  
 C. M. Krauter,  A. Kunitsa,  Ka Un Lao,  A. Laurent,  K. V. Lawler,  
 Joonho Lee,  D. Lefrancois,  S. Lehtola,  D. S. Levine,  Yi-Pei Li,  
 You-Sheng Lin,  Fenglai Liu,  E. Livshits,  A. Luenser,  P. Manohar,  
 E. Mansoor,  S. F. Manzer,  Shan-Ping Mao,  Yuezhi Mao,  N. Mardirossian,  
 A. V. Marenich,  T. Markovich,  L. A. Martinez-Martinez,  S. A. Maurer,  
 N. J. Mayhall,  S. C. McKenzie,  J.-M. Mewes,  A. F. Morrison,  
 J. W. Mullinax,  K. Nanda,  T. S. Nguyen-Beck,  R. Olivares-Amaya,  
 J. A. Parkhill,  T. M. Perrine,  F. Plasser,  P. Pokhilko,  S. Prager,  
 A. Prociuk,  E. Ramos,  D. R. Rehn,  F. Rob,  M. Schneider,  N. Sergueev,  
 S. M. Sharada,  S. Sharma,  D. W. Small,  T. Stauch,  T. Stein,  
 Yu-Chuan Su,  A. J. W. Thom,  A. Tkatchenko,  T. Tsuchimochi,  N. M. Tubman,  
 L. Vogt,  M. L. Vidal,  O. Vydrov,  M. A. Watson,  J. Wenzel,  
 M. de Wergifosse,  T. A. Wesolowski,  A. White,  J. Witte,  A. Yamada,  
 Jun Yang,  K. Yao,  S. Yeganeh,  S. R. Yost,  Zhi-Qiang You,  A. Zech,  
 Igor Ying Zhang,  Xing Zhang,  Yan Zhao,  Ying Zhu,  B. R. Brooks,  
 G. K. L. Chan,  C. J. Cramer,  M. S. Gordon,  W. J. Hehre,  A. Klamt,  
 M. W. Schmidt,  C. D. Sherrill,  D. G. Truhlar,  A. Aspuru-Guzik,  R. Baer,  
 A. T. Bell,  N. A. Besley,  Jeng-Da Chai,  A. E. DePrince, III,  
 R. A. DiStasio Jr.,  A. Dreuw,  B. D. Dunietz,  T. R. Furlani,  
 Chao-Ping Hsu,  Yousung Jung,  Jing Kong,  D. S. Lambrecht,  WanZhen Liang,  
 C. Ochsenfeld,  V. A. Rassolov,  L. V. Slipchenko,  J. E. Subotnik,  
 T. Van Voorhis,  J. M. Herbert,  A. I. Krylov,  P. M. W. Gill,  M. Head-Gordon

 Contributors to earlier versions of Q-Chem not listed above: 
 R. D. Adamson,  B. Austin,  J. Baker,  G. J. O. Beran,  K. Brandhorst,  
 S. T. Brown,  E. F. C. Byrd,  A. K. Chakraborty,  C.-L. Cheng,  
 Siu Hung Chien,  D. M. Chipman,  D. L. Crittenden,  H. Dachsel,  
 R. J. Doerksen,  A. D. Dutoi,  L. Fusti-Molnar,  W. A. Goddard III,  
 A. Golubeva-Zadorozhnaya,  S. R. Gwaltney,  G. Hawkins,  A. Heyden,  
 S. Hirata,  G. Kedziora,  F. J. Keil,  C. Kelley,  Jihan Kim,  R. A. King,  
 R. Z. Khaliullin,  P. P. Korambath,  W. Kurlancheek,  A. M. Lee,  M. S. Lee,  
 S. V. Levchenko,  Ching Yeh Lin,  D. Liotard,  R. C. Lochan,  I. Lotan,  
 P. E. Maslen,  N. Nair,  D. P. O'Neill,  D. Neuhauser,  E. Neuscamman,  
 C. M. Oana,  R. Olson,  B. Peters,  R. Peverati,  P. A. Pieniazek,  
 Y. M. Rhee,  J. Ritchie,  M. A. Rohrdanz,  E. Rosta,  N. J. Russ,  
 H. F. Schaefer III,  N. E. Schultz,  N. Shenvi,  A. C. Simmonett,  A. Sodt,  
 D. Stuck,  K. S. Thanthiriwatte,  V. Vanovschi,  Tao Wang,  A. Warshel,  
 C. F. Williams,  Q. Wu,  X. Xu,  W. Zhang

 Please cite Q-Chem as follows:
 Y. Shao et al., Mol. Phys. 113, 184-215 (2015)
 DOI: 10.1080/00268976.2014.952696

 Q-Chem 5.1.1 for Intel X86 EM64T Linux

 Parts of Q-Chem use Armadillo 8.300.2 (Tropical Shenanigans).
 http://arma.sourceforge.net/

 Q-Chem begins on Wed Dec 19 10:20:36 2018  

Host: ctcp010
0

     Scratch files written to /scratch/mewes1/142079/qchem118876//
 Parallel job on  1  processors
The previous job contains 0 fragments, simply inherited here
Symmetry turned off for PCM/SM12/SMD calculation
Input Ideriv = 2
Curr. Ideriv = -1
Max.  Ideriv = 2
Input Ideriv = 2
Curr. Ideriv = 2
Max.  Ideriv = 2

Checking the input file for inconsistencies... 	...done.

--------------------------------------------------------------
User input:
--------------------------------------------------------------

$rem
threads 8
jobtype opt
method PBEh-3c
basis def2-mSVP
scf_guess	read
mem_static      1024
mem_total       8000
sym_ignore      true
unrestricted true
mom_start       1
scf_algorithm	diis
scf_max_cycles	250
solvent_method	pcm
geom_opt_tol_energy 25
geom_opt_tol_gradient 75
$end

$solvent
dielectric      1.0001
$end

$pcm
theory iefpcm
heavypoints 194
hpoints	    194
$end

$occupied
1 2 3 4 5 6 7 8 9 10 11 12 13 14 15 16 17 18 19 20 21 22 23 24 25 26 27 28 29 30 31 32 33 34 35 36 37 38 39 40 41 42 43 44 45 46 47 48 49 50 51 52 53 54 55 56 57 58 59 60 61 62 63 64 65 66 67 68 69 70 71 72 73 74 75 76 77 78 79 80 81 82 83 84 85 86 87 88 89 90 91 92 93 94 95 96 97 98 99 100 101 102 103 104 105 106 107 108 109 110 111 112 113 114 115 116 117 118 119 120 121 122 123 124 125 126 127 128 129 130 131 132 133 134 135 136 137 138 139 140 141 142 143 144 145 146 147 148 149 150 151 152 153 154 155 156 157 158 159 160 161 162 163 164 165 166 167 168 169 170 171 172 173 174 175 176 177 178 179 180 181 182 183 184 185 186 187 188 189 190 191 192 193 194 195 196 197 198 199 200 201 202 203 204 205 206 207 208 209 210 211 212 213 214 215 216 217 218 219 220 221 222 223 224 225 226 227 228 229 230 231 232 233 234 235 236 237 238 239 240 241 242 243 244 245 246 247 248 249 250 251 252 253 254 255 256 257 258 259 260 261 262 263 264 265 266 267  269
1 2 3 4 5 6 7 8 9 10 11 12 13 14 15 16 17 18 19 20 21 22 23 24 25 26 27 28 29 30 31 32 33 34 35 36 37 38 39 40 41 42 43 44 45 46 47 48 49 50 51 52 53 54 55 56 57 58 59 60 61 62 63 64 65 66 67 68 69 70 71 72 73 74 75 76 77 78 79 80 81 82 83 84 85 86 87 88 89 90 91 92 93 94 95 96 97 98 99 100 101 102 103 104 105 106 107 108 109 110 111 112 113 114 115 116 117 118 119 120 121 122 123 124 125 126 127 128 129 130 131 132 133 134 135 136 137 138 139 140 141 142 143 144 145 146 147 148 149 150 151 152 153 154 155 156 157 158 159 160 161 162 163 164 165 166 167 168 169 170 171 172 173 174 175 176 177 178 179 180 181 182 183 184 185 186 187 188 189 190 191 192 193 194 195 196 197 198 199 200 201 202 203 204 205 206 207 208 209 210 211 212 213 214 215 216 217 218 219 220 221 222 223 224 225 226 227 228 229 230 231 232 233 234 235 236 237 238 239 240 241 242 243 244 245 246 247 248 249 250 251 252 253 254 255 256 257 258 259 260 261 262 263 264 265 266 267 268
$end

$molecule
read 
$end

--------------------------------------------------------------
 Adding empirical dispersion correction 
 ----------------------------------------------------------------
 Doing -D3(BJ) with
 s6 =   1.00000
 s8 =   0.00000
 a1 =   0.48600
 a2 =   4.50000
 -D3 energy including 3body term =     -0.1265287039 hartrees
 ----------------------------------------------------------------
 Adding gCP correction 
 ----------------------------------------------------------------
 gCP energy =      0.1748591731 hartrees
 ----------------------------------------------------------------
             Standard Nuclear Orientation (Angstroms)
    I     Atom           X                Y                Z
 ----------------------------------------------------------------
    1      C     -12.5747250000    -3.1072410000   -10.4887290000
    2      C     -11.8031050000    -2.2718880000    -9.6591590000
    3      N     -10.6065860000    -2.9002540000    -9.3790780000
    4      C     -10.5949430000    -4.1288320000   -10.0066010000
    5      C     -11.7985780000    -4.2960810000   -10.7137160000
    6      C     -12.0232590000    -5.4647410000   -11.4352980000
    7      C     -11.0500080000    -6.4465640000   -11.4400630000
    8      C      -9.8569430000    -6.2650210000   -10.7335200000
    9      C      -9.6098030000    -5.1108220000   -10.0109660000
   10      C     -13.8427500000    -2.7031760000   -10.8934320000
   11      C     -14.3219350000    -1.4791440000   -10.4649940000
   12      C     -13.5455210000    -0.6632430000    -9.6360830000
   13      C     -12.2814850000    -1.0439120000    -9.2192210000
   14      C      -9.6144360000    -2.4486940000    -8.4811290000
   15      C      -8.8661230000    -1.3175030000    -8.7658420000
   16      C      -7.8608580000    -0.9059450000    -7.8971510000
   17      C      -7.5929500000    -1.6439550000    -6.7382430000
   18      C      -8.3635850000    -2.7782940000    -6.4497820000
   19      C      -9.3740340000    -3.1661200000    -7.3190090000
   20      B      -6.4006120000    -1.2607660000    -5.7862810000
   21      C      -5.0060900000    -1.8949340000    -6.0329120000
   22      C      -4.8201270000    -2.7393540000    -7.1265100000
   23      C      -3.6020820000    -3.3604030000    -7.3181730000
   24      C      -2.5342350000    -3.1453540000    -6.4196380000
   25      C      -2.7089110000    -2.3001070000    -5.3351220000
   26      C      -3.9414820000    -1.6698030000    -5.1275080000
   27      C      -1.4058780000    -3.9720940000    -6.8626490000
   28      C      -1.8495650000    -4.6574960000    -8.0109770000
   29      C      -3.1755070000    -4.3195130000    -8.3319040000
   30      C      -1.0925260000    -5.5793370000    -8.7262680000
   31      C       0.2174940000    -5.8110440000    -8.2438200000
   32      C       0.6658510000    -5.1452940000    -7.1264700000
   33      C      -0.1345870000    -4.2183760000    -6.4148830000
   34      C      -3.7725820000    -4.9180410000    -9.4112600000
   35      C      -3.0239240000    -5.8557900000   -10.1601370000
   36      C      -1.7270580000    -6.1847530000    -9.8388820000
   37      B      -4.1726570000    -0.7638570000    -3.8829520000
   38      C      -5.5563570000    -0.0828610000    -3.6595920000
   39      C      -5.7772610000     0.7300290000    -2.5418060000
   40      C      -7.0225420000     1.3021970000    -2.3343020000
   41      C      -8.0660880000     1.0639670000    -3.2556560000
   42      C      -7.8617430000     0.2599840000    -4.3602150000
   43      C      -6.6121380000    -0.3201150000    -4.5737640000
   44      C      -9.2643700000     1.7547720000    -2.7924970000
   45      C      -8.9072140000     2.3917190000    -1.5922340000
   46      C      -7.5588050000     2.1514720000    -1.2656440000
   47      C      -9.7890390000     3.1419830000    -0.8222110000
   48      C     -11.1129830000     3.2533550000    -1.3140960000
   49      C     -11.4691160000     2.6335260000    -2.4897710000
   50      C     -10.5514180000     1.8713370000    -3.2495770000
   51      C      -7.0686960000     2.6956850000    -0.1080100000
   52      C      -7.9393130000     3.4690930000     0.6979180000
   53      C      -9.2555680000     3.6940260000     0.3664340000
   54      C      -7.0391060000     0.3093250000    -8.2212780000
   55      C      -8.0946120000    -3.5847930000    -5.2105450000
   56      C      -3.0382610000    -0.5708200000    -2.8106760000
   57      C      -2.9320150000    -1.4873360000    -1.7573830000
   58      C      -1.9562850000    -1.3107670000    -0.7838430000
   59      C      -1.0983140000    -0.2215730000    -0.8386690000
   60      C      -1.2005190000     0.6890750000    -1.8808540000
   61      C      -2.1580710000     0.5147620000    -2.8741540000
   62      N      -0.1297790000    -0.0364820000     0.1737890000
   63      C      -0.4003010000     0.1736220000     1.5109990000
   64      C       0.8078380000     0.3508900000     2.2042340000
   65      C       1.8610510000     0.2443400000     1.2282070000
   66      C       1.2379180000     0.0069560000    -0.0085620000
   67      C       0.7804400000     0.5936690000     3.5740650000
   68      C      -0.4400820000     0.6598830000     4.2209830000
   69      C      -1.6330030000     0.4918960000     3.5109530000
   70      C      -1.6332640000     0.2488510000     2.1495750000
   71      C       3.2484480000     0.3278250000     1.2895920000
   72      C       3.9828670000     0.1717950000     0.1281190000
   73      C       3.3446550000    -0.0733710000    -1.0919340000
   74      C       1.9672700000    -0.1619760000    -1.1798640000
   75      C      -3.8657190000    -2.6637650000    -1.6899180000
   76      C      -2.2657250000     1.4951890000    -4.0079960000
   77      H      -2.5605740000     0.1258360000     1.6053980000
   78      H      -2.5776660000     0.5555490000     4.0354500000
   79      H       1.4796300000    -0.3555940000    -2.1264480000
   80      H       3.9392220000    -0.1979260000    -1.9876970000
   81      C       5.4295450000     0.2595460000     0.1719860000
   82      H       3.7470430000     0.5124770000     2.2328810000
   83      C      -0.4881990000     0.9117160000     5.6481360000
   84      H       1.7015620000     0.7333390000     4.1256710000
   85      H      -0.5362910000     1.5448340000    -1.9119900000
   86      H      -1.8599360000    -2.0268640000     0.0236570000
   87      H      -3.6922150000    -3.2696810000    -0.8012680000
   88      H      -4.9101340000    -2.3440890000    -1.6696240000
   89      H      -3.7476690000    -3.3145930000    -2.5588100000
   90      H      -1.5262030000     2.2911510000    -3.9290390000
   91      H      -3.2515510000     1.9645780000    -4.0368540000
   92      H      -2.1180190000     1.0035720000    -4.9722460000
   93      H      -4.9732090000     0.9013560000    -1.8344420000
   94      H      -8.6732680000     0.0664980000    -5.0537400000
   95      H     -10.8796050000     1.3957660000    -4.1657060000
   96      H      -6.0425980000     2.5478140000     0.2043530000
   97      H     -12.4862210000     2.7271700000    -2.8476150000
   98      H     -11.8493710000     3.8247360000    -0.7622790000
   99      H      -7.5491230000     3.8969430000     1.6119940000
  100      H      -9.8828580000     4.2902700000     1.0176960000
  101      H      -5.6384960000    -2.9240780000    -7.8136270000
  102      H      -1.8979630000    -2.1364540000    -4.6336720000
  103      H       0.2678490000    -3.7309460000    -5.5357020000
  104      H      -4.7935730000    -4.6967670000    -9.6980350000
  105      H       0.8661300000    -6.5155490000    -8.7498950000
  106      H       1.6689710000    -5.3382030000    -6.7696700000
  107      H      -3.4926150000    -6.3313320000   -11.0119720000
  108      H      -1.1927060000    -6.9125910000   -10.4372700000
  109      H      -9.0535150000    -0.7688010000    -9.6816600000
  110      H      -9.9756890000    -4.0403320000    -7.0975630000
  111      H     -11.6942130000    -0.4071240000    -8.5709790000
  112      H     -13.9429910000     0.2884850000    -9.3080700000
  113      H      -8.6823090000    -4.9856120000    -9.4681180000
  114      H      -9.1073470000    -7.0456820000   -10.7501480000
  115      C     -11.2636340000    -7.6746480000   -12.1807890000
  116      H     -12.9473150000    -5.6042320000   -11.9828740000
  117      C     -15.6416580000    -1.0362680000   -10.8708180000
  118      H     -14.4465840000    -3.3402350000   -11.5281580000
  119      H      -8.8005450000    -4.4080250000    -5.1075240000
  120      H      -8.1683030000    -2.9720400000    -4.3098300000
  121      H      -7.0898450000    -4.0134130000    -5.2257090000
  122      H      -7.3517600000     0.7695930000    -9.1578850000
  123      H      -7.1201560000     1.0664780000    -7.4386600000
  124      H      -5.9799670000     0.0592680000    -8.3161560000
  125      H     -16.0977060000    -1.7916240000   -11.5090800000
  126      H     -16.2611240000    -0.8848330000    -9.9880670000
  127      H     -15.5573000000    -0.0997320000   -11.4200950000
  128      H     -12.2385260000    -7.6416320000   -12.6649550000
  129      H     -10.4866740000    -7.7828010000   -12.9361410000
  130      H     -11.2261430000    -8.5218450000   -11.4975810000
  131      H       0.5252960000     1.0156060000     6.0327850000
  132      H      -1.0437150000     1.8292750000     5.8363070000
  133      H      -0.9823170000     0.0794010000     6.1471560000
  134      H       5.7506320000     0.4531470000     1.1944060000
  135      H       5.8607660000    -0.6793030000    -0.1722990000
  136      H       5.7637400000     1.0706970000    -0.4732020000
 ----------------------------------------------------------------
 Nuclear Repulsion Energy = 11544.5448096738 hartrees
 There are      268 alpha and      268 beta electrons
 Requested basis set is def2-mSVP
 There are 672 shells and 1312 basis functions

 Total QAlloc Memory Limit   8000 MB
 Mega-Array Size      1001 MB
 MEM_STATIC part      1024 MB
 Discretize the solute cavity surface with Lebedev spheres
	Using 194 Lebedev grid points for each H atom
	Using 194 Lebedev grid points for other atoms
	Atomic van der Waals radii will be scaled by 1.20
 Remove points where switching function is < 1.0e-08
 Keep 10179 surface tesserae and discard 16205 interior tesserae
 Molecular Surface Area = 1067.725 Angst**2
 A cutoff of  1.0D-11 yielded  56202 shell pairs
 There are    224334 function pairs (    247553 Cartesian)
 
 -------------------------------------------------------
 OpenMP Integral Computing Module                       
 Release: version 1.0, May 2013, Q-Chem Inc. Pittsburgh 
 -------------------------------------------------------
 Integral Job Info:
 Integral job number is                      11
 Integral operator is                         1
 short-range coefficients                     0
 long-range coefficients              100000000
 Omega coefficients                           0
 if combine SR and LR in K                    0
 Integral screening is                        0
 Integral computing path is                   2
 max size of driver memory is            800000
 size of driver memory is                593474
 size of scratch memory is              1809772
 max col of scratch BK array               1296
 max len of scratch array in speh3          155
 max len of scratch index in speh4           18
 max int batch size is                      520
 min int batch size is                       52
 fixed nKL is                                52
 max L of basis functions is                  2
 order of int derivative is                   0
 number of shells is                        672
 number of basis is                        1392
 number of cartesian basis is              1392
 number of contracted shell pairs         56202
 number of primitive shell pairs         117500
 maxK2 (contraction) of shell pair           25
 max number of K2 of shell pair               1
 max number of CS2 of shell pair          13529
 max number of PS2 of shell pair          20850
 mem total for path MDJ                 1087548
 -------------------------------------------------------
 Smallest overlap matrix eigenvalue = 1.97E-04

 Scale SEOQF with 1.000000e-02/1.000000e-02/1.000000e-02

 Standard Electronic Orientation quadrupole field applied
 Nucleus-field energy     =    -0.0000001042 hartrees
 Guess MOs from SCF MO coefficient file
 Reading MOs from coefficient file
 User-specified occupied guess orbitals will be used
   Alpha:
   1   2   3   4   5   6   7   8   9  10  11  12  13  14  15
  16  17  18  19  20  21  22  23  24  25  26  27  28  29  30
  31  32  33  34  35  36  37  38  39  40  41  42  43  44  45
  46  47  48  49  50  51  52  53  54  55  56  57  58  59  60
  61  62  63  64  65  66  67  68  69  70  71  72  73  74  75
  76  77  78  79  80  81  82  83  84  85  86  87  88  89  90
  91  92  93  94  95  96  97  98  99 100 101 102 103 104 105
 106 107 108 109 110 111 112 113 114 115 116 117 118 119 120
 121 122 123 124 125 126 127 128 129 130 131 132 133 134 135
 136 137 138 139 140 141 142 143 144 145 146 147 148 149 150
 151 152 153 154 155 156 157 158 159 160 161 162 163 164 165
 166 167 168 169 170 171 172 173 174 175 176 177 178 179 180
 181 182 183 184 185 186 187 188 189 190 191 192 193 194 195
 196 197 198 199 200 201 202 203 204 205 206 207 208 209 210
 211 212 213 214 215 216 217 218 219 220 221 222 223 224 225
 226 227 228 229 230 231 232 233 234 235 236 237 238 239 240
 241 242 243 244 245 246 247 248 249 250 251 252 253 254 255
 256 257 258 259 260 261 262 263 264 265 266 267 269
 Reading MOs from coefficient file
   Beta:
   1   2   3   4   5   6   7   8   9  10  11  12  13  14  15
  16  17  18  19  20  21  22  23  24  25  26  27  28  29  30
  31  32  33  34  35  36  37  38  39  40  41  42  43  44  45
  46  47  48  49  50  51  52  53  54  55  56  57  58  59  60
  61  62  63  64  65  66  67  68  69  70  71  72  73  74  75
  76  77  78  79  80  81  82  83  84  85  86  87  88  89  90
  91  92  93  94  95  96  97  98  99 100 101 102 103 104 105
 106 107 108 109 110 111 112 113 114 115 116 117 118 119 120
 121 122 123 124 125 126 127 128 129 130 131 132 133 134 135
 136 137 138 139 140 141 142 143 144 145 146 147 148 149 150
 151 152 153 154 155 156 157 158 159 160 161 162 163 164 165
 166 167 168 169 170 171 172 173 174 175 176 177 178 179 180
 181 182 183 184 185 186 187 188 189 190 191 192 193 194 195
 196 197 198 199 200 201 202 203 204 205 206 207 208 209 210
 211 212 213 214 215 216 217 218 219 220 221 222 223 224 225
 226 227 228 229 230 231 232 233 234 235 236 237 238 239 240
 241 242 243 244 245 246 247 248 249 250 251 252 253 254 255
 256 257 258 259 260 261 262 263 264 265 266 267 268
 An unrestricted hybrid HF-DFT SCF calculation will be
 performed using Pulay DIIS extrapolation
 Polarizable Continuum solvation model will be applied
 Exchange:     0.4200 Hartree-Fock + 0.5800 PBEh-3c
 Correlation:  1.0000 PBEh-3c
 Using SG-1 standard quadrature grid
 Dispersion:   Grimme D3
 SCF converges when DIIS error is below 1.0E-08
 using 8 threads for integral computing
 -------------------------------------------------------
 OpenMP Integral computing Module                
 Release: version 2.0, May 2017, Q-Chem Inc. Pleasanton 
 -------------------------------------------------------
 -------------------------------------------------------
 OpenMP BLAS3 based DFT computing Module                
 Release: version 1.0, May 2013, Q-Chem Inc. Pittsburgh 
 -------------------------------------------------------
[...]
 MOM overlap:    267.9999990360 / 268
   88   -3082.3501074865      1.10E-06
 MOM overlap:    267.9998879780 / 268
 MOM overlap:    267.9999997949 / 268
   89   -3082.3501083986      5.28E-07
 MOM overlap:    267.9999778040 / 268
 MOM overlap:    267.9999999576 / 268
   90   -3082.3501088231      1.79E-07
 MOM overlap:    267.9999513917 / 268
 MOM overlap:    267.9999998299 / 268
   91   -3082.3501089874      1.17E-07
 MOM overlap:    267.9999894158 / 268
 MOM overlap:    267.9999999454 / 268
   92   -3082.3501087760      1.19E-07
 MOM overlap:    267.9999837865 / 268
 MOM overlap:    267.9999999363 / 268
   93   -3082.3501086872      1.23E-07
 MOM overlap:    267.9999989011 / 268
 MOM overlap:    267.9999999825 / 268
   94   -3082.3501085641      1.44E-07
 MOM overlap:    267.9999997085 / 268
 MOM overlap:    267.9999999997 / 268
   95   -3082.3501085253      7.37E-08
 MOM overlap:    267.9999510009 / 268
 MOM overlap:    267.9999998391 / 268
   96   -3082.3501084841      1.03E-07
 MOM overlap:    267.9999886071 / 268
 MOM overlap:    267.9999999523 / 268
   97   -3082.3501086928      2.62E-08
 MOM overlap:    267.9999077018 / 268
 MOM overlap:    267.9999996222 / 268
   98   -3082.3501085910      2.63E-08
 MOM overlap:    267.9997586741 / 268
 MOM overlap:    267.9999990242 / 268
   99   -3082.3501083146      6.03E-08
 MOM overlap:    267.9997484757 / 268
 MOM overlap:    267.9999987161 / 268
  100   -3082.3501078132      2.29E-07
 MOM overlap:    267.9984952432 / 268
 MOM overlap:    267.9999935205 / 268
  101   -3082.3501082930      2.79E-07
 MOM overlap:    267.9999568021 / 268
 MOM overlap:    267.9999998344 / 268
  102   -3082.3501093341      7.22E-07
 MOM overlap:    267.9999883014 / 268
 MOM overlap:    267.9999999194 / 268
  103   -3082.3501095203      8.66E-07
 MOM overlap:    267.9998840452 / 268
 MOM overlap:    267.9999995625 / 268
  104   -3082.3501094874      6.71E-07
 MOM overlap:    267.9997952232 / 268
 MOM overlap:    267.9999992026 / 268
  105   -3082.3501097930      9.64E-07
 MOM overlap:    267.9999999971 / 268
 MOM overlap:    268.0000000001 / 268
  106   -3082.3501101890      1.44E-06
 MOM overlap:    267.9998522672 / 268
 MOM overlap:    267.9999994342 / 268
  107   -3082.3501101802      1.44E-06
 MOM overlap:    267.9999843237 / 268
 MOM overlap:    267.9999999294 / 268
  108   -3082.3501098913      1.02E-06
 MOM overlap:    267.9999547512 / 268
 MOM overlap:    267.9999997977 / 268
  109   -3082.3501098028      8.56E-07
 MOM overlap:    267.9999541387 / 268
 MOM overlap:    267.9999998457 / 268
  110   -3082.3501096216      6.42E-07
 MOM overlap:    267.9999455852 / 268
 MOM overlap:    267.9999997673 / 268
  111   -3082.3501098642      7.55E-07
 MOM overlap:    267.9999890025 / 268
 MOM overlap:    267.9999999362 / 268
  112   -3082.3501096450      5.20E-07
 MOM overlap:    267.9999645838 / 268
 MOM overlap:    267.9999998996 / 268
  113   -3082.3501097275      6.68E-07
 MOM overlap:    267.9999974140 / 268
 MOM overlap:    267.9999997126 / 268
  114   -3082.3501094972      6.21E-07
 MOM overlap:    267.9999998124 / 268
 MOM overlap:    267.9999998948 / 268
  115   -3082.3501094217      9.76E-07
 MOM overlap:    267.9999998792 / 268
 MOM overlap:    267.9999999964 / 268
  116   -3082.3501096703      1.75E-07
 MOM overlap:    267.9999998205 / 268
 MOM overlap:    267.9999999994 / 268
  117   -3082.3501096944      8.19E-08
 MOM overlap:    267.9999998265 / 268
 MOM overlap:    267.9999999998 / 268
  118   -3082.3501097145      7.09E-08
 MOM overlap:    267.9999998357 / 268
 MOM overlap:    267.9999999999 / 268
  119   -3082.3501097546      6.58E-08
 MOM overlap:    267.9999996485 / 268
 MOM overlap:    267.9999999996 / 268
  120   -3082.3501097837      6.62E-08
 MOM overlap:    267.9999998513 / 268
 MOM overlap:    267.9999999999 / 268
  121   -3082.3501098140      6.70E-08
 MOM overlap:    267.9999999620 / 268
 MOM overlap:    268.0000000001 / 268
  122   -3082.3501098189      6.72E-08
 MOM overlap:    267.9999987024 / 268
 MOM overlap:    267.9999999978 / 268
  123   -3082.3501098106      6.71E-08
 MOM overlap:    267.9999923553 / 268
 MOM overlap:    267.9999999850 / 268
  124   -3082.3501097728      6.52E-08
 MOM overlap:    267.9999700411 / 268
 MOM overlap:    267.9999999365 / 268
  125   -3082.3501096598      5.84E-08
 MOM overlap:    267.9999796998 / 268
 MOM overlap:    267.9999999502 / 268
  126   -3082.3501094464      3.61E-08
 MOM overlap:    267.9999891258 / 268
 MOM overlap:    267.9999999677 / 268
  127   -3082.3501092754      2.70E-08
 MOM overlap:    267.9999977223 / 268
 MOM overlap:    267.9999999908 / 268
  128   -3082.3501091539      2.60E-08
 MOM overlap:    267.9999973357 / 268
 MOM overlap:    267.9999999923 / 268
  129   -3082.3501090972      3.45E-08
 MOM overlap:    267.9999887426 / 268
 MOM overlap:    267.9999999635 / 268
  130   -3082.3501090385      2.97E-08
 MOM overlap:    267.9998264461 / 268
 MOM overlap:    267.9999993276 / 268
  131   -3082.3501089276      2.70E-08
 MOM overlap:    267.9999937944 / 268
 MOM overlap:    267.9999999755 / 268
  132   -3082.3501085416      2.81E-08
 MOM overlap:    267.9999998536 / 268
 MOM overlap:    267.9999999989 / 268
  133   -3082.3501086159      3.11E-08
 MOM overlap:    267.9999979572 / 268
 MOM overlap:    267.9999999929 / 268
  134   -3082.3501086192      2.69E-08
 MOM overlap:    267.9996349907 / 268
 MOM overlap:    267.9999986299 / 268
  135   -3082.3501085762      2.84E-08
 MOM overlap:    267.9999400839 / 268
 MOM overlap:    267.9999997397 / 268
  136   -3082.3501080344      2.06E-07
 MOM overlap:    267.9993596382 / 268
 MOM overlap:    267.9999971923 / 268
  137   -3082.3501082813      1.56E-07
 MOM overlap:    267.9973666042 / 268
 MOM overlap:    267.9999897753 / 268
  138   -3082.3501089844      3.15E-07
 MOM overlap:    267.9999951579 / 268
 MOM overlap:    267.9999999825 / 268
  139   -3082.3501103297      1.69E-06
 MOM overlap:    267.9999858249 / 268
 MOM overlap:    267.9999999839 / 268
  140   -3082.3501102944      1.58E-06
 MOM overlap:    267.9988290060 / 268
 MOM overlap:    267.9999954165 / 268
  141   -3082.3501100171      1.60E-06
 MOM overlap:    267.9997958530 / 268
 MOM overlap:    267.9999994742 / 268
  142   -3082.3501092326      6.31E-07
 MOM overlap:    267.9997924627 / 268
 MOM overlap:    267.9999994414 / 268
  143   -3082.3501086770      8.24E-07
 MOM overlap:    267.9997093887 / 268
 MOM overlap:    267.9999991255 / 268
  144   -3082.3501080512      1.11E-06
 MOM overlap:    267.9999865685 / 268
 MOM overlap:    267.9999999481 / 268
  145   -3082.3501087075      9.37E-07
 MOM overlap:    267.9999973590 / 268
 MOM overlap:    267.9999999967 / 268
  146   -3082.3501087941      1.01E-06
 MOM overlap:    267.9999991364 / 268
 MOM overlap:    267.9999999902 / 268
  147   -3082.3501088866      9.69E-07
 MOM overlap:    267.9998161258 / 268
 MOM overlap:    267.9999990991 / 268
  148   -3082.3501089019      8.87E-07
 MOM overlap:    267.9999902257 / 268
 MOM overlap:    267.9999999442 / 268
  149   -3082.3501086343      6.20E-07
 MOM overlap:    267.9999997839 / 268
 MOM overlap:    267.9999999925 / 268
  150   -3082.3501085624      5.53E-07
 MOM overlap:    267.9999938081 / 268
 MOM overlap:    267.9999999933 / 268
  151   -3082.3501086384      3.77E-07
 MOM overlap:    267.9997854425 / 268
 MOM overlap:    267.9999992727 / 268
  152   -3082.3501085271      5.14E-07
 MOM overlap:    267.9999928977 / 268
 MOM overlap:    267.9999999509 / 268
  153   -3082.3501089833      4.51E-07
 MOM overlap:    267.9993825531 / 268
 MOM overlap:    267.9999982430 / 268
  154   -3082.3501089299      3.68E-07
 MOM overlap:    267.9994750264 / 268
 MOM overlap:    267.9999984479 / 268
  155   -3082.3501098363      2.87E-07
 MOM overlap:    267.9992744008 / 268
 MOM overlap:    267.9999978880 / 268
  156   -3082.3501090105      2.80E-07
 MOM overlap:    267.9996792650 / 268
 MOM overlap:    267.9999989127 / 268
  157   -3082.3501080671      7.13E-07
 MOM overlap:    267.9999994242 / 268
 MOM overlap:    267.9999999976 / 268
  158   -3082.3501086793      5.08E-07
 MOM overlap:    267.9996170533 / 268
 MOM overlap:    267.9999988365 / 268
  159   -3082.3501086291      5.91E-07
 MOM overlap:    267.9996733310 / 268
 MOM overlap:    267.9999990585 / 268
  160   -3082.3501078848      9.11E-07
 MOM overlap:    267.9997699875 / 268
 MOM overlap:    267.9999991843 / 268
  161   -3082.3501086017      5.53E-07
 MOM overlap:    267.9991256223 / 268
 MOM overlap:    267.9999966214 / 268
  162   -3082.3501080969      7.01E-07
 MOM overlap:    267.9995392462 / 268
 MOM overlap:    267.9999983289 / 268
  163   -3082.3501089798      6.73E-07
 MOM overlap:    267.9997984858 / 268
 MOM overlap:    267.9999994708 / 268
  164   -3082.3501096168      9.54E-07
 MOM overlap:    267.9999553995 / 268
 MOM overlap:    267.9999997652 / 268
  165   -3082.3501090592      9.51E-07
 MOM overlap:    267.9998713852 / 268
 MOM overlap:    267.9999995426 / 268
  166   -3082.3501091266      1.19E-06
 MOM overlap:    267.9999506160 / 268
 MOM overlap:    267.9999997790 / 268
  167   -3082.3501088166      1.07E-06
 MOM overlap:    267.9990132923 / 268
 MOM overlap:    267.9999954606 / 268
  168   -3082.3501086791      9.43E-07
 MOM overlap:    267.9998077432 / 268
 MOM overlap:    267.9999990831 / 268
  169   -3082.3501090254      1.79E-06
 MOM overlap:    267.9999296931 / 268
 MOM overlap:    267.9999997031 / 268
  170   -3082.3501089677      1.32E-06
 MOM overlap:    267.9991967449 / 268
 MOM overlap:    267.9999966839 / 268
  171   -3082.3501090774      1.55E-06
 MOM overlap:    267.9995743320 / 268
 MOM overlap:    267.9999978902 / 268
  172   -3082.3501085780      9.84E-07
 MOM overlap:    267.9998036796 / 268
 MOM overlap:    267.9999991390 / 268
  173   -3082.3501087942      1.50E-06
 MOM overlap:    267.9998636881 / 268
 MOM overlap:    267.9999994964 / 268
  174   -3082.3501085869      1.22E-06
 MOM overlap:    267.9996793310 / 268
 MOM overlap:    267.9999984431 / 268
  175   -3082.3501088790      1.34E-06
 MOM overlap:    267.9999111360 / 268
 MOM overlap:    267.9999994219 / 268
  176   -3082.3501088563      1.97E-06
 MOM overlap:    267.9876682881 / 268
 MOM overlap:    267.9999503613 / 268
  177   -3082.3501091036      1.46E-06
 MOM overlap:    267.9935646037 / 268
 MOM overlap:    267.9999744045 / 268
  178   -3082.3501020903      2.94E-06
 MOM overlap:    267.9999861859 / 268
 MOM overlap:    267.9999999453 / 268
  179   -3082.3501084934      9.22E-07
 MOM overlap:    267.9999341529 / 268
 MOM overlap:    267.9999996942 / 268
  180   -3082.3501083880      9.05E-07
 MOM overlap:    267.9999274346 / 268
 MOM overlap:    267.9999997861 / 268
  181   -3082.3501082121      8.31E-07
 MOM overlap:    267.9999797950 / 268
 MOM overlap:    267.9999999154 / 268
  182   -3082.3501085465      6.97E-07
 MOM overlap:    267.9998418274 / 268
 MOM overlap:    267.9999993373 / 268
  183   -3082.3501086715      7.21E-07
 MOM overlap:    267.9999970936 / 268
 MOM overlap:    267.9999999898 / 268
  184   -3082.3501089794      8.62E-07
 MOM overlap:    267.9999770853 / 268
 MOM overlap:    267.9999998969 / 268
  185   -3082.3501090338      8.73E-07
 MOM overlap:    267.9999966235 / 268
 MOM overlap:    267.9999999864 / 268
  186   -3082.3501089290      7.79E-07
 MOM overlap:    267.9999994257 / 268
 MOM overlap:    267.9999999978 / 268
  187   -3082.3501088773      7.60E-07
 MOM overlap:    267.9999974954 / 268
 MOM overlap:    267.9999999968 / 268
  188   -3082.3501088938      7.70E-07
 MOM overlap:    267.9999905370 / 268
 MOM overlap:    267.9999999689 / 268
  189   -3082.3501089736      6.88E-07
 MOM overlap:    267.9999998086 / 268
 MOM overlap:    267.9999999997 / 268
  190   -3082.3501090715      7.03E-07
 MOM overlap:    267.9999883532 / 268
 MOM overlap:    267.9999999633 / 268
  191   -3082.3501090951      7.01E-07
 MOM overlap:    267.9999804187 / 268
 MOM overlap:    267.9999999243 / 268
  192   -3082.3501089649      7.27E-07
 MOM overlap:    267.9975574005 / 268
 MOM overlap:    267.9999913445 / 268
  193   -3082.3501088387      6.88E-07
 MOM overlap:    267.9998116458 / 268
 MOM overlap:    267.9999991153 / 268
  194   -3082.3501101778      1.69E-06
 MOM overlap:    267.9989636699 / 268
 MOM overlap:    267.9999957897 / 268
  195   -3082.3501099886      2.45E-06
 MOM overlap:    267.9945692599 / 268
 MOM overlap:    267.9999796588 / 268
  196   -3082.3501078403      4.51E-06
 MOM overlap:    267.9982012491 / 268
 MOM overlap:    267.9999932178 / 268
  197   -3082.3501093259      1.08E-06
 MOM overlap:    267.9991443416 / 268
 MOM overlap:    267.9999967503 / 268
  198   -3082.3501081293      8.61E-07
 MOM overlap:    267.9970789362 / 268
 MOM overlap:    267.9999884719 / 268
  199   -3082.3501066835      1.41E-06
 MOM overlap:    267.9999234849 / 268
 MOM overlap:    267.9999997300 / 268
  200   -3082.3501087732      9.75E-07
 MOM overlap:    267.9997581134 / 268
 MOM overlap:    267.9999989586 / 268
  201   -3082.3501090219      1.05E-06
 MOM overlap:    267.9998710540 / 268
 MOM overlap:    267.9999994086 / 268
  202   -3082.3501092655      1.46E-06
 MOM overlap:    267.9997138637 / 268
 MOM overlap:    267.9999986299 / 268
  203   -3082.3501092653      1.91E-06
 MOM overlap:    267.9998254195 / 268
 MOM overlap:    267.9999992778 / 268
  204   -3082.3501092579      1.22E-06
 MOM overlap:    267.9999591646 / 268
 MOM overlap:    267.9999998323 / 268
  205   -3082.3501089899      9.35E-07
 MOM overlap:    267.9999652522 / 268
 MOM overlap:    267.9999998667 / 268
  206   -3082.3501088345      8.44E-07
 MOM overlap:    267.9999499075 / 268
 MOM overlap:    267.9999997981 / 268
  207   -3082.3501089941      9.04E-07
 MOM overlap:    267.9999429928 / 268
 MOM overlap:    267.9999997689 / 268
  208   -3082.3501091614      1.03E-06
 MOM overlap:    267.9999962663 / 268
 MOM overlap:    267.9999999499 / 268
  209   -3082.3501093233      1.21E-06
 MOM overlap:    267.9998102271 / 268
 MOM overlap:    267.9999993404 / 268
  210   -3082.3501091742      1.44E-06
 MOM overlap:    267.9995751541 / 268
 MOM overlap:    267.9999980858 / 268
  211   -3082.3501088104      1.26E-06
 MOM overlap:    267.9999691549 / 268
 MOM overlap:    267.9999998701 / 268
  212   -3082.3501084360      9.21E-07
 MOM overlap:    267.9999764384 / 268
 MOM overlap:    267.9999999030 / 268
  213   -3082.3501082834      9.02E-07
 MOM overlap:    267.9981788870 / 268
 MOM overlap:    267.9999923223 / 268
  214   -3082.3501081333      9.09E-07
 MOM overlap:    267.9997660905 / 268
 MOM overlap:    267.9999990721 / 268
  215   -3082.3501090501      1.44E-06
 MOM overlap:    267.9992923447 / 268
 MOM overlap:    267.9999970538 / 268
  216   -3082.3501092196      1.89E-06
 MOM overlap:    267.9983437276 / 268
 MOM overlap:    267.9999935578 / 268
  217   -3082.3501089104      1.14E-06
 MOM overlap:    267.9978022504 / 268
 MOM overlap:    267.9999914807 / 268
  218   -3082.3501093504      2.35E-06
 MOM overlap:    267.9999500006 / 268
 MOM overlap:    267.9999997833 / 268
  219   -3082.3501087589      1.07E-06
 MOM overlap:    267.9999880818 / 268
 MOM overlap:    267.9999999003 / 268
  220   -3082.3501088871      1.21E-06
 MOM overlap:    267.9997810958 / 268
 MOM overlap:    267.9999989334 / 268
  221   -3082.3501089481      9.80E-07
 MOM overlap:    267.9998074692 / 268
 MOM overlap:    267.9999992138 / 268
  222   -3082.3501086774      6.56E-07
 MOM overlap:    267.9999974062 / 268
 MOM overlap:    267.9999999921 / 268
  223   -3082.3501082812      6.43E-07
 MOM overlap:    267.9985436131 / 268
 MOM overlap:    267.9999941904 / 268
  224   -3082.3501083409      6.10E-07
 MOM overlap:    267.9995431670 / 268
 MOM overlap:    267.9999980034 / 268
  225   -3082.3501093581      9.68E-07
 MOM overlap:    267.9999863125 / 268
 MOM overlap:    267.9999999449 / 268
  226   -3082.3501088952      5.30E-07
 MOM overlap:    267.9999133400 / 268
 MOM overlap:    267.9999995846 / 268
  227   -3082.3501087905      5.00E-07
 MOM overlap:    267.9960991517 / 268
 MOM overlap:    267.9999823135 / 268
  228   -3082.3501085595      3.75E-07
 MOM overlap:    267.9963620675 / 268
 MOM overlap:    267.9999832951 / 268
  229   -3082.3501054392      1.29E-06
 MOM overlap:    267.9998201963 / 268
 MOM overlap:    267.9999990675 / 268
  230   -3082.3501084864      4.13E-07
 MOM overlap:    267.9998654525 / 268
 MOM overlap:    267.9999992781 / 268
  231   -3082.3501087799      6.57E-07
 MOM overlap:    267.9999986297 / 268
 MOM overlap:    267.9999999961 / 268
  232   -3082.3501089438      9.96E-07
 MOM overlap:    267.9999159629 / 268
 MOM overlap:    267.9999995923 / 268
  233   -3082.3501089857      9.95E-07
 MOM overlap:    267.9999462971 / 268
 MOM overlap:    267.9999998121 / 268
  234   -3082.3501088290      7.76E-07
 MOM overlap:    267.9999989300 / 268
 MOM overlap:    267.9999999974 / 268
  235   -3082.3501086005      7.80E-07
 MOM overlap:    267.9999991680 / 268
 MOM overlap:    267.9999999978 / 268
  236   -3082.3501085564      8.02E-07
 MOM overlap:    267.9999999369 / 268
 MOM overlap:    268.0000000000 / 268
  237   -3082.3501085142      8.23E-07
 MOM overlap:    267.9999999947 / 268
 MOM overlap:    268.0000000001 / 268
  238   -3082.3501085278      8.20E-07
 MOM overlap:    267.9999999971 / 268
 MOM overlap:    268.0000000001 / 268
  239   -3082.3501084966      8.22E-07
 MOM overlap:    267.9999999459 / 268
 MOM overlap:    268.0000000000 / 268
  240   -3082.3501084630      8.21E-07
 MOM overlap:    267.9999999016 / 268
 MOM overlap:    267.9999999998 / 268
  241   -3082.3501085273      8.21E-07
 MOM overlap:    267.9999998818 / 268
 MOM overlap:    267.9999999996 / 268
  242   -3082.3501085504      8.19E-07
 MOM overlap:    267.9999997535 / 268
 MOM overlap:    267.9999999996 / 268
  243   -3082.3501085716      8.22E-07
 MOM overlap:    267.9999960898 / 268
 MOM overlap:    267.9999994821 / 268
  244   -3082.3501085475      8.36E-07
 MOM overlap:    267.9999995519 / 268
 MOM overlap:    267.9999998058 / 268
  245   -3082.3501083617      1.33E-06
 MOM overlap:    267.9999999270 / 268
 MOM overlap:    267.9999999935 / 268
  246   -3082.3501088210      2.29E-07
 MOM overlap:    267.9999998969 / 268
 MOM overlap:    267.9999999990 / 268
  247   -3082.3501088413      8.90E-08
 MOM overlap:    267.9999998965 / 268
 MOM overlap:    267.9999999997 / 268
  248   -3082.3501088518      6.93E-08
 MOM overlap:    267.9999998940 / 268
 MOM overlap:    267.9999999999 / 268
  249   -3082.3501088877      5.82E-08
 MOM overlap:    267.9999997636 / 268
 MOM overlap:    267.9999999996 / 268
  250   -3082.3501089092      5.79E-08    Convergence failure

 Q-Chem fatal error occurred in module scfman/scfman.C, line 5260:

 SCF failed to converge


 Please submit a crash report at q-chem.com/reporter 
 
 
[ctcp010:122043] *** Process received signal ***
[ctcp010:122043] Signal: Aborted (6)
[ctcp010:122043] Signal code:  (-6)
[ctcp010:122043] [ 0] /lib64/libpthread.so.0(+0xf100)[0x2aaaaaee2100]
[ctcp010:122043] [ 1] /lib64/libc.so.6(gsignal+0x37)[0x2aaaac37e5f7]
[ctcp010:122043] [ 2] /lib64/libc.so.6(abort+0x148)[0x2aaaac37fce8]
[ctcp010:122043] [ 3] /cm/shared/apps/q-chem/intel/QCHEM_5.1.0_Trunk/exe/qcprog.exe[0x10a2c76b]
[ctcp010:122043] [ 4] /cm/shared/apps/q-chem/intel/QCHEM_5.1.0_Trunk/exe/qcprog.exe[0x40b7329]
[ctcp010:122043] [ 5] /cm/shared/apps/q-chem/intel/QCHEM_5.1.0_Trunk/exe/qcprog.exe[0x40c0816]
[ctcp010:122043] [ 6] /cm/shared/apps/q-chem/intel/QCHEM_5.1.0_Trunk/exe/qcprog.exe[0x43fe44]
[ctcp010:122043] [ 7] /cm/shared/apps/q-chem/intel/QCHEM_5.1.0_Trunk/exe/qcprog.exe[0x43d36e]
[ctcp010:122043] [ 8] /cm/shared/apps/q-chem/intel/QCHEM_5.1.0_Trunk/exe/qcprog.exe[0x43c2b0]
[ctcp010:122043] [ 9] /lib64/libc.so.6(__libc_start_main+0xf5)[0x2aaaac36ab15]
[ctcp010:122043] [10] /cm/shared/apps/q-chem/intel/QCHEM_5.1.0_Trunk/exe/qcprog.exe[0x416029]
[ctcp010:122043] *** End of error message ***
