mFile = /cm/shared/apps/q-chem/intel/QCHEM_5.1.0_Trunk/bin/mpi/machines
Process 0 of 1 is on ctcp039 - thread support 0
initial socket setup ...start
initial socket setup ...done 
now start server 0 ... 
Q-Chem Developer Version!
                  Welcome to Q-Chem
     A Quantum Leap Into The Future Of Chemistry


 Q-Chem 5.1, Q-Chem, Inc., Pleasanton, CA (2018)

 Yihan Shao,  Zhengting Gan,  E. Epifanovsky,  A. T. B. Gilbert,  M. Wormit,  
 J. Kussmann,  A. W. Lange,  A. Behn,  Jia Deng,  Xintian Feng,  D. Ghosh,  
 M. Goldey,  P. R. Horn,  L. D. Jacobson,  I. Kaliman,  T. Kus,  A. Landau,  
 Jie Liu,  E. I. Proynov,  R. M. Richard,  R. P. Steele,  E. J. Sundstrom,  
 H. L. Woodcock III,  P. M. Zimmerman,  D. Zuev,  B. Albrecht,  E. Alguire,  
 S. A. Baeppler,  D. Barton,  Z. Benda,  Y. A. Bernard,  E. J. Berquist,  
 K. B. Bravaya,  H. Burton,  D. Casanova,  Chun-Min Chang,  Yunqing Chen,  
 A. Chien,  K. D. Closser,  M. P. Coons,  S. Coriani,  S. Dasgupta,  
 A. L. Dempwolff,  M. Diedenhofen,  Hainam Do,  R. G. Edgar,  Po-Tung Fang,  
 S. Faraji,  S. Fatehi,  Qingguo Feng,  K. D. Fenk,  J. Fosso-Tande,  
 Qinghui Ge,  A. Ghysels,  G. Gidofalvi,  J. Gomes,  J. Gonthier,  A. Gunina,  
 D. Hait,  M. W. D. Hanson-Heine,  P. H. P. Harbach,  A. W. Hauser,  
 J. E. Herr,  E. G. Hohenstein,  Z. C. Holden,  Kerwin Hui,  B. C. Huynh,  
 T.-C. Jagau,  Hyunjun Ji,  B. Kaduk,  K. Khistyaev,  Jaehoon Kim,  
 P. Klunzinger,  K. Koh,  D. Kosenkov,  L. Koulias,  T. Kowalczyk,  
 C. M. Krauter,  A. Kunitsa,  Ka Un Lao,  A. Laurent,  K. V. Lawler,  
 Joonho Lee,  D. Lefrancois,  S. Lehtola,  D. S. Levine,  Yi-Pei Li,  
 You-Sheng Lin,  Fenglai Liu,  E. Livshits,  A. Luenser,  P. Manohar,  
 E. Mansoor,  S. F. Manzer,  Shan-Ping Mao,  Yuezhi Mao,  N. Mardirossian,  
 A. V. Marenich,  T. Markovich,  L. A. Martinez-Martinez,  S. A. Maurer,  
 N. J. Mayhall,  S. C. McKenzie,  J.-M. Mewes,  A. F. Morrison,  
 J. W. Mullinax,  K. Nanda,  T. S. Nguyen-Beck,  R. Olivares-Amaya,  
 J. A. Parkhill,  T. M. Perrine,  F. Plasser,  P. Pokhilko,  S. Prager,  
 A. Prociuk,  E. Ramos,  D. R. Rehn,  F. Rob,  M. Schneider,  N. Sergueev,  
 S. M. Sharada,  S. Sharma,  D. W. Small,  T. Stauch,  T. Stein,  
 Yu-Chuan Su,  A. J. W. Thom,  A. Tkatchenko,  T. Tsuchimochi,  N. M. Tubman,  
 L. Vogt,  M. L. Vidal,  O. Vydrov,  M. A. Watson,  J. Wenzel,  
 M. de Wergifosse,  T. A. Wesolowski,  A. White,  J. Witte,  A. Yamada,  
 Jun Yang,  K. Yao,  S. Yeganeh,  S. R. Yost,  Zhi-Qiang You,  A. Zech,  
 Igor Ying Zhang,  Xing Zhang,  Yan Zhao,  Ying Zhu,  B. R. Brooks,  
 G. K. L. Chan,  C. J. Cramer,  M. S. Gordon,  W. J. Hehre,  A. Klamt,  
 M. W. Schmidt,  C. D. Sherrill,  D. G. Truhlar,  A. Aspuru-Guzik,  R. Baer,  
 A. T. Bell,  N. A. Besley,  Jeng-Da Chai,  A. E. DePrince, III,  
 R. A. DiStasio Jr.,  A. Dreuw,  B. D. Dunietz,  T. R. Furlani,  
 Chao-Ping Hsu,  Yousung Jung,  Jing Kong,  D. S. Lambrecht,  WanZhen Liang,  
 C. Ochsenfeld,  V. A. Rassolov,  L. V. Slipchenko,  J. E. Subotnik,  
 T. Van Voorhis,  J. M. Herbert,  A. I. Krylov,  P. M. W. Gill,  M. Head-Gordon

 Contributors to earlier versions of Q-Chem not listed above: 
 R. D. Adamson,  B. Austin,  J. Baker,  G. J. O. Beran,  K. Brandhorst,  
 S. T. Brown,  E. F. C. Byrd,  A. K. Chakraborty,  C.-L. Cheng,  
 Siu Hung Chien,  D. M. Chipman,  D. L. Crittenden,  H. Dachsel,  
 R. J. Doerksen,  A. D. Dutoi,  L. Fusti-Molnar,  W. A. Goddard III,  
 A. Golubeva-Zadorozhnaya,  S. R. Gwaltney,  G. Hawkins,  A. Heyden,  
 S. Hirata,  G. Kedziora,  F. J. Keil,  C. Kelley,  Jihan Kim,  R. A. King,  
 R. Z. Khaliullin,  P. P. Korambath,  W. Kurlancheek,  A. M. Lee,  M. S. Lee,  
 S. V. Levchenko,  Ching Yeh Lin,  D. Liotard,  R. C. Lochan,  I. Lotan,  
 P. E. Maslen,  N. Nair,  D. P. O'Neill,  D. Neuhauser,  E. Neuscamman,  
 C. M. Oana,  R. Olson,  B. Peters,  R. Peverati,  P. A. Pieniazek,  
 Y. M. Rhee,  J. Ritchie,  M. A. Rohrdanz,  E. Rosta,  N. J. Russ,  
 H. F. Schaefer III,  N. E. Schultz,  N. Shenvi,  A. C. Simmonett,  A. Sodt,  
 D. Stuck,  K. S. Thanthiriwatte,  V. Vanovschi,  Tao Wang,  A. Warshel,  
 C. F. Williams,  Q. Wu,  X. Xu,  W. Zhang

 Please cite Q-Chem as follows:
 Y. Shao et al., Mol. Phys. 113, 184-215 (2015)
 DOI: 10.1080/00268976.2014.952696

 Q-Chem 5.1.1 for Intel X86 EM64T Linux

 Parts of Q-Chem use Armadillo 8.300.2 (Tropical Shenanigans).
 http://arma.sourceforge.net/

 Q-Chem begins on Tue Dec 18 22:28:33 2018  

Host: ctcp039
0

     Scratch files written to /scratch/mewes1/142063/qchem19252//
 Parallel job on  1  processors
The previous job contains 0 fragments, simply inherited here
Symmetry turned off for PCM/SM12/SMD calculation
Input Ideriv = 2
Curr. Ideriv = -1
Max.  Ideriv = 2
Input Ideriv = 2
Curr. Ideriv = 2
Max.  Ideriv = 2

Checking the input file for inconsistencies... 	...done.

--------------------------------------------------------------
User input:
--------------------------------------------------------------
$rem
threads 8
jobtype opt
method PBEh-3c
basis def2-mSVP
mem_static      1024
mem_total       8000
sym_ignore      true
unrestricted true
scf_algorithm	diis
scf_max_cycles	250
solvent_method  pcm
geom_opt_tol_energy 25
geom_opt_tol_gradient 75
$end

$pcm
theory  iefpcm
$end

$solvent
dielectric      2.38
$end

$molecule
read uincoords.mol
$end
--------------------------------------------------------------
 Adding empirical dispersion correction 
 ----------------------------------------------------------------
 Doing -D3(BJ) with
 s6 =   1.00000
 s8 =   0.00000
 a1 =   0.48600
 a2 =   4.50000
 -D3 energy including 3body term =     -0.1265287039 hartrees
 ----------------------------------------------------------------
 Adding gCP correction 
 ----------------------------------------------------------------
 gCP energy =      0.1748591731 hartrees
 ----------------------------------------------------------------
             Standard Nuclear Orientation (Angstroms)
    I     Atom           X                Y                Z
 ----------------------------------------------------------------
    1      C     -12.5747250000    -3.1072410000   -10.4887290000
    2      C     -11.8031050000    -2.2718880000    -9.6591590000
    3      N     -10.6065860000    -2.9002540000    -9.3790780000
    4      C     -10.5949430000    -4.1288320000   -10.0066010000
    5      C     -11.7985780000    -4.2960810000   -10.7137160000
    6      C     -12.0232590000    -5.4647410000   -11.4352980000
    7      C     -11.0500080000    -6.4465640000   -11.4400630000
    8      C      -9.8569430000    -6.2650210000   -10.7335200000
    9      C      -9.6098030000    -5.1108220000   -10.0109660000
   10      C     -13.8427500000    -2.7031760000   -10.8934320000
   11      C     -14.3219350000    -1.4791440000   -10.4649940000
   12      C     -13.5455210000    -0.6632430000    -9.6360830000
   13      C     -12.2814850000    -1.0439120000    -9.2192210000
   14      C      -9.6144360000    -2.4486940000    -8.4811290000
   15      C      -8.8661230000    -1.3175030000    -8.7658420000
   16      C      -7.8608580000    -0.9059450000    -7.8971510000
   17      C      -7.5929500000    -1.6439550000    -6.7382430000
   18      C      -8.3635850000    -2.7782940000    -6.4497820000
   19      C      -9.3740340000    -3.1661200000    -7.3190090000
   20      B      -6.4006120000    -1.2607660000    -5.7862810000
   21      C      -5.0060900000    -1.8949340000    -6.0329120000
   22      C      -4.8201270000    -2.7393540000    -7.1265100000
   23      C      -3.6020820000    -3.3604030000    -7.3181730000
   24      C      -2.5342350000    -3.1453540000    -6.4196380000
   25      C      -2.7089110000    -2.3001070000    -5.3351220000
   26      C      -3.9414820000    -1.6698030000    -5.1275080000
   27      C      -1.4058780000    -3.9720940000    -6.8626490000
   28      C      -1.8495650000    -4.6574960000    -8.0109770000
   29      C      -3.1755070000    -4.3195130000    -8.3319040000
   30      C      -1.0925260000    -5.5793370000    -8.7262680000
   31      C       0.2174940000    -5.8110440000    -8.2438200000
   32      C       0.6658510000    -5.1452940000    -7.1264700000
   33      C      -0.1345870000    -4.2183760000    -6.4148830000
   34      C      -3.7725820000    -4.9180410000    -9.4112600000
   35      C      -3.0239240000    -5.8557900000   -10.1601370000
   36      C      -1.7270580000    -6.1847530000    -9.8388820000
   37      B      -4.1726570000    -0.7638570000    -3.8829520000
   38      C      -5.5563570000    -0.0828610000    -3.6595920000
   39      C      -5.7772610000     0.7300290000    -2.5418060000
   40      C      -7.0225420000     1.3021970000    -2.3343020000
   41      C      -8.0660880000     1.0639670000    -3.2556560000
   42      C      -7.8617430000     0.2599840000    -4.3602150000
   43      C      -6.6121380000    -0.3201150000    -4.5737640000
   44      C      -9.2643700000     1.7547720000    -2.7924970000
   45      C      -8.9072140000     2.3917190000    -1.5922340000
   46      C      -7.5588050000     2.1514720000    -1.2656440000
   47      C      -9.7890390000     3.1419830000    -0.8222110000
   48      C     -11.1129830000     3.2533550000    -1.3140960000
   49      C     -11.4691160000     2.6335260000    -2.4897710000
   50      C     -10.5514180000     1.8713370000    -3.2495770000
   51      C      -7.0686960000     2.6956850000    -0.1080100000
   52      C      -7.9393130000     3.4690930000     0.6979180000
   53      C      -9.2555680000     3.6940260000     0.3664340000
   54      C      -7.0391060000     0.3093250000    -8.2212780000
   55      C      -8.0946120000    -3.5847930000    -5.2105450000
   56      C      -3.0382610000    -0.5708200000    -2.8106760000
   57      C      -2.9320150000    -1.4873360000    -1.7573830000
   58      C      -1.9562850000    -1.3107670000    -0.7838430000
   59      C      -1.0983140000    -0.2215730000    -0.8386690000
   60      C      -1.2005190000     0.6890750000    -1.8808540000
   61      C      -2.1580710000     0.5147620000    -2.8741540000
   62      N      -0.1297790000    -0.0364820000     0.1737890000
   63      C      -0.4003010000     0.1736220000     1.5109990000
   64      C       0.8078380000     0.3508900000     2.2042340000
   65      C       1.8610510000     0.2443400000     1.2282070000
   66      C       1.2379180000     0.0069560000    -0.0085620000
   67      C       0.7804400000     0.5936690000     3.5740650000
   68      C      -0.4400820000     0.6598830000     4.2209830000
   69      C      -1.6330030000     0.4918960000     3.5109530000
   70      C      -1.6332640000     0.2488510000     2.1495750000
   71      C       3.2484480000     0.3278250000     1.2895920000
   72      C       3.9828670000     0.1717950000     0.1281190000
   73      C       3.3446550000    -0.0733710000    -1.0919340000
   74      C       1.9672700000    -0.1619760000    -1.1798640000
   75      C      -3.8657190000    -2.6637650000    -1.6899180000
   76      C      -2.2657250000     1.4951890000    -4.0079960000
   77      H      -2.5605740000     0.1258360000     1.6053980000
   78      H      -2.5776660000     0.5555490000     4.0354500000
   79      H       1.4796300000    -0.3555940000    -2.1264480000
   80      H       3.9392220000    -0.1979260000    -1.9876970000
   81      C       5.4295450000     0.2595460000     0.1719860000
   82      H       3.7470430000     0.5124770000     2.2328810000
   83      C      -0.4881990000     0.9117160000     5.6481360000
   84      H       1.7015620000     0.7333390000     4.1256710000
   85      H      -0.5362910000     1.5448340000    -1.9119900000
   86      H      -1.8599360000    -2.0268640000     0.0236570000
   87      H      -3.6922150000    -3.2696810000    -0.8012680000
   88      H      -4.9101340000    -2.3440890000    -1.6696240000
   89      H      -3.7476690000    -3.3145930000    -2.5588100000
   90      H      -1.5262030000     2.2911510000    -3.9290390000
   91      H      -3.2515510000     1.9645780000    -4.0368540000
   92      H      -2.1180190000     1.0035720000    -4.9722460000
   93      H      -4.9732090000     0.9013560000    -1.8344420000
   94      H      -8.6732680000     0.0664980000    -5.0537400000
   95      H     -10.8796050000     1.3957660000    -4.1657060000
   96      H      -6.0425980000     2.5478140000     0.2043530000
   97      H     -12.4862210000     2.7271700000    -2.8476150000
   98      H     -11.8493710000     3.8247360000    -0.7622790000
   99      H      -7.5491230000     3.8969430000     1.6119940000
  100      H      -9.8828580000     4.2902700000     1.0176960000
  101      H      -5.6384960000    -2.9240780000    -7.8136270000
  102      H      -1.8979630000    -2.1364540000    -4.6336720000
  103      H       0.2678490000    -3.7309460000    -5.5357020000
  104      H      -4.7935730000    -4.6967670000    -9.6980350000
  105      H       0.8661300000    -6.5155490000    -8.7498950000
  106      H       1.6689710000    -5.3382030000    -6.7696700000
  107      H      -3.4926150000    -6.3313320000   -11.0119720000
  108      H      -1.1927060000    -6.9125910000   -10.4372700000
  109      H      -9.0535150000    -0.7688010000    -9.6816600000
  110      H      -9.9756890000    -4.0403320000    -7.0975630000
  111      H     -11.6942130000    -0.4071240000    -8.5709790000
  112      H     -13.9429910000     0.2884850000    -9.3080700000
  113      H      -8.6823090000    -4.9856120000    -9.4681180000
  114      H      -9.1073470000    -7.0456820000   -10.7501480000
  115      C     -11.2636340000    -7.6746480000   -12.1807890000
  116      H     -12.9473150000    -5.6042320000   -11.9828740000
  117      C     -15.6416580000    -1.0362680000   -10.8708180000
  118      H     -14.4465840000    -3.3402350000   -11.5281580000
  119      H      -8.8005450000    -4.4080250000    -5.1075240000
  120      H      -8.1683030000    -2.9720400000    -4.3098300000
  121      H      -7.0898450000    -4.0134130000    -5.2257090000
  122      H      -7.3517600000     0.7695930000    -9.1578850000
  123      H      -7.1201560000     1.0664780000    -7.4386600000
  124      H      -5.9799670000     0.0592680000    -8.3161560000
  125      H     -16.0977060000    -1.7916240000   -11.5090800000
  126      H     -16.2611240000    -0.8848330000    -9.9880670000
  127      H     -15.5573000000    -0.0997320000   -11.4200950000
  128      H     -12.2385260000    -7.6416320000   -12.6649550000
  129      H     -10.4866740000    -7.7828010000   -12.9361410000
  130      H     -11.2261430000    -8.5218450000   -11.4975810000
  131      H       0.5252960000     1.0156060000     6.0327850000
  132      H      -1.0437150000     1.8292750000     5.8363070000
  133      H      -0.9823170000     0.0794010000     6.1471560000
  134      H       5.7506320000     0.4531470000     1.1944060000
  135      H       5.8607660000    -0.6793030000    -0.1722990000
  136      H       5.7637400000     1.0706970000    -0.4732020000
 ----------------------------------------------------------------
 Nuclear Repulsion Energy = 11544.5448096738 hartrees
 There are      269 alpha and      267 beta electrons
 Requested basis set is def2-mSVP
 There are 672 shells and 1312 basis functions

 Total QAlloc Memory Limit   8000 MB
 Mega-Array Size      1001 MB
 MEM_STATIC part      1024 MB
 Discretize the solute cavity surface with Lebedev spheres
	Using 302 Lebedev grid points for each H atom
	Using 302 Lebedev grid points for other atoms
	Atomic van der Waals radii will be scaled by 1.20
 Remove points where switching function is < 1.0e-08
 Keep 14411 surface tesserae and discard 26661 interior tesserae
 Molecular Surface Area = 1069.763 Angst**2
 A cutoff of  1.0D-11 yielded  56202 shell pairs
 There are    224334 function pairs (    247553 Cartesian)
 
 -------------------------------------------------------
 OpenMP Integral Computing Module                       
 Release: version 1.0, May 2013, Q-Chem Inc. Pittsburgh 
 -------------------------------------------------------
 Integral Job Info:
 Integral job number is                      11
 Integral operator is                         1
 short-range coefficients                     0
 long-range coefficients              100000000
 Omega coefficients                           0
 if combine SR and LR in K                    0
 Integral screening is                        0
 Integral computing path is                   2
 max size of driver memory is            800000
 size of driver memory is                593474
 size of scratch memory is              1809772
 max col of scratch BK array               1296
 max len of scratch array in speh3          155
 max len of scratch index in speh4           18
 max int batch size is                      520
 min int batch size is                       52
 fixed nKL is                                52
 max L of basis functions is                  2
 order of int derivative is                   0
 number of shells is                        672
 number of basis is                        1392
 number of cartesian basis is              1392
 number of contracted shell pairs         56202
 number of primitive shell pairs         117500
 maxK2 (contraction) of shell pair           25
 max number of K2 of shell pair               1
 max number of CS2 of shell pair          13529
 max number of PS2 of shell pair          20850
 mem total for path MDJ                 1087548
 -------------------------------------------------------
 Smallest overlap matrix eigenvalue = 1.97E-04

 Scale SEOQF with 1.000000e-02/1.000000e-02/1.000000e-02

 Standard Electronic Orientation quadrupole field applied
 Nucleus-field energy     =    -0.0000001042 hartrees
 Guess from superposition of atomic densities
 Warning:  Energy on first SCF cycle will be non-variational
 SAD guess density has 536.000001 electrons

 -----------------------------------------------------------------------
  General SCF calculation program by
  Eric Jon Sundstrom, Paul Horn, Yuezhi Mao, Dmitri Zuev, Alec White,
  David Stuck, Shaama M.S., Shane Yost, Joonho Lee, David Small,
  Daniel Levine, Susi Lehtola, Hugh Burton, Evgeny Epifanovsky
 -----------------------------------------------------------------------
 Exchange:     0.4200 Hartree-Fock + 0.5800 PBEh-3c
 Correlation:  1.0000 PBEh-3c
 Using SG-1 standard quadrature grid
 Dispersion:   Grimme D3
 using 8 threads for integral computing
 -------------------------------------------------------
 OpenMP Integral computing Module                
 Release: version 2.0, May 2017, Q-Chem Inc. Pleasanton 
 -------------------------------------------------------
 -------------------------------------------------------
 OpenMP BLAS3 based DFT computing Module                
 Release: version 1.0, May 2013, Q-Chem Inc. Pittsburgh 
 -------------------------------------------------------
 A unrestricted SCF calculation will be
 performed using DIIS
 SCF converges when DIIS error is below 1.0e-08
 ---------------------------------------
  Cycle       Energy         DIIS error
 ---------------------------------------
 Using non-symmetric K matrix
    1   -3110.0585564852      1.20e-02  
    2   -3081.6581821674      8.35e-04  
    3   -3081.1868083056      1.02e-03  
    4   -3082.1389276794      4.58e-04  
    5   -3082.3611328279      8.99e-05  
    6   -3082.3679403849      6.85e-05  
    7   -3082.3726586415      2.09e-05  
    8   -3082.3732514817      9.49e-06  
    9   -3082.3735622960      5.24e-06  
   10   -3082.3736850616      3.44e-06  
   11   -3082.3737538495      1.84e-06  
   12   -3082.3737731173      1.21e-06  
   13   -3082.3737824490      8.06e-07  
   14   -3082.3737868295      5.07e-07  
   15   -3082.3737884897      3.11e-07  
   16   -3082.3737893247      2.13e-07  
   17   -3082.3737896912      1.37e-07  
   18   -3082.3737898890      8.12e-08  
   19   -3082.3737899311      4.74e-08  
   20   -3082.3737899499      3.06e-08  
   21   -3082.3737899556      1.99e-08  
   22   -3082.3737899596      1.13e-08  
   23   -3082.3737899603      7.50e-09  Convergence criterion met
 ---------------------------------------
 SCF time:   CPU 32481.07s  wall 4274.00s 
<S^2> =          2.070310185

************** Final PCM Free Energy Summary **************
 G_electrostatic  =      -0.03436996 hartree =     -21.56747574 kcal/mol
 G_cavitation     =       0.00000000 hartree =       0.00000000 kcal/mol
 G_dispersion     =       0.00000000 hartree =       0.00000000 kcal/mol
 G_repulsion      =       0.00000000 hartree =       0.00000000 kcal/mol
 --------------------------------------------------
 Non-electrostatic Free Energy =       0.00000000 hartree =       0.00000000 kcal/mol
 Total                         =      -0.03436996 hartree =     -21.56747574 kcal/mol
 --------------------------------------------------
 SCF Energy (H0 + V/2)                       =   -3082.37378996 
 Solute Internal Energy (H0)                 =   -3082.33942000 
 Total Free Energy (H0 + V/2 + non-elec)     =   -3082.37378996 hartree
                                             = -1934218.74636227 kcal/mol
***********************************************************

 SCF   energy in the final basis set =    -3082.3737899603
 Total energy in the final basis set =    -3082.3737899603
 
 --------------------------------------------------------------
 
                    Orbital Energies (a.u.)
 --------------------------------------------------------------
 
 Alpha MOs
 -- Occupied --
-14.793 -14.672 -10.538 -10.538 -10.525 -10.510 -10.509 -10.506
-10.506 -10.505 -10.505 -10.498 -10.497 -10.487 -10.487 -10.473
-10.473 -10.472 -10.472 -10.470 -10.470 -10.469 -10.457 -10.457
-10.446 -10.446 -10.444 -10.444 -10.443 -10.443 -10.443 -10.442
-10.442 -10.442 -10.442 -10.440 -10.440 -10.440 -10.440 -10.440
-10.439 -10.438 -10.438 -10.436 -10.436 -10.434 -10.434 -10.434
-10.433 -10.432 -10.432 -10.432 -10.432 -10.431 -10.431 -10.430
-10.430 -10.430 -10.429 -10.428 -10.428 -10.428 -10.428 -10.427
-10.427 -10.426 -10.425 -10.423 -10.422 -10.414 -10.414 -10.409
-10.408 -10.403 -10.402 -10.401 -10.396 -10.396  -6.900  -6.893
 -1.186  -1.092  -1.025  -1.013  -0.994  -0.994  -0.986  -0.959
 -0.946  -0.944  -0.937  -0.934  -0.933  -0.927  -0.914  -0.913
 -0.905  -0.890  -0.885  -0.881  -0.875  -0.875  -0.868  -0.862
 -0.856  -0.841  -0.831  -0.829  -0.828  -0.827  -0.822  -0.822
 -0.812  -0.803  -0.795  -0.791  -0.789  -0.785  -0.779  -0.777
 -0.765  -0.762  -0.759  -0.748  -0.743  -0.738  -0.715  -0.710
 -0.708  -0.706  -0.706  -0.703  -0.697  -0.686  -0.677  -0.667
 -0.667  -0.657  -0.651  -0.650  -0.640  -0.640  -0.639  -0.631
 -0.627  -0.626  -0.623  -0.623  -0.597  -0.593  -0.588  -0.579
 -0.577  -0.575  -0.574  -0.573  -0.568  -0.563  -0.562  -0.554
 -0.551  -0.549  -0.549  -0.548  -0.543  -0.537  -0.536  -0.535
 -0.528  -0.525  -0.523  -0.520  -0.518  -0.515  -0.506  -0.505
 -0.503  -0.496  -0.490  -0.487  -0.486  -0.485  -0.485  -0.484
 -0.483  -0.478  -0.477  -0.476  -0.473  -0.472  -0.472  -0.469
 -0.467  -0.467  -0.467  -0.465  -0.464  -0.464  -0.463  -0.462
 -0.461  -0.461  -0.460  -0.453  -0.453  -0.451  -0.451  -0.448
 -0.447  -0.445  -0.445  -0.443  -0.440  -0.436  -0.432  -0.429
 -0.429  -0.421  -0.419  -0.418  -0.417  -0.414  -0.413  -0.406
 -0.405  -0.404  -0.402  -0.401  -0.401  -0.391  -0.388  -0.385
 -0.381  -0.379  -0.379  -0.378  -0.378  -0.375  -0.374  -0.373
 -0.371  -0.367  -0.351  -0.349  -0.348  -0.346  -0.341  -0.329
 -0.323  -0.316  -0.314  -0.307  -0.302  -0.300  -0.299  -0.293
 -0.286  -0.280  -0.279  -0.279  -0.263  -0.262  -0.260  -0.246
 -0.237  -0.236  -0.233  -0.218  -0.136
 -- Virtual --
 -0.064  -0.048  -0.024  -0.022  -0.020  -0.014  -0.002   0.000
  0.004   0.013   0.015   0.023   0.029   0.038   0.042   0.043
  0.063   0.069   0.074   0.086   0.103   0.106   0.108   0.114
  0.121   0.131   0.132   0.141   0.141   0.151   0.151   0.152
  0.157   0.159   0.161   0.162   0.167   0.167   0.168   0.173
  0.174   0.176   0.177   0.179   0.181   0.183   0.184   0.185
  0.189   0.192   0.193   0.195   0.195   0.196   0.201   0.202
  0.203   0.206   0.208   0.209   0.210   0.213   0.213   0.214
  0.217   0.217   0.217   0.218   0.219   0.222   0.224   0.227
  0.230   0.233   0.235   0.235   0.236   0.237   0.238   0.241
  0.243   0.244   0.246   0.247   0.248   0.252   0.253   0.254
  0.258   0.258   0.260   0.262   0.262   0.264   0.266   0.267
  0.268   0.270   0.270   0.271   0.272   0.278   0.279   0.282
  0.284   0.286   0.287   0.287   0.291   0.298   0.298   0.299
  0.304   0.307   0.309   0.313   0.316   0.320   0.324   0.324
  0.326   0.327   0.327   0.331   0.336   0.339   0.340   0.342
  0.343   0.349   0.350   0.351   0.356   0.368   0.369   0.370
  0.375   0.376   0.382   0.384   0.385   0.390   0.396   0.398
  0.403   0.409   0.409   0.417   0.422   0.423   0.426   0.427
  0.427   0.429   0.441   0.441   0.445   0.446   0.452   0.454
  0.456   0.463   0.466   0.467   0.472   0.476   0.476   0.477
  0.478   0.483   0.484   0.485   0.487   0.489   0.493   0.494
  0.498   0.504   0.505   0.506   0.508   0.511   0.511   0.514
  0.515   0.517   0.518   0.523   0.528   0.529   0.532   0.535
  0.536   0.537   0.539   0.540   0.543   0.544   0.545   0.545
  0.547   0.548   0.551   0.552   0.553   0.556   0.556   0.559
  0.560   0.564   0.566   0.567   0.568   0.570   0.572   0.575
  0.577   0.579   0.579   0.581   0.581   0.583   0.585   0.588
  0.589   0.590   0.591   0.592   0.594   0.595   0.597   0.599
  0.600   0.600   0.602   0.603   0.604   0.606   0.608   0.609
  0.610   0.611   0.613   0.617   0.618   0.622   0.623   0.624
  0.626   0.628   0.629   0.630   0.632   0.634   0.635   0.638
  0.639   0.640   0.640   0.642   0.643   0.645   0.646   0.647
  0.648   0.650   0.650   0.651   0.653   0.656   0.659   0.666
  0.668   0.670   0.671   0.673   0.675   0.676   0.679   0.682
  0.682   0.685   0.687   0.692   0.693   0.695   0.696   0.701
  0.702   0.704   0.705   0.708   0.710   0.714   0.715   0.717
  0.719   0.720   0.724   0.726   0.727   0.729   0.735   0.738
  0.739   0.740   0.745   0.749   0.751   0.751   0.751   0.752
  0.755   0.758   0.761   0.764   0.767   0.769   0.772   0.773
  0.775   0.775   0.776   0.779   0.782   0.787   0.788   0.791
  0.793   0.796   0.799   0.802   0.803   0.810   0.810   0.812
  0.815   0.817   0.821   0.823   0.827   0.836   0.840   0.845
  0.849   0.853   0.857   0.864   0.865   0.867   0.871   0.877
  0.883   0.889   0.890   0.892   0.899   0.904   0.907   0.913
  0.914   0.919   0.921   0.929   0.930   0.932   0.933   0.937
  0.937   0.940   0.945   0.953   0.956   0.958   0.959   0.965
  0.966   0.970   0.972   0.973   0.975   0.977   0.983   0.985
  0.986   0.988   0.990   0.991   0.993   0.997   0.999   1.003
  1.003   1.004   1.006   1.007   1.010   1.012   1.014   1.016
  1.019   1.022   1.024   1.027   1.028   1.030   1.031   1.031
  1.033   1.037   1.039   1.042   1.044   1.047   1.049   1.050
  1.052   1.053   1.056   1.060   1.061   1.062   1.064   1.066
  1.071   1.072   1.074   1.074   1.075   1.076   1.079   1.079
  1.083   1.087   1.088   1.090   1.090   1.095   1.098   1.100
  1.102   1.104   1.107   1.110   1.111   1.113   1.116   1.116
  1.117   1.122   1.125   1.131   1.136   1.139   1.142   1.143
  1.147   1.151   1.153   1.154   1.156   1.158   1.159   1.162
  1.165   1.167   1.168   1.172   1.177   1.179   1.184   1.187
  1.188   1.189   1.203   1.203   1.211   1.215   1.220   1.221
  1.224   1.225   1.231   1.235   1.244   1.250   1.252   1.256
  1.261   1.266   1.269   1.271   1.273   1.275   1.278   1.282
  1.286   1.292   1.295   1.296   1.302   1.306   1.308   1.313
  1.317   1.319   1.320   1.321   1.323   1.324   1.329   1.330
  1.335   1.338   1.341   1.344   1.345   1.356   1.360   1.360
  1.367   1.370   1.374   1.377   1.381   1.382   1.383   1.393
  1.395   1.395   1.396   1.399   1.401   1.402   1.406   1.407
  1.412   1.420   1.421   1.422   1.425   1.427   1.436   1.438
  1.446   1.454   1.455   1.455   1.456   1.457   1.460   1.461
  1.461   1.467   1.472   1.476   1.479   1.485   1.490   1.493
  1.497   1.500   1.503   1.507   1.508   1.518   1.522   1.526
  1.527   1.530   1.530   1.531   1.536   1.536   1.537   1.541
  1.543   1.547   1.548   1.550   1.550   1.551   1.555   1.558
  1.561   1.564   1.565   1.565   1.568   1.571   1.573   1.576
  1.578   1.580   1.583   1.589   1.591   1.595   1.598   1.604
  1.604   1.611   1.616   1.619   1.628   1.634   1.641   1.663
  1.664   1.670   1.673   1.682   1.688   1.694   1.704   1.711
  1.720   1.727   1.746   1.761   1.765   1.768   1.769   1.771
  1.777   1.793   1.799   1.810   1.813   1.816   1.825   1.829
  1.829   1.830   1.832   1.833   1.838   1.839   1.841   1.842
  1.845   1.847   1.856   1.858   1.860   1.864   1.867   1.868
  1.875   1.879   1.887   1.893   1.895   1.898   1.903   1.917
  1.920   1.922   1.927   1.928   1.928   1.931   1.934   1.935
  1.937   1.938   1.939   1.942   1.943   1.948   1.953   1.956
  1.957   1.960   1.962   1.962   1.965   1.969   1.973   1.980
  1.982   1.987   1.989   1.994   2.000   2.002   2.005   2.006
  2.009   2.014   2.017   2.020   2.029   2.032   2.034   2.041
  2.048   2.054   2.060   2.066   2.067   2.072   2.073   2.076
  2.086   2.087   2.089   2.090   2.092   2.099   2.105   2.107
  2.110   2.115   2.116   2.126   2.130   2.130   2.131   2.137
  2.141   2.147   2.154   2.158   2.162   2.170   2.174   2.174
  2.177   2.179   2.183   2.189   2.191   2.202   2.203   2.205
  2.212   2.213   2.214   2.218   2.219   2.221   2.225   2.225
  2.228   2.235   2.244   2.244   2.247   2.251   2.251   2.255
  2.256   2.260   2.262   2.271   2.278   2.281   2.284   2.284
  2.287   2.291   2.293   2.295   2.298   2.300   2.302   2.303
  2.304   2.308   2.309   2.313   2.314   2.318   2.328   2.333
  2.341   2.342   2.344   2.345   2.346   2.348   2.353   2.359
  2.361   2.363   2.366   2.368   2.369   2.370   2.372   2.379
  2.379   2.380   2.384   2.390   2.391   2.399   2.402   2.408
  2.408   2.408   2.412   2.419   2.419   2.422   2.426   2.427
  2.431   2.433   2.437   2.437   2.439   2.441   2.444   2.445
  2.449   2.454   2.456   2.458   2.459   2.461   2.470   2.474
  2.476   2.482   2.492   2.495   2.496   2.504   2.506   2.509
  2.515   2.516   2.517   2.519   2.523   2.533   2.547   2.558
  2.564   2.581   2.585   2.590   2.601   2.609   2.612   2.615
  2.640   2.654   2.657   2.658   2.663   2.663   2.666   2.673
  2.676   2.682   2.685   2.689   2.701   2.706   2.708   2.715
  2.719   2.727   2.732   2.734   2.745   2.745   2.747   2.750
  2.752   2.752   2.755   2.756   2.760   2.768   2.770   2.772
  2.780   2.793   2.805   2.807   2.807   2.810   2.811   2.812
  2.813   2.814   2.818   2.827   2.828   2.832   2.841   2.844
  2.847   2.858   2.859   2.863   2.871   2.875   2.879   2.884
  2.894   2.894   2.895   2.897   2.902   2.914   2.915   2.920
  2.926   2.927   2.937   2.943   2.954   2.957   2.960   2.965
  2.969   2.979   2.980   3.000   3.008   3.019   3.025   3.029
  3.035   3.035   3.057   3.077   3.083   3.089   3.094   3.101
  3.102   3.106   3.149   3.164   3.238   3.262   3.278   3.280
  3.289   3.296   3.361   3.392   3.420   3.429   3.461   3.469
  3.475   3.493   3.513   3.515   3.523   3.543   3.575   3.591
  3.642   3.692   3.707   9.634   9.775  13.164  13.184  13.197
 13.250  13.381  13.424  13.446  13.520  13.526  13.532  13.545
 13.571  13.624  13.647  13.689  13.704  13.712  13.724  13.739
 13.754  13.782  13.812  13.816  13.828  13.856  13.883  13.897
 13.903  13.908  13.916  13.931  13.936  13.949  13.949  13.965
 13.989  14.012  14.026  14.029  14.038  14.057  14.066  14.088
 14.148  14.151  14.170  14.181  14.183  14.190  14.198  14.210
 14.218  14.236  14.260  14.260  14.273  14.273  14.290  14.300
 14.329  14.332  14.342  14.365  14.374  14.523  14.533  14.536
 14.558  14.578  14.591  14.601  14.603  14.606  14.607  14.627
 14.628  19.480  19.602
 
 Beta MOs
 -- Occupied --
-14.783 -14.672 -10.540 -10.539 -10.525 -10.508 -10.508 -10.503
-10.503 -10.503 -10.502 -10.498 -10.498 -10.489 -10.488 -10.473
-10.472 -10.472 -10.471 -10.470 -10.470 -10.469 -10.457 -10.457
-10.447 -10.446 -10.444 -10.444 -10.444 -10.443 -10.443 -10.442
-10.441 -10.441 -10.441 -10.441 -10.441 -10.439 -10.439 -10.439
-10.439 -10.438 -10.438 -10.436 -10.435 -10.434 -10.434 -10.434
-10.433 -10.432 -10.432 -10.432 -10.432 -10.431 -10.431 -10.430
-10.430 -10.430 -10.429 -10.428 -10.428 -10.427 -10.427 -10.427
-10.426 -10.426 -10.425 -10.423 -10.422 -10.414 -10.414 -10.409
-10.408 -10.403 -10.401 -10.401 -10.395 -10.395  -6.897  -6.890
 -1.170  -1.092  -1.020  -1.009  -0.994  -0.993  -0.982  -0.959
 -0.944  -0.941  -0.936  -0.933  -0.932  -0.923  -0.913  -0.913
 -0.900  -0.889  -0.884  -0.880  -0.875  -0.872  -0.867  -0.861
 -0.856  -0.841  -0.830  -0.828  -0.827  -0.826  -0.822  -0.822
 -0.808  -0.803  -0.792  -0.790  -0.788  -0.783  -0.777  -0.775
 -0.763  -0.762  -0.759  -0.748  -0.743  -0.734  -0.712  -0.709
 -0.706  -0.705  -0.703  -0.701  -0.697  -0.684  -0.677  -0.667
 -0.663  -0.656  -0.650  -0.648  -0.639  -0.638  -0.638  -0.629
 -0.626  -0.625  -0.623  -0.623  -0.594  -0.587  -0.577  -0.576
 -0.575  -0.575  -0.572  -0.572  -0.566  -0.562  -0.562  -0.553
 -0.551  -0.547  -0.546  -0.542  -0.541  -0.536  -0.534  -0.531
 -0.528  -0.524  -0.519  -0.516  -0.515  -0.508  -0.506  -0.505
 -0.503  -0.494  -0.489  -0.487  -0.486  -0.484  -0.484  -0.483
 -0.482  -0.477  -0.476  -0.476  -0.473  -0.472  -0.472  -0.468
 -0.467  -0.466  -0.466  -0.464  -0.463  -0.462  -0.462  -0.461
 -0.459  -0.459  -0.459  -0.453  -0.452  -0.448  -0.447  -0.445
 -0.445  -0.443  -0.442  -0.439  -0.438  -0.434  -0.430  -0.429
 -0.424  -0.420  -0.419  -0.417  -0.417  -0.411  -0.406  -0.405
 -0.403  -0.402  -0.401  -0.398  -0.391  -0.390  -0.388  -0.384
 -0.381  -0.378  -0.375  -0.375  -0.374  -0.373  -0.372  -0.370
 -0.370  -0.366  -0.351  -0.347  -0.341  -0.338  -0.327  -0.326
 -0.316  -0.315  -0.314  -0.303  -0.299  -0.293  -0.289  -0.287
 -0.279  -0.277  -0.276  -0.263  -0.259  -0.251  -0.239  -0.237
 -0.234  -0.226  -0.217
 -- Virtual --
 -0.190  -0.055  -0.055  -0.035  -0.014  -0.012  -0.007  -0.002
  0.000   0.004   0.017   0.022   0.023   0.025   0.029   0.038
  0.043   0.043   0.069   0.074   0.075   0.095   0.104   0.115
  0.115   0.117   0.122   0.134   0.139   0.141   0.147   0.152
  0.153   0.154   0.159   0.159   0.161   0.162   0.167   0.168
  0.169   0.174   0.175   0.176   0.179   0.182   0.183   0.183
  0.185   0.189   0.190   0.192   0.194   0.195   0.196   0.198
  0.201   0.203   0.204   0.206   0.208   0.209   0.210   0.214
  0.214   0.215   0.217   0.218   0.219   0.220   0.221   0.224
  0.225   0.229   0.231   0.233   0.235   0.235   0.237   0.238
  0.241   0.244   0.245   0.245   0.246   0.247   0.249   0.253
  0.253   0.256   0.259   0.259   0.262   0.263   0.264   0.265
  0.267   0.269   0.270   0.271   0.272   0.272   0.272   0.280
  0.280   0.284   0.285   0.287   0.287   0.289   0.291   0.298
  0.298   0.300   0.304   0.308   0.311   0.315   0.320   0.321
  0.325   0.325   0.327   0.327   0.328   0.331   0.337   0.340
  0.342   0.343   0.344   0.351   0.352   0.353   0.358   0.370
  0.370   0.371   0.376   0.380   0.383   0.386   0.387   0.393
  0.397   0.401   0.404   0.410   0.411   0.419   0.423   0.424
  0.426   0.428   0.428   0.429   0.442   0.443   0.447   0.447
  0.454   0.455   0.458   0.465   0.468   0.469   0.473   0.478
  0.478   0.478   0.479   0.484   0.484   0.486   0.490   0.492
  0.494   0.496   0.498   0.505   0.507   0.507   0.510   0.512
  0.513   0.515   0.517   0.518   0.524   0.526   0.530   0.530
  0.535   0.535   0.538   0.539   0.542   0.543   0.544   0.546
  0.546   0.547   0.549   0.550   0.552   0.553   0.555   0.557
  0.559   0.560   0.562   0.566   0.567   0.568   0.569   0.572
  0.573   0.576   0.579   0.580   0.581   0.582   0.583   0.584
  0.586   0.588   0.589   0.591   0.592   0.593   0.595   0.596
  0.598   0.600   0.601   0.602   0.603   0.605   0.606   0.608
  0.608   0.610   0.610   0.613   0.614   0.618   0.619   0.623
  0.623   0.625   0.627   0.628   0.629   0.631   0.634   0.635
  0.636   0.639   0.640   0.641   0.642   0.643   0.644   0.646
  0.647   0.648   0.649   0.651   0.651   0.654   0.656   0.658
  0.659   0.666   0.669   0.671   0.673   0.675   0.676   0.678
  0.680   0.684   0.684   0.686   0.688   0.693   0.695   0.696
  0.698   0.702   0.703   0.705   0.705   0.708   0.711   0.715
  0.717   0.719   0.719   0.721   0.724   0.727   0.730   0.731
  0.735   0.739   0.739   0.741   0.746   0.750   0.752   0.753
  0.754   0.754   0.756   0.760   0.762   0.766   0.768   0.771
  0.773   0.774   0.775   0.776   0.777   0.780   0.783   0.788
  0.789   0.791   0.793   0.796   0.800   0.802   0.804   0.811
  0.812   0.813   0.815   0.819   0.821   0.824   0.830   0.837
  0.841   0.846   0.850   0.855   0.859   0.865   0.866   0.869
  0.873   0.879   0.885   0.890   0.892   0.895   0.899   0.905
  0.908   0.914   0.915   0.920   0.922   0.930   0.932   0.933
  0.934   0.938   0.939   0.944   0.946   0.956   0.958   0.959
  0.960   0.965   0.966   0.970   0.972   0.973   0.976   0.978
  0.984   0.987   0.988   0.990   0.990   0.993   0.994   0.997
  1.000   1.003   1.003   1.006   1.007   1.011   1.011   1.013
  1.015   1.019   1.020   1.022   1.024   1.028   1.029   1.031
  1.032   1.032   1.034   1.038   1.040   1.042   1.045   1.048
  1.050   1.051   1.053   1.054   1.057   1.061   1.061   1.063
  1.064   1.066   1.072   1.073   1.074   1.075   1.076   1.076
  1.079   1.080   1.084   1.087   1.088   1.090   1.090   1.096
  1.098   1.101   1.104   1.105   1.107   1.111   1.112   1.113
  1.116   1.117   1.121   1.122   1.127   1.131   1.137   1.139
  1.142   1.144   1.148   1.152   1.154   1.155   1.156   1.158
  1.159   1.162   1.165   1.168   1.169   1.172   1.177   1.179
  1.185   1.188   1.190   1.191   1.203   1.204   1.212   1.216
  1.221   1.222   1.225   1.226   1.232   1.237   1.245   1.251
  1.253   1.258   1.262   1.268   1.270   1.272   1.275   1.276
  1.279   1.283   1.288   1.294   1.296   1.298   1.303   1.307
  1.309   1.315   1.319   1.320   1.321   1.322   1.324   1.329
  1.330   1.331   1.336   1.339   1.343   1.346   1.349   1.356
  1.360   1.362   1.369   1.373   1.374   1.378   1.382   1.384
  1.386   1.395   1.396   1.400   1.400   1.401   1.403   1.404
  1.408   1.409   1.412   1.421   1.422   1.422   1.425   1.427
  1.437   1.439   1.448   1.455   1.455   1.456   1.457   1.459
  1.461   1.462   1.462   1.468   1.473   1.478   1.482   1.486
  1.492   1.495   1.499   1.502   1.505   1.509   1.510   1.520
  1.522   1.527   1.529   1.530   1.531   1.532   1.537   1.537
  1.538   1.542   1.544   1.548   1.549   1.551   1.551   1.552
  1.556   1.559   1.562   1.564   1.565   1.567   1.569   1.572
  1.575   1.576   1.579   1.581   1.584   1.590   1.592   1.595
  1.599   1.605   1.605   1.612   1.617   1.620   1.629   1.635
  1.643   1.665   1.666   1.672   1.675   1.687   1.691   1.699
  1.706   1.713   1.721   1.737   1.747   1.763   1.766   1.770
  1.771   1.773   1.778   1.796   1.799   1.812   1.814   1.818
  1.826   1.829   1.830   1.831   1.833   1.834   1.839   1.840
  1.841   1.843   1.846   1.847   1.856   1.860   1.863   1.866
  1.868   1.869   1.875   1.884   1.892   1.895   1.896   1.901
  1.905   1.918   1.920   1.923   1.928   1.928   1.929   1.932
  1.934   1.937   1.938   1.940   1.940   1.944   1.945   1.948
  1.954   1.958   1.960   1.961   1.963   1.965   1.968   1.969
  1.974   1.982   1.984   1.988   1.991   1.998   2.000   2.003
  2.005   2.007   2.009   2.015   2.017   2.020   2.031   2.036
  2.040   2.046   2.049   2.057   2.061   2.067   2.069   2.073
  2.075   2.078   2.087   2.089   2.090   2.091   2.092   2.100
  2.105   2.110   2.110   2.117   2.117   2.127   2.131   2.131
  2.132   2.139   2.142   2.147   2.154   2.160   2.163   2.171
  2.176   2.176   2.177   2.180   2.185   2.190   2.192   2.202
  2.203   2.206   2.213   2.214   2.214   2.219   2.221   2.222
  2.224   2.225   2.228   2.236   2.245   2.246   2.250   2.252
  2.252   2.257   2.257   2.261   2.264   2.271   2.278   2.281
  2.285   2.285   2.290   2.293   2.296   2.298   2.301   2.302
  2.304   2.305   2.307   2.310   2.311   2.314   2.317   2.318
  2.330   2.335   2.342   2.343   2.345   2.347   2.348   2.350
  2.353   2.361   2.362   2.363   2.366   2.369   2.370   2.371
  2.373   2.379   2.380   2.382   2.386   2.391   2.394   2.399
  2.406   2.408   2.409   2.409   2.412   2.420   2.423   2.425
  2.426   2.428   2.433   2.434   2.438   2.438   2.440   2.442
  2.447   2.449   2.451   2.456   2.457   2.460   2.461   2.465
  2.471   2.476   2.477   2.483   2.494   2.496   2.500   2.506
  2.508   2.511   2.516   2.517   2.517   2.519   2.523   2.533
  2.553   2.559   2.565   2.582   2.590   2.592   2.602   2.613
  2.614   2.617   2.642   2.655   2.658   2.660   2.663   2.664
  2.667   2.675   2.676   2.682   2.686   2.690   2.703   2.706
  2.709   2.717   2.720   2.728   2.733   2.735   2.745   2.748
  2.748   2.750   2.753   2.753   2.756   2.759   2.762   2.770
  2.770   2.772   2.780   2.794   2.806   2.808   2.808   2.811
  2.811   2.813   2.814   2.815   2.818   2.827   2.828   2.832
  2.841   2.845   2.847   2.859   2.859   2.863   2.872   2.877
  2.880   2.886   2.895   2.895   2.897   2.902   2.904   2.915
  2.916   2.920   2.927   2.928   2.940   2.945   2.954   2.957
  2.960   2.965   2.969   2.980   2.981   3.001   3.008   3.020
  3.027   3.030   3.035   3.036   3.059   3.080   3.084   3.090
  3.094   3.102   3.103   3.106   3.150   3.165   3.240   3.263
  3.278   3.280   3.289   3.297   3.361   3.394   3.421   3.429
  3.461   3.470   3.476   3.494   3.513   3.515   3.523   3.544
  3.576   3.591   3.642   3.692   3.707   9.638   9.779  13.164
 13.185  13.197  13.250  13.382  13.424  13.446  13.520  13.526
 13.533  13.546  13.571  13.626  13.647  13.689  13.704  13.712
 13.726  13.739  13.754  13.782  13.811  13.816  13.828  13.857
 13.883  13.897  13.904  13.908  13.916  13.931  13.936  13.949
 13.950  13.966  13.989  14.012  14.027  14.029  14.039  14.058
 14.067  14.088  14.148  14.151  14.170  14.181  14.183  14.191
 14.199  14.211  14.218  14.236  14.260  14.261  14.273  14.274
 14.291  14.300  14.329  14.332  14.342  14.366  14.375  14.524
 14.534  14.537  14.559  14.579  14.591  14.602  14.603  14.607
 14.608  14.627  14.628  19.493  19.602
 --------------------------------------------------------------
 
          Ground-State Mulliken Net Atomic Charges

     Atom                 Charge (a.u.)    Spin (a.u.)
  --------------------------------------------------------
      1 C                     0.094256       0.000017
      2 C                     0.327345      -0.000006
      3 N                    -0.730363       0.000040
      4 C                     0.323268      -0.000011
      5 C                     0.094059       0.000025
      6 C                    -0.415339      -0.000009
      7 C                     0.115968       0.000043
      8 C                    -0.287482      -0.000024
      9 C                    -0.281158       0.000040
     10 C                    -0.414818      -0.000005
     11 C                     0.115912       0.000035
     12 C                    -0.287376      -0.000020
     13 C                    -0.284204       0.000035
     14 C                     0.297432       0.000733
     15 C                    -0.357846      -0.000806
     16 C                     0.043067       0.002898
     17 C                    -0.186514      -0.022297
     18 C                     0.035558       0.002766
     19 C                    -0.354018      -0.000802
     20 B                     0.586681       0.275678
     21 C                    -0.143982       0.054548
     22 C                    -0.391490      -0.053984
     23 C                     0.058017       0.088698
     24 C                     0.081405       0.043267
     25 C                    -0.410179      -0.019384
     26 C                    -0.139922       0.016509
     27 C                     0.185625      -0.042836
     28 C                    -0.075315       0.023110
     29 C                     0.186173      -0.055044
     30 C                     0.237443      -0.038612
     31 C                    -0.358451       0.066544
     32 C                    -0.216763      -0.046543
     33 C                    -0.407837       0.070811
     34 C                    -0.398256       0.086102
     35 C                    -0.219034      -0.053083
     36 C                    -0.355976       0.079652
     37 B                     0.567226       0.338550
     38 C                    -0.135957       0.019633
     39 C                    -0.407356      -0.021314
     40 C                     0.084529       0.045447
     41 C                     0.056282       0.089326
     42 C                    -0.394736      -0.054321
     43 C                    -0.147252       0.054395
     44 C                     0.185263      -0.055639
     45 C                    -0.074175       0.023476
     46 C                     0.185170      -0.043731
     47 C                     0.238993      -0.039443
     48 C                    -0.356646       0.081147
     49 C                    -0.218554      -0.053982
     50 C                    -0.398637       0.087543
     51 C                    -0.408847       0.072707
     52 C                    -0.216600      -0.047697
     53 C                    -0.359559       0.068476
     54 C                    -0.756666       0.000663
     55 C                    -0.761037       0.000587
     56 C                    -0.143088       0.084189
     57 C                     0.029142      -0.030869
     58 C                    -0.354061       0.050853
     59 C                     0.291668      -0.007415
     60 C                    -0.345847       0.052946
     61 C                     0.038241      -0.031822
     62 N                    -0.653326       0.381027
     63 C                     0.321217      -0.102524
     64 C                     0.139664       0.097034
     65 C                     0.136605       0.099462
     66 C                     0.323745      -0.102927
     67 C                    -0.397533      -0.022144
     68 C                     0.146900       0.198944
     69 C                    -0.279920      -0.121310
     70 C                    -0.235958       0.184711
     71 C                    -0.397055      -0.024216
     72 C                     0.146914       0.201422
     73 C                    -0.280274      -0.122632
     74 C                    -0.236169       0.185495
     75 C                    -0.758199       0.004345
     76 C                    -0.753996       0.004616
     77 H                     0.291687      -0.009735
     78 H                     0.261708       0.005426
     79 H                     0.290620      -0.009778
     80 H                     0.261233       0.005490
     81 C                    -0.713675      -0.016550
     82 H                     0.247792       0.000851
     83 C                    -0.713639      -0.016355
     84 H                     0.247462       0.000766
     85 H                     0.252596      -0.002586
     86 H                     0.253055      -0.002449
     87 H                     0.234550       0.001910
     88 H                     0.268298      -0.001209
     89 H                     0.267210      -0.002192
     90 H                     0.233327       0.001747
     91 H                     0.267715      -0.002307
     92 H                     0.263358      -0.000991
     93 H                     0.197881      -0.000138
     94 H                     0.221201       0.002095
     95 H                     0.227381      -0.005159
     96 H                     0.211353      -0.004346
     97 H                     0.232115       0.002616
     98 H                     0.224138      -0.004851
     99 H                     0.224788       0.002363
    100 H                     0.224803      -0.004049
    101 H                     0.223552       0.002075
    102 H                     0.197752      -0.000146
    103 H                     0.212708      -0.004228
    104 H                     0.227636      -0.005073
    105 H                     0.224941      -0.003930
    106 H                     0.225665       0.002307
    107 H                     0.232380       0.002573
    108 H                     0.224251      -0.004759
    109 H                     0.232558       0.000357
    110 H                     0.235715       0.000322
    111 H                     0.245555      -0.000002
    112 H                     0.220472       0.000001
    113 H                     0.247684      -0.000002
    114 H                     0.220954       0.000001
    115 C                    -0.711052      -0.000004
    116 H                     0.210764       0.000001
    117 C                    -0.711234      -0.000003
    118 H                     0.211135       0.000000
    119 H                     0.234436       0.001580
    120 H                     0.249397      -0.000820
    121 H                     0.248978      -0.000741
    122 H                     0.232883       0.001481
    123 H                     0.246197      -0.000628
    124 H                     0.249287      -0.000740
    125 H                     0.226279       0.000000
    126 H                     0.230981       0.000002
    127 H                     0.230813       0.000002
    128 H                     0.226215       0.000000
    129 H                     0.230904       0.000002
    130 H                     0.230969       0.000002
    131 H                     0.243630       0.000260
    132 H                     0.260298       0.011585
    133 H                     0.260130       0.011389
    134 H                     0.243902       0.000264
    135 H                     0.260314       0.011695
    136 H                     0.259998       0.011514
  --------------------------------------------------------
  Sum of atomic charges =    -0.000000
  Sum of spin   charges =     2.000000

 -----------------------------------------------------------------
                    Cartesian Multipole Moments
 -----------------------------------------------------------------
    Charge (ESU x 10^10)
                -0.0000
    Dipole Moment (Debye)
         X      24.7969      Y       5.2859      Z      24.0325
       Tot      34.9341
    Quadrupole Moments (Debye-Ang)
        XX    -570.3142     XY     -26.1296     YY    -473.0520
        XZ    -119.2158     YZ     -24.8382     ZZ    -550.1733
    Octopole Moments (Debye-Ang^2)
       XXX    8585.7938    XXY     894.0879    XYY    2545.4729
       YYY    1816.7820    XXZ    2952.1929    XYZ     194.3171
       YYZ    2156.9624    XZZ    3245.3942    YZZ     838.0307
       ZZZ    7564.8190
    Hexadecapole Moments (Debye-Ang^3)
      XXXX -154444.7173   XXXY  -14891.7429   XXYY  -29331.9648
      XYYY  -10984.4890   YYYY  -25564.2694   XXXZ  -57852.9480
      XXYZ   -8350.6792   XYYZ  -17770.7108   YYYZ  -20064.3524
      XXZZ  -49344.4418   XYZZ   -5091.2657   YYZZ  -22587.7432
      XZZZ  -58854.6766   YZZZ  -21391.4937   ZZZZ -124373.2069
 -----------------------------------------------------------------
 Calculating analytic gradient of the SCF energy
 -2.520215208063294E-004 -2.520079544808800E-004
 -2.519833865951038E-004 -2.520460773160213E-004
 -2.520019593215830E-004 -2.520275703532520E-004
 -2.520167242693412E-004 -2.520127681850464E-004
 -2.520393088689716E-004 -2.519901505807458E-004
 -2.520275873605273E-004 -2.520019491489740E-004
 -2.520203345513587E-004 -2.520091693339692E-004
 -2.520098378718839E-004 -2.520196329679176E-004
 -2.520045561094472E-004 -2.520249928073073E-004
 -2.520459660173735E-004 -2.519835226114646E-004
 -2.520126962525742E-004 -2.520167704290386E-004
 -2.520228393003767E-004 -2.520066918511203E-004
 -2.519852070363987E-004 -2.520442812774018E-004
 -2.520305128250483E-004 -2.519989467657414E-004
 -2.520051070116426E-004 -2.520244177664584E-004
 -2.520263360649509E-004 -2.520031323799293E-004
 -2.520088901137858E-004 -2.520205853982765E-004
 -2.520165874822872E-004 -2.520129324833100E-004
 -2.519973858870898E-004 -2.520321119819309E-004
 -2.520285216570886E-004 -2.520009518477277E-004
 -2.520121738973177E-004 -2.520173387063045E-004
 -2.520480626255707E-004 -2.519814108297767E-004
 -2.520002088637839E-004 -2.520292728347762E-004
 -2.520242197446774E-004 -2.520053044714300E-004
 -2.520208050324273E-004 -2.520086800016924E-004
 -2.520298441123570E-004 -2.519996263967835E-004
 -2.520213922896590E-004 -2.520081436941654E-004
 -2.520037866351425E-004 -2.520256889533766E-004
 -2.520256659032627E-004 -2.520037960800107E-004
 -2.520174663472071E-004 -2.520120565438682E-004
 -2.520240303649470E-004 -2.520054370301686E-004
 -2.519946233123729E-004 -2.520348573691194E-004
 -2.520125416103808E-004 -2.520169773270499E-004
 -2.520049048634134E-004 -2.520245721088329E-004
 -2.520431031417982E-004 -2.519863677182548E-004
 -2.520301600944848E-004 -2.519993605047970E-004
 -2.520351815100247E-004 -2.519942907298773E-004
 -2.520085610711391E-004 -2.520209043097112E-004
 -2.520259679140539E-004 -2.520035791297537E-004
 -2.520507821585132E-004 -2.519786863745978E-004
 -2.520320833935532E-004 -2.519973775550114E-004
 -2.520446730046077E-004 -2.519848131649451E-004
 -2.520027524258545E-004 -2.520267143330314E-004
 -2.520044322179876E-004 -2.520250089139582E-004
 -2.519887160972157E-004 -2.520407629034512E-004
 -2.520546316476102E-004 -2.519748367600958E-004
 -2.520448954186826E-004 -2.519845613223574E-004
 -2.520234406222615E-004 -2.520060232527050E-004
 -2.519916829330842E-004 -2.520377816038207E-004
 -2.520013963914739E-004 -2.520280718196189E-004
 -2.520032534777326E-004 -2.520262131325375E-004
 -2.520400474277797E-004 -2.519894215559542E-004
 -2.520103025537650E-004 -2.520191506782023E-004
 -2.520653075428498E-004 -2.519641561012457E-004
 -2.519822910492875E-004 -2.520471961723374E-004
 -2.519992359690290E-004 -2.520302175582725E-004
 -2.520147771953246E-004 -2.520146657698328E-004
 -2.520167198935836E-004 -2.520127593882735E-004
 -2.520123356605179E-004 -2.520171924363217E-004
 -2.520103787385320E-004 -2.520191215063286E-004
 -2.519995164797027E-004 -2.520299609260378E-004
 -2.520130088438783E-004 -2.520165352835450E-004
 -2.519948992344688E-004 -2.520346010114394E-004
 -2.520176582233277E-004 -2.520118109038473E-004
 -2.520200387966053E-004 -2.520095025583979E-004
 -2.520161441479285E-004 -2.520133631247242E-004
 -2.519890657473030E-004 -2.520404130433191E-004
 -2.520263362684473E-004 -2.520031947113777E-004
 -2.520064074966653E-004 -2.520230902003056E-004
 -2.520228901722261E-004 -2.520065831972458E-004
 -2.520272886209128E-004 -2.520022464489341E-004
 -2.520312205850998E-004 -2.519982883332520E-004
 -2.520036001110515E-004 -2.520258820818408E-004
 -2.520224118583173E-004 -2.520071267263921E-004
 -2.520143334432355E-004 -2.520151679148900E-004
 -2.520379161789707E-004 -2.519915592618154E-004
 -2.520159549265482E-004 -2.520135852542594E-004
 -2.520211917846670E-004 -2.520083128277880E-004
 -2.520136868883990E-004 -2.520157922437347E-004
 -2.520262706929554E-004 -2.520032582580347E-004
 -2.520276657267977E-004 -2.520018229154857E-004
 -2.520055720513103E-004 -2.520239289969261E-004
 -2.520224757704804E-004 -2.520070516322043E-004
 -2.520214583613056E-004 -2.520080497991921E-004
 -2.520010583470735E-004 -2.520284063740962E-004
 -2.520241052126999E-004 -2.520054278817449E-004
 -2.520146801598233E-004 -2.520148196746007E-004
 -2.520266789268815E-004 -2.520027910135172E-004
 -2.519923483987752E-004 -2.520371635496887E-004
 -2.519994112815229E-004 -2.520300752290200E-004
 -2.520040031097233E-004 -2.520254588014600E-004
 -2.520240173234411E-004 -2.520054842317418E-004
 -2.520247676941421E-004 -2.520047262019577E-004
 -2.520335247359273E-004 -2.519959455302587E-004
 -2.519997550502532E-004 -2.520297639482462E-004
 -2.520116998732829E-004 -2.520177798413874E-004
 -2.520144313281014E-004 -2.520150418721168E-004
 -2.520303801259417E-004 -2.519991459517460E-004
 -2.520388863227367E-004 -2.519906262981587E-004
 -2.519854422285817E-004 -2.520440494343862E-004
 -2.520282047252619E-004 -2.520013117363407E-004
 -2.520114792615202E-004 -2.520180188219042E-004
 -2.520130076485139E-004 -2.520164466552792E-004
 -2.520009698508106E-004 -2.520285505696467E-004
 -2.519984455122097E-004 -2.520310469784555E-004
 -2.520107965766944E-004 -2.520187042046192E-004
 -2.520242042480750E-004 -2.520052898168315E-004
 -2.520303778703955E-004 -2.519991052837640E-004
 -2.520127071274127E-004 -2.520167754984686E-004
 -2.520177495858625E-004 -2.520117772513706E-004
 -2.520167266712804E-004 -2.520127729706395E-004
 -2.520314514025061E-004 -2.519980228617182E-004
 -2.520219955205717E-004 -2.520075472513252E-004
 -2.520302011275758E-004 -2.519992991274101E-004
 -2.520141388339563E-004 -2.520153270505988E-004
 -2.520123384461387E-004 -2.520172110703735E-004
 -2.520094994391110E-004 -2.520200060460750E-004
 -2.520410411826223E-004 -2.519884303146304E-004
 -2.520108086385747E-004 -2.520187385599412E-004
 -2.520193795279769E-004 -2.520101100499315E-004
 -2.520093737201600E-004 -2.520200905408736E-004
 -2.520052247336588E-004 -2.520243268906830E-004
 -2.519956171795745E-004 -2.520338828595772E-004
 -2.520260225723645E-004 -2.520034547299832E-004
 -2.520104082389512E-004 -2.520191402907904E-004
 -2.520124241725146E-004 -2.520170721170820E-004
 -2.519946698242353E-004 -2.520347999904579E-004
 -2.520177703278322E-004 -2.520117760908174E-004
 -2.520035409544362E-004 -2.520259645404558E-004
 -2.520156957802870E-004 -2.520137712590418E-004
 -2.520062756439995E-004 -2.520232695118817E-004
 -2.520017169375663E-004 -2.520277663978805E-004
 -2.520238856393935E-004 -2.520055980185830E-004
 -2.520062022685017E-004 -2.520233506028114E-004
 -2.520081048116230E-004 -2.520213941941062E-004
 -2.520305824959598E-004 -2.519988767495322E-004
 -2.520097006139174E-004 -2.520198462090082E-004
 -2.520140685055300E-004 -2.520154210710007E-004
 -2.519949928990470E-004 -2.520344680150422E-004
 -2.520300861491946E-004 -2.519994438878886E-004
 -2.520340877193424E-004 -2.519953903412759E-004
 -2.520284932619415E-004 -2.520009520902184E-004
 -2.520046084591388E-004 -2.520249212376127E-004
 -2.520092833492330E-004 -2.520202014519752E-004
 -2.519914070828047E-004 -2.520380535801390E-004
 -2.520220958833240E-004 -2.520074383391247E-004
 -2.520194707535447E-004 -2.520099997217669E-004
 -2.520157079446097E-004 -2.520137512998282E-004
 -2.519970065793077E-004 -2.520325429540073E-004
 -2.519914431149448E-004 -2.520380605972819E-004
 -2.520439840891942E-004 -2.519855010337659E-004
 -2.520054172121070E-004 -2.520241243777228E-004
 -2.520139600775852E-004 -2.520155241402103E-004
 -2.520120940011232E-004 -2.520173547578851E-004
 -2.520268561123941E-004 -2.520026812662870E-004
 -2.520351780723862E-004 -2.519943020430365E-004
 -2.520205192789759E-004 -2.520089529886126E-004
 -2.520024494003773E-004 -2.520270783559272E-004
 -2.520021229704328E-004 -2.520273444169424E-004
 -2.520154199671358E-004 -2.520140576000967E-004
 -2.519979346460848E-004 -2.520315234989842E-004
 -2.520274377580773E-004 -2.520020136175868E-004
 -2.520187561498072E-004 -2.520107234266015E-004
 -2.520223068379062E-004 -2.520071385689772E-004
 -2.520057779826443E-004 -2.520236806607579E-004
 -2.520313680583398E-004 -2.519980995390118E-004
 -2.520111265452059E-004 -2.520183429377499E-004
 -2.520370990734900E-004 -2.519923698765586E-004
 -2.519746091722801E-004 -2.520548667575353E-004
 -2.519857994028752E-004 -2.520436594498523E-004
 -2.519890806464118E-004 -2.520403787741425E-004
 -2.520372839967475E-004 -2.519921901119045E-004
 -2.519970029476235E-004 -2.520324329912404E-004
 -2.520372598298026E-004 -2.519922210382182E-004
 -2.519825191216381E-004 -2.520469442969253E-004
 -2.520110056232997E-004 -2.520184892411246E-004
 -2.519781647697484E-004 -2.520512965388085E-004
 -2.520285854527525E-004 -2.520008921208554E-004
 -2.520292249087819E-004 -2.520002264129854E-004
 -2.520384362464174E-004 -2.519910281046498E-004
 -2.519907222357665E-004 -2.520387454769317E-004
 -2.520353346113263E-004 -2.519941282291468E-004
 -2.519717061283474E-004 -2.520577606469631E-004
 -2.520168161728225E-004 -2.520126620605791E-004
 -2.520141690989222E-004 -2.520153972716517E-004
 -2.520234276670324E-004 -2.520060492508651E-004
 -2.519838826850676E-004 -2.520455787310140E-004
 -2.520141385997186E-004 -2.520154150041778E-004
 -2.520091745090774E-004 -2.520202914822782E-004
 -2.520497798187757E-004 -2.519796836357475E-004
 -2.520168637963939E-004 -2.520126817830819E-004
 -2.520087800580498E-004 -2.520206805545177E-004
 -2.520022622479151E-004 -2.520271970009414E-004
 -2.520181641649343E-004 -2.520113845667765E-004
 -2.520483471352041E-004 -2.519811128233849E-004
 -2.520159509504480E-004 -2.520135199145430E-004
 -2.520061612347514E-004 -2.520233944336468E-004
 -2.519863239136933E-004 -2.520431320782434E-004
 -2.520020528440422E-004 -2.520273948558036E-004
 -2.520166134982982E-004 -2.520129306001489E-004
 -2.520190119104442E-004 -2.520104587193971E-004
 -2.520352450804557E-004 -2.519942342840457E-004
 -2.520165147751868E-004 -2.520130165920929E-004
 -2.520044546688390E-004 -2.520250106075617E-004
 -2.519778781910278E-004 -2.520515763748435E-004
 -2.520167352560114E-004 -2.520128080675151E-004
 -2.520194336116844E-004 -2.520100379977014E-004
 -2.520150718571736E-004 -2.520143908382032E-004
 -2.520149489192736E-004 -2.520146078831665E-004
 -2.519960101288511E-004 -2.520334533450747E-004
 -2.520257348908613E-004 -2.520037320109669E-004
 -2.520127319276784E-004 -2.520168132264500E-004
 -2.520051139391955E-004 -2.520243352765231E-004
 -2.520008637989889E-004 -2.520285981935033E-004
 -2.520155685298501E-004 -2.520139648418452E-004
 -2.520327649424377E-004 -2.519967051790663E-004
 -2.520288236879190E-004 -2.520006500331887E-004
 -2.520068052865885E-004 -2.520227389420048E-004
 -2.519828039602931E-004 -2.520466472340332E-004
 -2.519921280480540E-004 -2.520373313051115E-004
 -2.520071803349961E-004 -2.520223805837451E-004
 -2.520151257460457E-004 -2.520143391611585E-004
 -2.520153134669970E-004 -2.520141639846737E-004
 -2.520238526397219E-004 -2.520055865801245E-004
 -2.520094664911813E-004 -2.520200006629202E-004
 -2.520043680653934E-004 -2.520250996085515E-004
 -2.519983525567724E-004 -2.520310829834921E-004
 -2.520226626369636E-004 -2.520068207997233E-004
 -2.519910491522769E-004 -2.520383977350728E-004
 -2.520087575143948E-004 -2.520207572430423E-004
 -2.520121418428157E-004 -2.520173486523327E-004
 -2.520105082819912E-004 -2.520189457478418E-004
 -2.520095778214904E-004 -2.520199038606983E-004
 -2.520046619130522E-004 -2.520247862920167E-004
 -2.520158577099553E-004 -2.520136286850089E-004
 -2.520127630874048E-004 -2.520167521114437E-004
 -2.519922600441133E-004 -2.520371858834168E-004
 -2.520027163826371E-004 -2.520267395103922E-004
 -2.520157405631787E-004 -2.520137381416438E-004
 -2.520099221126041E-004 -2.520195298405208E-004
 -2.520456436225361E-004 -2.519838022688470E-004
 -2.520163140254442E-004 -2.520131773966892E-004
 -2.520053280096880E-004 -2.520241228006233E-004
 -2.520133729107421E-004 -2.520161054726682E-004
 -2.520183406743179E-004 -2.520111644046116E-004
 -2.520341253610321E-004 -2.519953024927109E-004
 -2.519997396057281E-004 -2.520297055929404E-004
 -2.520186514862533E-004 -2.520108399087520E-004
 -2.520435047362229E-004 -2.519859473835449E-004
 -2.520356466129040E-004 -2.519937806899449E-004
 -2.520168899057400E-004 -2.520126179316305E-004
 -2.520159278178813E-004 -2.520135499577537E-004
 -2.520004364879501E-004 -2.520290445586785E-004
 -2.520305312775024E-004 -2.519989030606542E-004
 -2.520091279811249E-004 -2.520203298326274E-004
 -2.520090862967878E-004 -2.520203722258954E-004
 -2.520002027768243E-004 -2.520292183006073E-004
 -2.520019509645689E-004 -2.520275285100363E-004
 -2.520043009143462E-004 -2.520251731631970E-004
 -2.520183566058469E-004 -2.520110746183147E-004
 -2.519979823280443E-004 -2.520314919208530E-004
 -2.519986734592849E-004 -2.520307902907294E-004
 -2.520227026927607E-004 -2.520067623337658E-004
 -2.520163817724145E-004 -2.520130789100761E-004
 -2.520174603485664E-004 -2.520120075023863E-004
 -2.520083180426618E-004 -2.520211429028340E-004
 -2.520020983473350E-004 -2.520273803446611E-004
 -2.520036246273852E-004 -2.520258532062040E-004
 -2.520103301435633E-004 -2.520191099025116E-004
 -2.520125718946946E-004 -2.520169042577876E-004
 -2.520036941584163E-004 -2.520257830944336E-004
 -2.520196783155682E-004 -2.520097725968272E-004
 -2.520167591295598E-004 -2.520127147880668E-004
 -2.520167522170621E-004 -2.520127062117962E-004
 -2.520067415063919E-004 -2.520227255134683E-004
 -2.520051148540729E-004 -2.520243477816400E-004
 -2.520340104261201E-004 -2.519954567138285E-004
 -2.520162483361531E-004 -2.520132704669142E-004
 -2.520257127843870E-004 -2.520037779343442E-004
 -2.520003148489078E-004 -2.520291590607293E-004
 -2.520076761561875E-004 -2.520218380140570E-004
 -2.519991545586419E-004 -2.520303340345285E-004
 -2.520142881598473E-004 -2.520151753786924E-004
 -2.520077155032954E-004 -2.520217873567479E-004
 -2.520045381621264E-004 -2.520249394295615E-004
 -2.520281990241691E-004 -2.520012734170891E-004
 -2.520156995361768E-004 -2.520137988618368E-004
 -2.520107347223491E-004 -2.520187401512022E-004
 -2.520200707818520E-004 -2.520093829981263E-004
 -2.520069958985899E-004 -2.520224836174688E-004
 -2.520096076891871E-004 -2.520198481109077E-004
 -2.520046198590154E-004 -2.520248356751165E-004
 -2.520225041102983E-004 -2.520069891665932E-004
 -2.520257418780957E-004 -2.520037393717236E-004
 -2.520219294587594E-004 -2.520075172187616E-004
 -2.520097923091160E-004 -2.520196858663481E-004
 -2.520098354923347E-004 -2.520196265770057E-004
 -2.520032400239324E-004 -2.520262358831847E-004
 -2.520219077385226E-004 -2.520075830741482E-004
 -2.520247714803904E-004 -2.520046917458276E-004
 -2.519978730379813E-004 -2.520315931069343E-004
 -2.520180956534832E-004 -2.520114173125314E-004
 -2.520021581662087E-004 -2.520273356599172E-004
 -2.520289877405924E-004 -2.520004876663541E-004
 -2.520187339744444E-004 -2.520107825769675E-004
 -2.520322955380682E-004 -2.519971908876297E-004
 -2.520155517000689E-004 -2.520139131764098E-004
 -2.520193007401194E-004 -2.520101940105468E-004
 -2.520262480964396E-004 -2.520032336704041E-004
 -2.520059396301038E-004 -2.520235416503239E-004
 -2.520290053311983E-004 -2.520004817856914E-004
 -2.520123149032258E-004 -2.520171608430784E-004
 -2.520214661307683E-004 -2.520080047185196E-004
 -2.520014672411180E-004 -2.520280020208486E-004
 -2.520063458013467E-004 -2.520231434907217E-004
 -2.520088210453495E-004 -2.520206414935648E-004
 -2.520193725561090E-004 -2.520101031841245E-004
 -2.520231006355742E-004 -2.520063551034871E-004
 -2.520083907918781E-004 -2.520210523372073E-004
 -2.520206597901466E-004 -2.520088212697173E-004
 -2.520175000234434E-004 -2.520119603976036E-004
 -2.520218424923690E-004 -2.520076477681288E-004
 -2.520010808250314E-004 -2.520283829096872E-004
 -2.520079373309965E-004 -2.520215413191580E-004
 -2.520343115986100E-004 -2.519951536485174E-004
 -2.520162843779388E-004 -2.520131520670972E-004
 -2.520099111527124E-004 -2.520195573666330E-004
 -2.520177173096500E-004 -2.520117582056290E-004
 -2.520178722631569E-004 -2.520115817105149E-004
 -2.520353536343303E-004 -2.519940755758982E-004
 -2.520185086199374E-004 -2.520109743491654E-004
 -2.520345897774461E-004 -2.519948617690083E-004
 -2.520208828674948E-004 -2.520086262238380E-004
 -2.520259678727975E-004 -2.520034943721620E-004
 -2.520146909651663E-004 -2.520147723777268E-004
 -2.520198563433918E-004 -2.520096090123279E-004
 -2.520350475706552E-004 -2.519944135401345E-004
 -2.520105453135150E-004 -2.520189476784326E-004
 -2.520258964721745E-004 -2.520036110521421E-004
 -2.520182765602474E-004 -2.520111812916620E-004
 -2.520180613042200E-004 -2.520113945405687E-004
 -2.520257202676863E-004 -2.520037535273784E-004
 -2.520248359232944E-004 -2.520046143797912E-004
 -2.519828140019331E-004 -2.520466472996710E-004
 -2.520079140312826E-004 -2.520215609122483E-004
 -2.519941448285760E-004 -2.520352920613952E-004
 -2.520200846581436E-004 -2.520094021743273E-004
 -2.520083612936911E-004 -2.520211295450806E-004
 -2.519869931548142E-004 -2.520424533822712E-004
 -2.520319418361124E-004 -2.519975150395259E-004
 -2.520123503382996E-004 -2.520171346304899E-004
 -2.520122141019385E-004 -2.520172634451693E-004
 -2.519968819101635E-004 -2.520325655262154E-004
 -2.520065292689985E-004 -2.520229563490189E-004
 -2.520292452390778E-004 -2.520002354212282E-004
 -2.520256038815550E-004 -2.520038420480554E-004
 -2.520201825247996E-004 -2.520092695799978E-004
 -2.520132669043631E-004 -2.520161999801127E-004
 -2.520247056389901E-004 -2.520047658225521E-004
 -2.520244547711147E-004 -2.520050184640386E-004
 -2.520306089294499E-004 -2.519988618420817E-004
 -2.520088897664608E-004 -2.520205627867257E-004
 -2.520108941217335E-004 -2.520185692477903E-004
 -2.520226656931136E-004 -2.520068125377941E-004
 -2.520088371513263E-004 -2.520206163788205E-004
 -2.520232520185200E-004 -2.520062100174018E-004
 -2.520133366125077E-004 -2.520161307774220E-004
 -2.520201710271262E-004 -2.520092847578463E-004
 -2.520260667148883E-004 -2.520034035295004E-004
 -2.520270333081142E-004 -2.520024351554817E-004
 -2.520090688225205E-004 -2.520204003344877E-004
 -2.520136026080767E-004 -2.520158562937253E-004
 -2.520149368956205E-004 -2.520145231615023E-004
 -2.520087069362982E-004 -2.520207396274673E-004
 -2.520129352379510E-004 -2.520165373957642E-004
 -2.520186720697768E-004 -2.520107808992834E-004
 -2.520060929076423E-004 -2.520233728668262E-004
 -2.520203479218965E-004 -2.520091115300802E-004
 -2.520246013937165E-004 -2.520048443150675E-004
 -2.520127243132297E-004 -2.520167469445877E-004
 -2.520110882773409E-004 -2.520183761188632E-004
 -2.520062430583073E-004 -2.520232019374704E-004
 -2.520185452599665E-004 -2.520109161569693E-004
 -2.520127338906507E-004 -2.520167414779061E-004
 -2.520145938390635E-004 -2.520148688540801E-004
 -2.520246038972570E-004 -2.520048525149930E-004
 -2.520127436613990E-004 -2.520167144687864E-004
 -2.520110465350404E-004 -2.520184072313671E-004
 -2.520219645309918E-004 -2.520075031246665E-004
 -2.520221643074715E-004 -2.520072879238593E-004
 -2.520225833646868E-004 -2.520068540640968E-004
 -2.520155905439374E-004 -2.520138919521516E-004
 -2.520135285868219E-004 -2.520159323722275E-004
 -2.520187588221698E-004 -2.520107075814525E-004
 -2.520197876154430E-004 -2.520096773508600E-004
 -2.520066664837544E-004 -2.520227792897383E-004
 -2.520177807715567E-004 -2.520116794385693E-004
 -2.520083623414973E-004 -2.520211009431149E-004
 -2.520068558371369E-004 -2.520225993440446E-004
 -2.520129203219531E-004 -2.520165362784409E-004
 -2.520158343843453E-004 -2.520136459310092E-004
 -2.520207584914064E-004 -2.520086848989866E-004
 -2.520074591578638E-004 -2.520219936461997E-004
 -2.520083112346468E-004 -2.520211530722011E-004
 -2.520186067263372E-004 -2.520108565728118E-004
 -2.520057491702782E-004 -2.520237030254731E-004
 -2.520206578304611E-004 -2.520088073536950E-004
 -2.520162584165951E-004 -2.520132029496986E-004
 Gradient of SCF Energy
            1           2           3           4           5           6
    1  -0.0071620  -0.0020940  -0.0026496   0.0013727   0.0022483  -0.0029041
    2   0.0038156   0.0016069  -0.0014120  -0.0027382  -0.0076429  -0.0047680
    3  -0.0003923   0.0002607  -0.0020545  -0.0002167  -0.0020721  -0.0040046
            7           8           9          10          11          12
    1   0.0008858  -0.0011844  -0.0003347  -0.0062050  -0.0170008  -0.0075128
    2  -0.0174615  -0.0070712   0.0015411   0.0000394   0.0092531   0.0025691
    3  -0.0085991  -0.0042253   0.0002764  -0.0030059  -0.0033007  -0.0024083
           13          14          15          16          17          18
    1   0.0011643   0.0028979   0.0004081  -0.0028959  -0.0018446  -0.0015524
    2  -0.0010675   0.0014773  -0.0012573  -0.0032628  -0.0011067   0.0015905
    3   0.0002430   0.0019216   0.0001226   0.0006450  -0.0014357  -0.0044171
           19          20          21          22          23          24
    1  -0.0001137  -0.0058116   0.0193464  -0.0099689   0.0101580  -0.0118792
    2   0.0015906  -0.0022661  -0.0085342   0.0065126   0.0034493  -0.0029127
    3  -0.0000575  -0.0041176  -0.0026277   0.0037506   0.0106663  -0.0106317
           25          26          27          28          29          30
    1  -0.0069438  -0.0009107   0.0052202  -0.0024731   0.0028753   0.0003251
    2   0.0082973  -0.0138569  -0.0046218   0.0018009  -0.0062957  -0.0004287
    3   0.0078116  -0.0214165  -0.0030289   0.0013046  -0.0065931  -0.0004112
           31          32          33          34          35          36
    1  -0.0015069  -0.0010621  -0.0049617   0.0012681   0.0017223  -0.0031717
    2   0.0024205  -0.0013363   0.0009201   0.0026444  -0.0007960   0.0023470
    3   0.0022380  -0.0023232  -0.0017449   0.0041418  -0.0000411   0.0011599
           37          38          39          40          41          42
    1   0.0136764  -0.0237692   0.0090551  -0.0123420   0.0125662   0.0043465
    2   0.0015928   0.0088083  -0.0074937  -0.0024604   0.0015997  -0.0076552
    3   0.0133762  -0.0003020  -0.0066591  -0.0102309   0.0090849  -0.0091266
           43          44          45          46          47          48
    1  -0.0019155  -0.0076089   0.0014918  -0.0037918  -0.0004928   0.0014840
    2   0.0131317   0.0045694  -0.0020488   0.0042981   0.0003747  -0.0024356
    3   0.0171428   0.0032254  -0.0022503   0.0049004   0.0003455  -0.0031237
           49          50          51          52          53          54
    1  -0.0000905   0.0052615  -0.0022785  -0.0028060   0.0026933   0.0031975
    2   0.0010610  -0.0010071  -0.0021421   0.0004428  -0.0018687   0.0025048
    3   0.0016168   0.0011869  -0.0049663  -0.0008948  -0.0016840   0.0012448
           55          56          57          58          59          60
    1   0.0023499   0.0017313  -0.0046995   0.0042130   0.0014691  -0.0093281
    2  -0.0002529   0.0001933   0.0034386   0.0055005   0.0009753  -0.0065941
    3   0.0032958   0.0012329  -0.0074636  -0.0104849   0.0016768   0.0052574
           61          62          63          64          65          66
    1  -0.0066251  -0.0054232  -0.0002879   0.0091362  -0.0234527   0.0015157
    2  -0.0048789  -0.0026433   0.0039777  -0.0022038  -0.0006785  -0.0032175
    3  -0.0037603  -0.0051246  -0.0005668  -0.0232460   0.0082678   0.0008121
           67          68          69          70          71          72
    1  -0.0172088   0.0091553   0.0044611   0.0094110   0.0258257   0.0245272
    2   0.0033915   0.0049249   0.0021669  -0.0001740  -0.0009946   0.0030281
    3   0.0243026   0.0246772   0.0093754  -0.0006985  -0.0152150   0.0106450
           73          74          75          76          77          78
    1   0.0094494  -0.0015103  -0.0028168  -0.0041530  -0.0059636  -0.0074268
    2   0.0010181   0.0018292   0.0021993  -0.0036800  -0.0012274   0.0004498
    3   0.0053139   0.0094439  -0.0049925  -0.0022107  -0.0025790   0.0040180
           79          80          81          82          83          84
    1  -0.0024155   0.0046618  -0.0285378   0.0050491  -0.0044043   0.0092376
    2  -0.0006865  -0.0010156  -0.0026071   0.0020581  -0.0051851   0.0010787
    3  -0.0064504  -0.0072267  -0.0060995   0.0095071  -0.0283667   0.0055636
           85          86          87          88          89          90
    1   0.0042185   0.0008181  -0.0000145   0.0000734   0.0006704   0.0011973
    2   0.0037684  -0.0027235  -0.0009741  -0.0012924  -0.0010765   0.0014606
    3   0.0002454   0.0046932   0.0013600   0.0019296   0.0017021  -0.0000764
           91          92          93          94          95          96
    1   0.0012119   0.0016930  -0.0007746   0.0036032   0.0005120  -0.0000248
    2   0.0016531   0.0015010  -0.0007334   0.0013324   0.0014476   0.0001958
    3   0.0003255  -0.0003214  -0.0013878   0.0036873   0.0024577   0.0005473
           97          98          99         100         101         102
    1   0.0015786   0.0008422   0.0003389   0.0006120   0.0045103  -0.0018299
    2  -0.0001116  -0.0006569  -0.0001936  -0.0003609   0.0006517   0.0001221
    3   0.0005985  -0.0006252  -0.0000172  -0.0002352   0.0031728  -0.0007764
          103         104         105         106         107         108
    1   0.0004390   0.0027895  -0.0003195  -0.0002721   0.0008286  -0.0006852
    2  -0.0002728  -0.0008637   0.0006367   0.0002751   0.0007810   0.0009271
    3  -0.0001690   0.0004580   0.0006024   0.0001708   0.0014293   0.0007589
          109         110         111         112         113         114
    1   0.0011363   0.0024649  -0.0023216   0.0011586  -0.0028038  -0.0019715
    2  -0.0011950   0.0031384  -0.0014937  -0.0023880  -0.0009636   0.0021199
    3   0.0032651  -0.0001419  -0.0020786  -0.0008143  -0.0020430   0.0001088
          115         116         117         118         119         120
    1   0.0038924   0.0022203   0.0192057   0.0017570   0.0021609  -0.0003756
    2   0.0175588   0.0007251  -0.0055428   0.0013317   0.0020731  -0.0027462
    3   0.0109820   0.0014447   0.0063301   0.0015176   0.0001793  -0.0022096
          121         122         123         124         125         126
    1  -0.0034692   0.0011774   0.0000287  -0.0031676   0.0060656   0.0065739
    2   0.0002606  -0.0009415  -0.0015450   0.0014051  -0.0030509  -0.0025113
    3   0.0004389   0.0025146  -0.0031533  -0.0006700   0.0012787   0.0014124
          127         128         129         130         131         132
    1   0.0063117  -0.0000261   0.0003691   0.0006730   0.0107463  -0.0028188
    2  -0.0027831   0.0061898   0.0060754   0.0063994  -0.0004305   0.0061536
    3   0.0019756   0.0030933   0.0036933   0.0031646  -0.0042507  -0.0055178
          133         134         135         136
    1  -0.0022695  -0.0049415  -0.0037105  -0.0044481
    2  -0.0079304   0.0015252  -0.0078769   0.0064481
    3  -0.0029423   0.0103893  -0.0016485  -0.0040549
 Max gradient component =       2.854E-02
 RMS gradient           =       6.254E-03
 Computing fast IEFPCM-SWIG gradient.
 Updating gradient with PCM contributions...
 -- total gradient after adding PCM contribution --
---------------------------------------------------
  Atom         X              Y              Z     
---------------------------------------------------
   1      -0.004659       0.000009      -0.001089
   2      -0.002305       0.001357       0.000011
   3       0.000485       0.000207       0.000361
   4       0.000983      -0.002834      -0.000512
   5      -0.000109      -0.003743      -0.001706
   6      -0.004770      -0.005501      -0.005281
   7       0.000964      -0.021663      -0.010690
   8      -0.000615      -0.009556      -0.005232
   9      -0.000447       0.002069       0.000722
  10      -0.007944      -0.001051      -0.004320
  11      -0.021063       0.011364      -0.004169
  12      -0.009690       0.004301      -0.002523
  13       0.001777      -0.001118       0.000119
  14      -0.000022       0.000189      -0.000381
  15       0.000247      -0.000024       0.000694
  16       0.001069       0.001033      -0.000007
  17      -0.000927      -0.000478      -0.000594
  18       0.000552      -0.000663       0.001005
  19       0.000640       0.000909      -0.000099
  20      -0.008648      -0.003205      -0.006363
[...]
     94  H        -8.8443676288   -0.9869751270   -4.9134075896
     95  H       -11.2007087075    0.1900145308   -4.2458904454
     96  H        -6.7807351760    1.9456090422    0.3712279929
     97  H       -12.9760732562    1.4917215056   -3.1360693927
     98  H       -12.5677192884    2.7568277741   -1.0868088730
     99  H        -8.4711262271    3.2788743428    1.5667101977
    100  H       -10.7753357179    3.4688962610    0.7842248862
    101  H        -5.4468490444   -3.9610341743   -7.2506455849
    102  H        -2.0315395675   -2.8301259062   -3.8127552886
    103  H         0.2223765088   -4.4238245364   -4.3451732101
    104  H        -4.3760688950   -5.8715255722   -8.8938871795
    105  H         1.2171027954   -7.4022218129   -7.2754539786
    106  H         1.7847029410   -6.0616199130   -5.3159100359
    107  H        -2.8994121218   -7.5381512467   -9.9520622613
    108  H        -0.6473978979   -7.9891979740   -9.1208926027
    109  H        -8.3943593914   -0.7824649009   -9.5101745211
    110  H       -10.2047484721   -4.1216540429   -7.5646911383
    111  H       -10.8947321626    0.0336681702   -8.3207001384
    112  H       -12.8338803660    1.4139508395   -8.9265445259
    113  H        -9.1299009165   -4.9490929095  -10.0771453111
    114  H       -10.0103143358   -6.5379908252  -11.7248126505
    115  C       -12.1778880583   -6.3319561461  -13.3263772348
    116  H       -13.2114828147   -3.8821039079  -12.7248765130
    117  C       -14.7562937264    0.9648178723  -10.7754836292
    118  H       -14.0682415403   -1.4341991288  -11.8724100040
    119  H        -9.3035251241   -5.0394222024   -5.6047553835
    120  H        -8.5962381528   -3.8451542789   -4.5176399395
    121  H        -7.5522904742   -4.9054456380   -5.4421362031
    122  H        -6.5022213331    0.2726604995   -8.6375701580
    123  H        -6.3984521565    0.2813264522   -6.8774078905
    124  H        -5.3819274268   -0.8047200787   -7.8047980472
    125  H       -15.3703905247    0.5241785497  -11.5605096353
    126  H       -15.3975877241    1.1178668557   -9.9054191923
    127  H       -14.4422098909    1.9516135917  -11.1202345583
    128  H       -13.0714840875   -5.9762947873  -13.8386389042
    129  H       -11.4305499376   -6.5579133289  -14.0891617163
    130  H       -12.4335287342   -7.2748582128  -12.8391297748
    131  H         1.6354351217    1.9772242890    5.5160384555
    132  H        -0.0774209703    2.3588222316    5.6722810568
    133  H         0.4872066849    0.7274787950    5.9884125924
    134  H         5.6355508491    2.4193260335   -0.6181734822
    135  H         5.6934979976    1.2602817552   -1.9443760328
    136  H         5.0738081677    2.8779223023   -2.2235126475
   Point Group: c1    Number of degrees of freedom:   402


   Energy is  -3082.391112836

 Hessian Updated using BFGS Update

376 Hessian modes will be used to form the next step
  Hessian Eigenvalues:
     0.003701    0.008202    0.008816    0.008842    0.008900    0.009262
     0.010478    0.011034    0.012558    0.014158    0.015158    0.015484
     0.015790    0.015791    0.015812    0.016116    0.016426    0.016923
     0.017114    0.017189    0.017401    0.017572    0.017802    0.017930
     0.018043    0.018234    0.018410    0.018585    0.018720    0.019035
     0.019293    0.019471    0.019598    0.019722    0.019860    0.020047
     0.020258    0.020406    0.020441    0.020481    0.020531    0.020551
     0.020621    0.020658    0.020735    0.020919    0.021017    0.021074
     0.021114    0.021124    0.021243    0.021413    0.021449    0.021503
     0.021578    0.021625    0.021635    0.021676    0.021724    0.021749
     0.021795    0.021923    0.022133    0.022239    0.022274    0.022460
     0.022474    0.022680    0.022727    0.022893    0.023074    0.023106
     0.023119    0.023147    0.023172    0.023290    0.023333    0.023342
     0.023370    0.023385    0.023459    0.023490    0.023581    0.023600
     0.023625    0.023633    0.023658    0.023681    0.023731    0.023753
     0.023807    0.023819    0.023827    0.023863    0.023924    0.024031
     0.024055    0.024058    0.024074    0.024107    0.024126    0.024140
     0.024146    0.024160    0.024174    0.024184    0.024219    0.024242
     0.024311    0.024327    0.024371    0.024514    0.024743    0.024790
     0.024984    0.032013    0.034849    0.071430    0.071464    0.071669
     0.071789    0.072329    0.072408    0.072495    0.072626    0.079757
     0.079851    0.079883    0.079885    0.079886    0.079889    0.079907
     0.080001    0.155369    0.156771    0.158945    0.159482    0.159962
     0.159970    0.159978    0.159986    0.159992    0.159995    0.159996
     0.159996    0.159997    0.159998    0.159999    0.159999    0.159999
     0.159999    0.159999    0.159999    0.160000    0.160000    0.160000
     0.160190    0.160366    0.160623    0.161006    0.161515    0.162918
     0.169193    0.210066    0.219693    0.220574    0.220652    0.222132
     0.222152    0.223718    0.224597    0.224667    0.226401    0.228321
     0.231731    0.232622    0.233781    0.233822    0.234914    0.235095
     0.235158    0.235431    0.236206    0.236723    0.237347    0.237478
     0.238323    0.239747    0.240048    0.240918    0.246104    0.246269
     0.246989    0.247913    0.248709    0.248856    0.248894    0.249152
     0.249378    0.249410    0.249554    0.249648    0.249679    0.249690
     0.249767    0.249812    0.249858    0.249862    0.249901    0.249912
     0.249921    0.249945    0.249954    0.249965    0.249988    0.249997
     0.249998    0.251180    0.251925    0.252496    0.254285    0.257466
     0.260323    0.267758    0.269523    0.271648    0.274105    0.276861
     0.279830    0.294495    0.320824    0.321194    0.321347    0.321889
     0.338102    0.338635    0.341346    0.341985    0.345289    0.345378
     0.345411    0.345478    0.345683    0.345888    0.345906    0.345982
     0.348721    0.348807    0.348882    0.348963    0.349241    0.349275
     0.349279    0.349284    0.349285    0.349285    0.349286    0.349292
     0.349307    0.349328    0.349379    0.349444    0.354107    0.354379
     0.354489    0.354634    0.355073    0.355299    0.355639    0.355938
     0.356081    0.356090    0.356147    0.356186    0.356190    0.356204
     0.356320    0.356425    0.356556    0.356612    0.356659    0.356714
     0.357086    0.357095    0.357145    0.357167    0.357205    0.357226
     0.357346    0.357476    0.357514    0.357573    0.357602    0.358223
     0.368716    0.369540    0.372879    0.374741    0.376560    0.377630
     0.380047    0.382306    0.382458    0.382620    0.390872    0.400361
     0.402127    0.404083    0.407139    0.408882    0.409397    0.413307
     0.414998    0.415241    0.418367    0.421774    0.424194    0.425681
     0.426892    0.427234    0.428544    0.429673    0.431407    0.432482
     0.432789    0.433421    0.434320    0.434549    0.434776    0.436145
     0.436584    0.441566    0.445623    0.445931    0.449831    0.452908
     0.453036    0.453591    0.456695    0.457353    0.459639    0.462372
     0.465885    0.466446    0.468071    0.468518    0.468810    0.470131
     0.470665    0.472983    0.474429    0.474499    0.475851    0.476977
     0.478661    0.478867    0.479611    0.479742    0.480357    0.481699
     0.481933    0.482361    0.482985    0.483286    0.483406    0.483564
     0.483870    0.485565    0.485630    0.485715    0.491151    0.499146
     0.499575    0.500862    0.501292    0.506462

 Minimum Search - Taking Simple RFO Step
 Searching for Lamda that Minimizes Along All modes
 Value Taken    Lamda =  -0.00001133
 Step Taken.  Stepsize is  0.024004

                             Maximum     Tolerance    Cnvgd?
         Gradient           0.000665      0.000075      NO
         Displacement       0.007274      0.001200      NO
         Energy change      0.000142      0.000000      NO


 New Cartesian Coordinates Obtained by Inverse Iteration

 Displacement from previous Coordinates is:  0.520831
 Adding empirical dispersion correction 
 ----------------------------------------------------------------
 Doing -D3(BJ) with
 s6 =   1.00000
 s8 =   0.00000
 a1 =   0.48600
 a2 =   4.50000
 -D3 energy including 3body term =     -0.1265594092 hartrees
 ----------------------------------------------------------------
 Adding gCP correction 
 ----------------------------------------------------------------
 gCP energy =      0.1734085644 hartrees
 ----------------------------------------------------------------
             Standard Nuclear Orientation (Angstroms)
    I     Atom           X                Y                Z
 ----------------------------------------------------------------
    1      C     -12.2708196002    -1.9120970970   -10.7911985582
    2      C     -11.3762846119    -1.4898367374    -9.7949831605
    3      N     -10.4146379033    -2.4630219023    -9.6153679106
    4      C     -10.6838386442    -3.5095981606   -10.4676293244
    5      C     -11.8281726768    -3.2094644545   -11.2219251840
    6      C     -12.3121441098    -4.1324764653   -12.1479054403
    7      C     -11.6633980041    -5.3425720902   -12.3249233295
    8      C     -10.5144206582    -5.6109518702   -11.5618880054
    9      C     -10.0110327093    -4.7167272235   -10.6366897665
   10      C     -13.3643624846    -1.1206830743   -11.1301664286
   11      C     -13.5718645676     0.0823636434   -10.4789028138
   12      C     -12.6639023982     0.4770064796    -9.4816343358
   13      C     -11.5687015698    -0.2876160132    -9.1249725535
   14      C      -9.4039890023    -2.4436552062    -8.6303662785
   15      C      -8.4073711673    -1.4840714726    -8.6892806039
   16      C      -7.4441325226    -1.4138083250    -7.6909086749
   17      C      -7.4657707343    -2.3240806242    -6.6242238130
   18      C      -8.4531689977    -3.3177552545    -6.6002095284
   19      C      -9.4221734050    -3.3669421318    -7.5966506397
   20      B      -6.4284036373    -2.1363229721    -5.4463456009
   21      C      -5.0372565926    -2.7752768245    -5.4859354112
   22      C      -4.7090573498    -3.6980302840    -6.4949203996
   23      C      -3.4740864120    -4.2963431779    -6.5209779990
   24      C      -2.4936206467    -3.9743464462    -5.5351389895
   25      C      -2.7877385073    -3.0581533697    -4.5550990129
   26      C      -4.0608932573    -2.4452807931    -4.4958526782
   27      C      -1.3075106762    -4.7902055437    -5.8072589439
   28      C      -1.6143154933    -5.5709609606    -6.9415101083
   29      C      -2.9170524270    -5.3068643140    -7.4101516742
   30      C      -0.7596285500    -6.5108165931    -7.5123104170
   31      C       0.5027715514    -6.6607049880    -6.8896059087
   32      C       0.8156606641    -5.9043548182    -5.7829750048
   33      C      -0.0783146321    -4.9621624936    -5.2219966194
   34      C      -3.3808784213    -6.0057693677    -8.4979905739
   35      C      -2.5293247109    -6.9594790187    -9.1009760805
   36      C      -1.2592085378    -7.2154830291    -8.6362458598
   37      B      -4.4211804232    -1.4383093487    -3.4002083722
   38      C      -5.8368668317    -0.8741517205    -3.2804667884
   39      C      -6.2086723841    -0.0097212308    -2.2241481922
   40      C      -7.4917419270     0.4730260344    -2.1310023957
   41      C      -8.4548046481     0.1080062301    -3.1187509763
   42      C      -8.1104482949    -0.7131793716    -4.1621741159
   43      C      -6.8061852494    -1.2265757447    -4.2693570387
   44      C      -9.7238700514     0.7365292379    -2.7806122917
   45      C      -9.5002903795     1.4668458538    -1.5971956971
   46      C      -8.1643542491     1.3420870011    -1.1604375972
   47      C     -10.4845195510     2.2043583773    -0.9439108396
   48      C     -11.7726429687     2.1991402014    -1.5348900210
   49      C     -11.9970067056     1.4878154062    -2.6917069011
   50      C     -10.9810722710     0.7443236816    -3.3344272334
   51      C      -7.8025771248     1.9974308511    -0.0103112980
   52      C      -8.7793266322     2.7582129852     0.6750774677
   53      C     -10.0797439992     2.8686201123     0.2381582059
   54      C      -6.3818629164    -0.3536184055    -7.7630522998
   55      C      -8.4882928418    -4.3168666480    -5.4779842367
   56      C      -3.2803222170    -0.9230832783    -2.4395449124
   57      C      -2.9746027672    -1.5843153373    -1.2286461156
   58      C      -1.9327983897    -1.1405660809    -0.4403708822
   59      C      -1.1618186865    -0.0471575646    -0.8568037920
   60      C      -1.4687795426     0.6274141694    -2.0465572538
   61      C      -2.5243384165     0.2070904614    -2.8249596088
   62      N      -0.0810717018     0.3741762492    -0.1043228045
   63      C      -0.0568971404     0.5571898707     1.2741432383
   64      C       1.1969722943     1.0651895285     1.6413004156
   65      C       1.9758399633     1.1831887038     0.4196151218
   66      C       1.1511486296     0.7438973055    -0.6247502423
   67      C       1.4397275952     1.3955598330     2.9569448598
   68      C       0.4293294263     1.2236153648     3.9080444702
   69      C      -0.8206421355     0.7412373096     3.5033478234
   70      C      -1.0922770179     0.4151606937     2.1874003853
   71      C       3.2612418407     1.5982994912     0.1425373238
   72      C       3.7295349585     1.5655274245    -1.1753991872
   73      C       2.8965587804     1.0759659926    -2.1881363299
   74      C       1.6081136793     0.6455183022    -1.9342569324
   75      C      -3.7718604554    -2.7904274945    -0.8352272898
   76      C      -2.8809609669     0.9473733697    -4.0783373331
   77      H      -2.0794729740     0.0870679154     1.8930291451
   78      H      -1.6077811873     0.6359937529     4.2391077700
   79      H       1.0000125317     0.2364444995    -2.7290666792
   80      H       3.2739231669     1.0210273111    -3.2014941014
   81      C       5.1130275837     2.0265432111    -1.5123990998
   82      H       3.9122613962     1.9434882279     0.9358747465
   83      C       0.6598832787     1.5744611970     5.3447481536
   84      H       2.3982018910     1.8027074908     3.2535816180
   85      H      -0.9161099668     1.5172198585    -2.3205626932
   86      H      -1.6566372832    -1.6864021210     0.4527699584
   87      H      -3.4412078036    -3.2090098234     0.1148498653
   88      H      -4.8312527565    -2.5419187854    -0.7501549079
   89      H      -3.6982230789    -3.5700827263    -1.5950784479
   90      H      -2.2161653461     1.7930435039    -4.2510368039
   91      H      -3.9052833584     1.3198835609    -4.0334478777
   92      H      -2.8283960979     0.2872290797    -4.9457132723
   93      H      -5.4713571608     0.2659570931    -1.4760521443
   94      H      -8.8513547852    -0.9744702277    -4.9112892080
   95      H     -11.2100984555     0.1973965832    -4.2412373284
   96      H      -6.7951006804     1.9451785164     0.3835182510
   97      H     -12.9880091766     1.4929803164    -3.1282459511
   98      H     -12.5824548995     2.7526945922    -1.0751367332
   99      H      -8.4879603588     3.2726284940     1.5820922704
  100      H     -10.7919900727     3.4619007711     0.7988368444
  101      H      -5.4502362771    -3.9430430364    -7.2500181470
  102      H      -2.0384548692    -2.8147986074    -3.8076686348
  103      H       0.2181363335    -4.4037691686    -4.3426674513
  104      H      -4.3757769439    -5.8484970218    -8.8967583394
  105      H       1.2188598123    -7.3743456552    -7.2789016183
  106      H       1.7834956641    -6.0371722087    -5.3161503701
  107      H      -2.8961230147    -7.5107366172    -9.9577877414
  108      H      -0.6438278125    -7.9601424975    -9.1264730961
  109      H      -8.3920746382    -0.7851692975    -9.5179499428
  110      H     -10.2072881728    -4.1144494729    -7.5600177739
  111      H     -10.8940030262     0.0385920251    -8.3444825914
  112      H     -12.8308453491     1.4154888290    -8.9655894040
  113      H      -9.1261853931    -4.9570481832   -10.0619158836
  114      H     -10.0043676127    -6.5577202445   -11.6999024492
  115      C     -12.1681419827    -6.3629461664   -13.3061804058
  116      H     -13.2024085874    -3.9080586276   -12.7254642523
  117      C     -14.7486130911     0.9539075008   -10.8149643156
  118      H     -14.0592661053    -1.4537062344   -11.8934907517
  119      H      -9.3075790426    -5.0259571694    -5.5969020397
  120      H      -8.6103006598    -3.8246566194    -4.5111297439
  121      H      -7.5577061142    -4.8852147623    -5.4254476585
  122      H      -6.5035018229     0.2753118388    -8.6451491827
  123      H      -6.4067395919     0.2939697512    -6.8846718162
  124      H      -5.3847178830    -0.7956320237    -7.8020032370
  125      H     -15.3625018755     0.5076469105   -11.5969704778
  126      H     -15.3902885589     1.1144628754    -9.9465775386
  127      H     -14.4330079802     1.9375450557   -11.1673248062
  128      H     -13.0610411262    -6.0115941937   -13.8225815609
  129      H     -11.4192762045    -6.5941090133   -14.0659079944
  130      H     -12.4240371757    -7.3021856505   -12.8120941473
  131      H       1.6674142418     1.9497342238     5.5132864766
  132      H      -0.0428344255     2.3398409768     5.6774051186
  133      H       0.5146424733     0.7046583923     5.9869093489
  134      H       5.6492343289     2.3779666732    -0.6329902812
  135      H       5.6955358332     1.2206491504    -1.9612332129
  136      H       5.0854393663     2.8428011341    -2.2358611544
 ----------------------------------------------------------------
 Nuclear Repulsion Energy = 11535.6111130026 hartrees
 There are      269 alpha and      267 beta electrons
 Discretize the solute cavity surface with Lebedev spheres
	Using 302 Lebedev grid points for each H atom
	Using 302 Lebedev grid points for other atoms
	Atomic van der Waals radii will be scaled by 1.20
 Remove points where switching function is < 1.0e-08
 Keep 14388 surface tesserae and discard 26684 interior tesserae
 Molecular Surface Area = 1071.141 Angst**2
 Nucleus-field energy     =    -0.0000000934 hartrees
 Requested basis set is def2-mSVP
 There are 672 shells and 1312 basis functions
 A cutoff of  1.0D-11 yielded  56030 shell pairs
 There are    223630 function pairs (    246693 Cartesian)
 Smallest overlap matrix eigenvalue = 1.99E-04
 Guess MOs from SCF MO coefficient file

 -----------------------------------------------------------------------
  General SCF calculation program by
  Eric Jon Sundstrom, Paul Horn, Yuezhi Mao, Dmitri Zuev, Alec White,
  David Stuck, Shaama M.S., Shane Yost, Joonho Lee, David Small,
  Daniel Levine, Susi Lehtola, Hugh Burton, Evgeny Epifanovsky
 -----------------------------------------------------------------------
 Exchange:     0.4200 Hartree-Fock + 0.5800 PBEh-3c
 Correlation:  1.0000 PBEh-3c
 Using SG-1 standard quadrature grid
 Dispersion:   Grimme D3
 using 8 threads for integral computing
 -------------------------------------------------------
 OpenMP Integral computing Module                
 Release: version 2.0, May 2017, Q-Chem Inc. Pleasanton 
 -------------------------------------------------------
 -------------------------------------------------------
 OpenMP BLAS3 based DFT computing Module                
 Release: version 1.0, May 2013, Q-Chem Inc. Pittsburgh 
 -------------------------------------------------------
 A unrestricted SCF calculation will be
 performed using DIIS
 SCF converges when DIIS error is below 1.0e-08
 ---------------------------------------
  Cycle       Energy         DIIS error
 ---------------------------------------
 Using non-symmetric K matrix
    1   -3079.3736355346      4.22e-05  
