mFile = /cm/shared/apps/q-chem/intel/QCHEM_5.1.0_Trunk/bin/mpi/machines
Process 0 of 1 is on ctcp033 - thread support 0
initial socket setup ...start
initial socket setup ...done 
now start server 0 ... 
Q-Chem Developer Version!
                  Welcome to Q-Chem
     A Quantum Leap Into The Future Of Chemistry


 Q-Chem 5.1, Q-Chem, Inc., Pleasanton, CA (2018)

 Yihan Shao,  Zhengting Gan,  E. Epifanovsky,  A. T. B. Gilbert,  M. Wormit,  
 J. Kussmann,  A. W. Lange,  A. Behn,  Jia Deng,  Xintian Feng,  D. Ghosh,  
 M. Goldey,  P. R. Horn,  L. D. Jacobson,  I. Kaliman,  T. Kus,  A. Landau,  
 Jie Liu,  E. I. Proynov,  R. M. Richard,  R. P. Steele,  E. J. Sundstrom,  
 H. L. Woodcock III,  P. M. Zimmerman,  D. Zuev,  B. Albrecht,  E. Alguire,  
 S. A. Baeppler,  D. Barton,  Z. Benda,  Y. A. Bernard,  E. J. Berquist,  
 K. B. Bravaya,  H. Burton,  D. Casanova,  Chun-Min Chang,  Yunqing Chen,  
 A. Chien,  K. D. Closser,  M. P. Coons,  S. Coriani,  S. Dasgupta,  
 A. L. Dempwolff,  M. Diedenhofen,  Hainam Do,  R. G. Edgar,  Po-Tung Fang,  
 S. Faraji,  S. Fatehi,  Qingguo Feng,  K. D. Fenk,  J. Fosso-Tande,  
 Qinghui Ge,  A. Ghysels,  G. Gidofalvi,  J. Gomes,  J. Gonthier,  A. Gunina,  
 D. Hait,  M. W. D. Hanson-Heine,  P. H. P. Harbach,  A. W. Hauser,  
 J. E. Herr,  E. G. Hohenstein,  Z. C. Holden,  Kerwin Hui,  B. C. Huynh,  
 T.-C. Jagau,  Hyunjun Ji,  B. Kaduk,  K. Khistyaev,  Jaehoon Kim,  
 P. Klunzinger,  K. Koh,  D. Kosenkov,  L. Koulias,  T. Kowalczyk,  
 C. M. Krauter,  A. Kunitsa,  Ka Un Lao,  A. Laurent,  K. V. Lawler,  
 Joonho Lee,  D. Lefrancois,  S. Lehtola,  D. S. Levine,  Yi-Pei Li,  
 You-Sheng Lin,  Fenglai Liu,  E. Livshits,  A. Luenser,  P. Manohar,  
 E. Mansoor,  S. F. Manzer,  Shan-Ping Mao,  Yuezhi Mao,  N. Mardirossian,  
 A. V. Marenich,  T. Markovich,  L. A. Martinez-Martinez,  S. A. Maurer,  
 N. J. Mayhall,  S. C. McKenzie,  J.-M. Mewes,  A. F. Morrison,  
 J. W. Mullinax,  K. Nanda,  T. S. Nguyen-Beck,  R. Olivares-Amaya,  
 J. A. Parkhill,  T. M. Perrine,  F. Plasser,  P. Pokhilko,  S. Prager,  
 A. Prociuk,  E. Ramos,  D. R. Rehn,  F. Rob,  M. Schneider,  N. Sergueev,  
 S. M. Sharada,  S. Sharma,  D. W. Small,  T. Stauch,  T. Stein,  
 Yu-Chuan Su,  A. J. W. Thom,  A. Tkatchenko,  T. Tsuchimochi,  N. M. Tubman,  
 L. Vogt,  M. L. Vidal,  O. Vydrov,  M. A. Watson,  J. Wenzel,  
 M. de Wergifosse,  T. A. Wesolowski,  A. White,  J. Witte,  A. Yamada,  
 Jun Yang,  K. Yao,  S. Yeganeh,  S. R. Yost,  Zhi-Qiang You,  A. Zech,  
 Igor Ying Zhang,  Xing Zhang,  Yan Zhao,  Ying Zhu,  B. R. Brooks,  
 G. K. L. Chan,  C. J. Cramer,  M. S. Gordon,  W. J. Hehre,  A. Klamt,  
 M. W. Schmidt,  C. D. Sherrill,  D. G. Truhlar,  A. Aspuru-Guzik,  R. Baer,  
 A. T. Bell,  N. A. Besley,  Jeng-Da Chai,  A. E. DePrince, III,  
 R. A. DiStasio Jr.,  A. Dreuw,  B. D. Dunietz,  T. R. Furlani,  
 Chao-Ping Hsu,  Yousung Jung,  Jing Kong,  D. S. Lambrecht,  WanZhen Liang,  
 C. Ochsenfeld,  V. A. Rassolov,  L. V. Slipchenko,  J. E. Subotnik,  
 T. Van Voorhis,  J. M. Herbert,  A. I. Krylov,  P. M. W. Gill,  M. Head-Gordon

 Contributors to earlier versions of Q-Chem not listed above: 
 R. D. Adamson,  B. Austin,  J. Baker,  G. J. O. Beran,  K. Brandhorst,  
 S. T. Brown,  E. F. C. Byrd,  A. K. Chakraborty,  C.-L. Cheng,  
 Siu Hung Chien,  D. M. Chipman,  D. L. Crittenden,  H. Dachsel,  
 R. J. Doerksen,  A. D. Dutoi,  L. Fusti-Molnar,  W. A. Goddard III,  
 A. Golubeva-Zadorozhnaya,  S. R. Gwaltney,  G. Hawkins,  A. Heyden,  
 S. Hirata,  G. Kedziora,  F. J. Keil,  C. Kelley,  Jihan Kim,  R. A. King,  
 R. Z. Khaliullin,  P. P. Korambath,  W. Kurlancheek,  A. M. Lee,  M. S. Lee,  
 S. V. Levchenko,  Ching Yeh Lin,  D. Liotard,  R. C. Lochan,  I. Lotan,  
 P. E. Maslen,  N. Nair,  D. P. O'Neill,  D. Neuhauser,  E. Neuscamman,  
 C. M. Oana,  R. Olson,  B. Peters,  R. Peverati,  P. A. Pieniazek,  
 Y. M. Rhee,  J. Ritchie,  M. A. Rohrdanz,  E. Rosta,  N. J. Russ,  
 H. F. Schaefer III,  N. E. Schultz,  N. Shenvi,  A. C. Simmonett,  A. Sodt,  
 D. Stuck,  K. S. Thanthiriwatte,  V. Vanovschi,  Tao Wang,  A. Warshel,  
 C. F. Williams,  Q. Wu,  X. Xu,  W. Zhang

 Please cite Q-Chem as follows:
 Y. Shao et al., Mol. Phys. 113, 184-215 (2015)
 DOI: 10.1080/00268976.2014.952696

 Q-Chem 5.1.1 for Intel X86 EM64T Linux

 Parts of Q-Chem use Armadillo 8.300.2 (Tropical Shenanigans).
 http://arma.sourceforge.net/

 Q-Chem begins on Tue Dec 18 22:28:33 2018  

Host: ctcp033
0

     Scratch files written to /scratch/mewes1/142062/qchem27206//
 Parallel job on  1  processors
The previous job contains 0 fragments, simply inherited here
Symmetry turned off for PCM/SM12/SMD calculation
Input Ideriv = 2
Curr. Ideriv = -1
Max.  Ideriv = 2
Input Ideriv = 2
Curr. Ideriv = 2
Max.  Ideriv = 2

Checking the input file for inconsistencies... 	...done.

--------------------------------------------------------------
User input:
--------------------------------------------------------------
$rem
threads 8
jobtype opt
method PBEh-3c
basis def2-mSVP
mem_static      1024
mem_total       8000
sym_ignore      true
unrestricted true
scf_algorithm	diis
scf_max_cycles	250
solvent_method  pcm
geom_opt_tol_energy 25
geom_opt_tol_gradient 75
$end

$pcm
theory  iefpcm
$end
$solvent
dielectric      4.33
$end

$molecule
read uincoords.mol
$end
--------------------------------------------------------------
 Adding empirical dispersion correction 
 ----------------------------------------------------------------
 Doing -D3(BJ) with
 s6 =   1.00000
 s8 =   0.00000
 a1 =   0.48600
 a2 =   4.50000
 -D3 energy including 3body term =     -0.1265287039 hartrees
 ----------------------------------------------------------------
 Adding gCP correction 
 ----------------------------------------------------------------
 gCP energy =      0.1748591731 hartrees
 ----------------------------------------------------------------
             Standard Nuclear Orientation (Angstroms)
    I     Atom           X                Y                Z
 ----------------------------------------------------------------
    1      C     -12.5747250000    -3.1072410000   -10.4887290000
    2      C     -11.8031050000    -2.2718880000    -9.6591590000
    3      N     -10.6065860000    -2.9002540000    -9.3790780000
    4      C     -10.5949430000    -4.1288320000   -10.0066010000
    5      C     -11.7985780000    -4.2960810000   -10.7137160000
    6      C     -12.0232590000    -5.4647410000   -11.4352980000
    7      C     -11.0500080000    -6.4465640000   -11.4400630000
    8      C      -9.8569430000    -6.2650210000   -10.7335200000
    9      C      -9.6098030000    -5.1108220000   -10.0109660000
   10      C     -13.8427500000    -2.7031760000   -10.8934320000
   11      C     -14.3219350000    -1.4791440000   -10.4649940000
   12      C     -13.5455210000    -0.6632430000    -9.6360830000
   13      C     -12.2814850000    -1.0439120000    -9.2192210000
   14      C      -9.6144360000    -2.4486940000    -8.4811290000
   15      C      -8.8661230000    -1.3175030000    -8.7658420000
   16      C      -7.8608580000    -0.9059450000    -7.8971510000
   17      C      -7.5929500000    -1.6439550000    -6.7382430000
   18      C      -8.3635850000    -2.7782940000    -6.4497820000
   19      C      -9.3740340000    -3.1661200000    -7.3190090000
   20      B      -6.4006120000    -1.2607660000    -5.7862810000
   21      C      -5.0060900000    -1.8949340000    -6.0329120000
   22      C      -4.8201270000    -2.7393540000    -7.1265100000
   23      C      -3.6020820000    -3.3604030000    -7.3181730000
   24      C      -2.5342350000    -3.1453540000    -6.4196380000
   25      C      -2.7089110000    -2.3001070000    -5.3351220000
   26      C      -3.9414820000    -1.6698030000    -5.1275080000
   27      C      -1.4058780000    -3.9720940000    -6.8626490000
   28      C      -1.8495650000    -4.6574960000    -8.0109770000
   29      C      -3.1755070000    -4.3195130000    -8.3319040000
   30      C      -1.0925260000    -5.5793370000    -8.7262680000
   31      C       0.2174940000    -5.8110440000    -8.2438200000
   32      C       0.6658510000    -5.1452940000    -7.1264700000
   33      C      -0.1345870000    -4.2183760000    -6.4148830000
   34      C      -3.7725820000    -4.9180410000    -9.4112600000
   35      C      -3.0239240000    -5.8557900000   -10.1601370000
   36      C      -1.7270580000    -6.1847530000    -9.8388820000
   37      B      -4.1726570000    -0.7638570000    -3.8829520000
   38      C      -5.5563570000    -0.0828610000    -3.6595920000
   39      C      -5.7772610000     0.7300290000    -2.5418060000
   40      C      -7.0225420000     1.3021970000    -2.3343020000
   41      C      -8.0660880000     1.0639670000    -3.2556560000
   42      C      -7.8617430000     0.2599840000    -4.3602150000
   43      C      -6.6121380000    -0.3201150000    -4.5737640000
   44      C      -9.2643700000     1.7547720000    -2.7924970000
   45      C      -8.9072140000     2.3917190000    -1.5922340000
   46      C      -7.5588050000     2.1514720000    -1.2656440000
   47      C      -9.7890390000     3.1419830000    -0.8222110000
   48      C     -11.1129830000     3.2533550000    -1.3140960000
   49      C     -11.4691160000     2.6335260000    -2.4897710000
   50      C     -10.5514180000     1.8713370000    -3.2495770000
   51      C      -7.0686960000     2.6956850000    -0.1080100000
   52      C      -7.9393130000     3.4690930000     0.6979180000
   53      C      -9.2555680000     3.6940260000     0.3664340000
   54      C      -7.0391060000     0.3093250000    -8.2212780000
   55      C      -8.0946120000    -3.5847930000    -5.2105450000
   56      C      -3.0382610000    -0.5708200000    -2.8106760000
   57      C      -2.9320150000    -1.4873360000    -1.7573830000
   58      C      -1.9562850000    -1.3107670000    -0.7838430000
   59      C      -1.0983140000    -0.2215730000    -0.8386690000
   60      C      -1.2005190000     0.6890750000    -1.8808540000
   61      C      -2.1580710000     0.5147620000    -2.8741540000
   62      N      -0.1297790000    -0.0364820000     0.1737890000
   63      C      -0.4003010000     0.1736220000     1.5109990000
   64      C       0.8078380000     0.3508900000     2.2042340000
   65      C       1.8610510000     0.2443400000     1.2282070000
   66      C       1.2379180000     0.0069560000    -0.0085620000
   67      C       0.7804400000     0.5936690000     3.5740650000
   68      C      -0.4400820000     0.6598830000     4.2209830000
   69      C      -1.6330030000     0.4918960000     3.5109530000
   70      C      -1.6332640000     0.2488510000     2.1495750000
   71      C       3.2484480000     0.3278250000     1.2895920000
   72      C       3.9828670000     0.1717950000     0.1281190000
   73      C       3.3446550000    -0.0733710000    -1.0919340000
   74      C       1.9672700000    -0.1619760000    -1.1798640000
   75      C      -3.8657190000    -2.6637650000    -1.6899180000
   76      C      -2.2657250000     1.4951890000    -4.0079960000
   77      H      -2.5605740000     0.1258360000     1.6053980000
   78      H      -2.5776660000     0.5555490000     4.0354500000
   79      H       1.4796300000    -0.3555940000    -2.1264480000
   80      H       3.9392220000    -0.1979260000    -1.9876970000
   81      C       5.4295450000     0.2595460000     0.1719860000
   82      H       3.7470430000     0.5124770000     2.2328810000
   83      C      -0.4881990000     0.9117160000     5.6481360000
   84      H       1.7015620000     0.7333390000     4.1256710000
   85      H      -0.5362910000     1.5448340000    -1.9119900000
   86      H      -1.8599360000    -2.0268640000     0.0236570000
   87      H      -3.6922150000    -3.2696810000    -0.8012680000
   88      H      -4.9101340000    -2.3440890000    -1.6696240000
   89      H      -3.7476690000    -3.3145930000    -2.5588100000
   90      H      -1.5262030000     2.2911510000    -3.9290390000
   91      H      -3.2515510000     1.9645780000    -4.0368540000
   92      H      -2.1180190000     1.0035720000    -4.9722460000
   93      H      -4.9732090000     0.9013560000    -1.8344420000
   94      H      -8.6732680000     0.0664980000    -5.0537400000
   95      H     -10.8796050000     1.3957660000    -4.1657060000
   96      H      -6.0425980000     2.5478140000     0.2043530000
   97      H     -12.4862210000     2.7271700000    -2.8476150000
   98      H     -11.8493710000     3.8247360000    -0.7622790000
   99      H      -7.5491230000     3.8969430000     1.6119940000
  100      H      -9.8828580000     4.2902700000     1.0176960000
  101      H      -5.6384960000    -2.9240780000    -7.8136270000
  102      H      -1.8979630000    -2.1364540000    -4.6336720000
  103      H       0.2678490000    -3.7309460000    -5.5357020000
  104      H      -4.7935730000    -4.6967670000    -9.6980350000
  105      H       0.8661300000    -6.5155490000    -8.7498950000
  106      H       1.6689710000    -5.3382030000    -6.7696700000
  107      H      -3.4926150000    -6.3313320000   -11.0119720000
  108      H      -1.1927060000    -6.9125910000   -10.4372700000
  109      H      -9.0535150000    -0.7688010000    -9.6816600000
  110      H      -9.9756890000    -4.0403320000    -7.0975630000
  111      H     -11.6942130000    -0.4071240000    -8.5709790000
  112      H     -13.9429910000     0.2884850000    -9.3080700000
  113      H      -8.6823090000    -4.9856120000    -9.4681180000
  114      H      -9.1073470000    -7.0456820000   -10.7501480000
  115      C     -11.2636340000    -7.6746480000   -12.1807890000
  116      H     -12.9473150000    -5.6042320000   -11.9828740000
  117      C     -15.6416580000    -1.0362680000   -10.8708180000
  118      H     -14.4465840000    -3.3402350000   -11.5281580000
  119      H      -8.8005450000    -4.4080250000    -5.1075240000
  120      H      -8.1683030000    -2.9720400000    -4.3098300000
  121      H      -7.0898450000    -4.0134130000    -5.2257090000
  122      H      -7.3517600000     0.7695930000    -9.1578850000
  123      H      -7.1201560000     1.0664780000    -7.4386600000
  124      H      -5.9799670000     0.0592680000    -8.3161560000
  125      H     -16.0977060000    -1.7916240000   -11.5090800000
  126      H     -16.2611240000    -0.8848330000    -9.9880670000
  127      H     -15.5573000000    -0.0997320000   -11.4200950000
  128      H     -12.2385260000    -7.6416320000   -12.6649550000
  129      H     -10.4866740000    -7.7828010000   -12.9361410000
  130      H     -11.2261430000    -8.5218450000   -11.4975810000
  131      H       0.5252960000     1.0156060000     6.0327850000
  132      H      -1.0437150000     1.8292750000     5.8363070000
  133      H      -0.9823170000     0.0794010000     6.1471560000
  134      H       5.7506320000     0.4531470000     1.1944060000
  135      H       5.8607660000    -0.6793030000    -0.1722990000
  136      H       5.7637400000     1.0706970000    -0.4732020000
 ----------------------------------------------------------------
 Nuclear Repulsion Energy = 11544.5448096738 hartrees
 There are      269 alpha and      267 beta electrons
 Requested basis set is def2-mSVP
 There are 672 shells and 1312 basis functions

 Total QAlloc Memory Limit   8000 MB
 Mega-Array Size      1001 MB
 MEM_STATIC part      1024 MB
 Discretize the solute cavity surface with Lebedev spheres
	Using 302 Lebedev grid points for each H atom
	Using 302 Lebedev grid points for other atoms
	Atomic van der Waals radii will be scaled by 1.20
 Remove points where switching function is < 1.0e-08
 Keep 14411 surface tesserae and discard 26661 interior tesserae
 Molecular Surface Area = 1069.763 Angst**2
 A cutoff of  1.0D-11 yielded  56202 shell pairs
 There are    224334 function pairs (    247553 Cartesian)
 
 -------------------------------------------------------
 OpenMP Integral Computing Module                       
 Release: version 1.0, May 2013, Q-Chem Inc. Pittsburgh 
 -------------------------------------------------------
 Integral Job Info:
 Integral job number is                      11
 Integral operator is                         1
 short-range coefficients                     0
 long-range coefficients              100000000
 Omega coefficients                           0
 if combine SR and LR in K                    0
 Integral screening is                        0
 Integral computing path is                   2
 max size of driver memory is            800000
 size of driver memory is                593474
 size of scratch memory is              1809772
 max col of scratch BK array               1296
 max len of scratch array in speh3          155
 max len of scratch index in speh4           18
 max int batch size is                      520
 min int batch size is                       52
 fixed nKL is                                52
 max L of basis functions is                  2
 order of int derivative is                   0
 number of shells is                        672
 number of basis is                        1392
 number of cartesian basis is              1392
 number of contracted shell pairs         56202
 number of primitive shell pairs         117500
 maxK2 (contraction) of shell pair           25
 max number of K2 of shell pair               1
 max number of CS2 of shell pair          13529
 max number of PS2 of shell pair          20850
 mem total for path MDJ                 1087548
 -------------------------------------------------------
 Smallest overlap matrix eigenvalue = 1.97E-04

 Scale SEOQF with 1.000000e-02/1.000000e-02/1.000000e-02

 Standard Electronic Orientation quadrupole field applied
 Nucleus-field energy     =    -0.0000001042 hartrees
 Guess from superposition of atomic densities
 Warning:  Energy on first SCF cycle will be non-variational
 SAD guess density has 536.000001 electrons

 -----------------------------------------------------------------------
  General SCF calculation program by
  Eric Jon Sundstrom, Paul Horn, Yuezhi Mao, Dmitri Zuev, Alec White,
  David Stuck, Shaama M.S., Shane Yost, Joonho Lee, David Small,
  Daniel Levine, Susi Lehtola, Hugh Burton, Evgeny Epifanovsky
 -----------------------------------------------------------------------
 Exchange:     0.4200 Hartree-Fock + 0.5800 PBEh-3c
 Correlation:  1.0000 PBEh-3c
 Using SG-1 standard quadrature grid
 Dispersion:   Grimme D3
 using 8 threads for integral computing
 -------------------------------------------------------
 OpenMP Integral computing Module                
 Release: version 2.0, May 2017, Q-Chem Inc. Pleasanton 
 -------------------------------------------------------
 -------------------------------------------------------
 OpenMP BLAS3 based DFT computing Module                
 Release: version 1.0, May 2013, Q-Chem Inc. Pittsburgh 
 -------------------------------------------------------
 A unrestricted SCF calculation will be
 performed using DIIS
 SCF converges when DIIS error is below 1.0e-08
 ---------------------------------------
  Cycle       Energy         DIIS error
 ---------------------------------------
 Using non-symmetric K matrix
    1   -3110.0585564852      1.20e-02  
    2   -3081.6921065580      8.25e-04  
    3   -3081.6186151076      8.95e-04  
    4   -3082.2525659492      3.66e-04  
    5   -3082.3837878816      6.17e-05  
    6   -3082.3866999998      4.60e-05  
    7   -3082.3887426394      1.29e-05  
    8   -3082.3890221551      6.96e-06  
    9   -3082.3891977319      3.95e-06  
   10   -3082.3892624460      2.56e-06  
   11   -3082.3892976627      1.30e-06  
   12   -3082.3893088013      8.12e-07  
   13   -3082.3893138188      4.83e-07  
   14   -3082.3893156370      3.16e-07  
   15   -3082.3893162480      1.99e-07  
   16   -3082.3893166021      1.33e-07  
   17   -3082.3893167667      9.43e-08  
   18   -3082.3893168581      5.66e-08  
   19   -3082.3893168799      3.28e-08  
   20   -3082.3893168872      1.73e-08  
   21   -3082.3893168889      9.97e-09  Convergence criterion met
 ---------------------------------------
 SCF time:   CPU 29128.82s  wall 3833.00s 
<S^2> =          2.071428811

************** Final PCM Free Energy Summary **************
 G_electrostatic  =      -0.05417879 hartree =     -33.99770177 kcal/mol
 G_cavitation     =       0.00000000 hartree =       0.00000000 kcal/mol
 G_dispersion     =       0.00000000 hartree =       0.00000000 kcal/mol
 G_repulsion      =       0.00000000 hartree =       0.00000000 kcal/mol
 --------------------------------------------------
 Non-electrostatic Free Energy =       0.00000000 hartree =       0.00000000 kcal/mol
 Total                         =      -0.05417879 hartree =     -33.99770177 kcal/mol
 --------------------------------------------------
 SCF Energy (H0 + V/2)                       =   -3082.38931689 
 Solute Internal Energy (H0)                 =   -3082.33513810 
 Total Free Energy (H0 + V/2 + non-elec)     =   -3082.38931689 hartree
                                             = -1934228.48965702 kcal/mol
***********************************************************

 SCF   energy in the final basis set =    -3082.3893168889
 Total energy in the final basis set =    -3082.3893168889
 
 --------------------------------------------------------------
 
                    Orbital Energies (a.u.)
 --------------------------------------------------------------
 
 Alpha MOs
 -- Occupied --
-14.787 -14.679 -10.531 -10.531 -10.519 -10.502 -10.502 -10.498
-10.498 -10.498 -10.497 -10.489 -10.489 -10.479 -10.478 -10.476
-10.476 -10.475 -10.469 -10.468 -10.468 -10.467 -10.451 -10.451
-10.448 -10.448 -10.448 -10.448 -10.447 -10.447 -10.447 -10.447
-10.446 -10.446 -10.445 -10.445 -10.445 -10.445 -10.444 -10.444
-10.444 -10.444 -10.442 -10.442 -10.440 -10.440 -10.440 -10.439
-10.438 -10.438 -10.438 -10.437 -10.437 -10.436 -10.436 -10.436
-10.436 -10.434 -10.434 -10.433 -10.433 -10.433 -10.432 -10.432
-10.431 -10.429 -10.429 -10.428 -10.428 -10.417 -10.417 -10.415
-10.414 -10.409 -10.407 -10.406 -10.402 -10.402  -6.905  -6.898
 -1.179  -1.098  -1.018  -1.005  -1.000  -0.999  -0.981  -0.965
 -0.950  -0.943  -0.940  -0.939  -0.938  -0.919  -0.919  -0.918
 -0.897  -0.890  -0.887  -0.886  -0.881  -0.871  -0.867  -0.862
 -0.859  -0.847  -0.836  -0.834  -0.833  -0.832  -0.828  -0.814
 -0.808  -0.806  -0.800  -0.796  -0.794  -0.784  -0.782  -0.775
 -0.767  -0.765  -0.757  -0.754  -0.749  -0.732  -0.715  -0.712
 -0.711  -0.709  -0.707  -0.702  -0.698  -0.683  -0.679  -0.672
 -0.663  -0.662  -0.656  -0.655  -0.645  -0.645  -0.633  -0.632
 -0.632  -0.628  -0.628  -0.625  -0.591  -0.587  -0.583  -0.582
 -0.580  -0.579  -0.577  -0.577  -0.573  -0.567  -0.558  -0.556
 -0.555  -0.545  -0.543  -0.542  -0.541  -0.540  -0.539  -0.534
 -0.528  -0.525  -0.521  -0.517  -0.515  -0.511  -0.510  -0.509
 -0.507  -0.500  -0.492  -0.491  -0.491  -0.490  -0.487  -0.484
 -0.482  -0.481  -0.480  -0.477  -0.477  -0.473  -0.472  -0.471
 -0.471  -0.470  -0.470  -0.468  -0.467  -0.466  -0.465  -0.464
 -0.463  -0.458  -0.458  -0.453  -0.453  -0.452  -0.451  -0.451
 -0.449  -0.446  -0.443  -0.441  -0.436  -0.434  -0.433  -0.427
 -0.426  -0.425  -0.423  -0.423  -0.423  -0.419  -0.411  -0.410
 -0.410  -0.409  -0.408  -0.406  -0.398  -0.396  -0.394  -0.391
 -0.386  -0.384  -0.383  -0.383  -0.380  -0.379  -0.378  -0.375
 -0.372  -0.371  -0.357  -0.354  -0.354  -0.344  -0.338  -0.335
 -0.325  -0.321  -0.320  -0.305  -0.303  -0.299  -0.298  -0.292
 -0.286  -0.285  -0.284  -0.283  -0.270  -0.268  -0.266  -0.252
 -0.244  -0.242  -0.239  -0.224  -0.141
 -- Virtual --
 -0.056  -0.054  -0.026  -0.021  -0.016  -0.015  -0.008   0.005
  0.009   0.010   0.018   0.020   0.022   0.032   0.036   0.037
  0.057   0.063   0.068   0.081   0.097   0.100   0.103   0.123
  0.131   0.135   0.136   0.139   0.148   0.151   0.156   0.158
  0.160   0.160   0.162   0.163   0.164   0.166   0.170   0.173
  0.176   0.177   0.178   0.178   0.181   0.183   0.184   0.186
  0.187   0.189   0.191   0.193   0.195   0.197   0.197   0.199
  0.202   0.202   0.206   0.210   0.211   0.212   0.214   0.214
  0.218   0.220   0.221   0.222   0.226   0.227   0.228   0.230
  0.230   0.230   0.232   0.232   0.233   0.238   0.239   0.240
  0.242   0.242   0.244   0.246   0.248   0.250   0.251   0.253
  0.254   0.256   0.257   0.258   0.259   0.260   0.264   0.265
  0.266   0.266   0.266   0.270   0.273   0.275   0.281   0.281
  0.282   0.283   0.287   0.288   0.291   0.293   0.295   0.296
  0.300   0.302   0.305   0.312   0.315   0.319   0.321   0.322
  0.323   0.323   0.327   0.332   0.333   0.336   0.338   0.340
  0.344   0.347   0.350   0.351   0.358   0.364   0.365   0.366
  0.377   0.379   0.380   0.382   0.385   0.388   0.393   0.394
  0.399   0.404   0.409   0.420   0.421   0.421   0.424   0.425
  0.430   0.432   0.437   0.440   0.443   0.447   0.450   0.454
  0.462   0.463   0.464   0.469   0.471   0.472   0.473   0.476
  0.478   0.479   0.484   0.484   0.486   0.491   0.493   0.494
  0.497   0.499   0.501   0.502   0.505   0.508   0.508   0.511
  0.512   0.517   0.520   0.523   0.524   0.528   0.531   0.531
  0.533   0.537   0.538   0.539   0.540   0.542   0.544   0.545
  0.546   0.546   0.549   0.549   0.551   0.554   0.554   0.556
  0.559   0.561   0.562   0.563   0.565   0.569   0.571   0.575
  0.577   0.578   0.578   0.579   0.581   0.583   0.584   0.586
  0.587   0.587   0.589   0.591   0.594   0.595   0.596   0.597
  0.598   0.598   0.599   0.601   0.602   0.603   0.604   0.604
  0.607   0.608   0.611   0.612   0.614   0.616   0.618   0.619
  0.622   0.624   0.624   0.627   0.628   0.630   0.631   0.633
  0.634   0.636   0.639   0.639   0.640   0.642   0.643   0.643
  0.645   0.645   0.650   0.652   0.654   0.654   0.656   0.660
  0.664   0.664   0.666   0.670   0.672   0.675   0.680   0.682
  0.682   0.688   0.688   0.690   0.690   0.692   0.696   0.697
  0.699   0.700   0.702   0.703   0.706   0.710   0.713   0.715
  0.718   0.721   0.724   0.725   0.727   0.729   0.732   0.733
  0.735   0.737   0.741   0.745   0.746   0.748   0.749   0.753
  0.758   0.761   0.763   0.765   0.767   0.768   0.769   0.770
  0.771   0.772   0.773   0.775   0.777   0.785   0.786   0.787
  0.790   0.791   0.795   0.797   0.798   0.806   0.808   0.809
  0.813   0.815   0.815   0.821   0.823   0.830   0.835   0.839
  0.846   0.851   0.857   0.859   0.860   0.865   0.868   0.873
  0.884   0.885   0.889   0.890   0.896   0.900   0.908   0.912
  0.918   0.921   0.923   0.925   0.928   0.930   0.931   0.933
  0.935   0.942   0.947   0.951   0.953   0.960   0.960   0.962
  0.963   0.965   0.968   0.970   0.972   0.979   0.982   0.985
  0.986   0.989   0.992   0.994   0.996   0.997   0.998   1.000
  1.001   1.001   1.003   1.009   1.013   1.013   1.015   1.018
  1.019   1.020   1.022   1.025   1.025   1.027   1.029   1.034
  1.036   1.038   1.040   1.042   1.043   1.046   1.048   1.049
  1.052   1.053   1.054   1.056   1.057   1.060   1.062   1.066
  1.067   1.069   1.072   1.072   1.074   1.077   1.079   1.080
  1.082   1.084   1.086   1.086   1.087   1.092   1.094   1.100
  1.102   1.107   1.109   1.109   1.110   1.111   1.113   1.117
  1.119   1.122   1.125   1.126   1.132   1.135   1.138   1.143
  1.144   1.149   1.149   1.152   1.153   1.153   1.158   1.160
  1.160   1.163   1.168   1.172   1.174   1.175   1.182   1.183
  1.190   1.194   1.198   1.200   1.208   1.214   1.215   1.217
  1.219   1.224   1.227   1.233   1.240   1.247   1.252   1.256
  1.260   1.267   1.270   1.271   1.272   1.274   1.277   1.280
  1.284   1.292   1.292   1.295   1.300   1.303   1.304   1.311
  1.314   1.316   1.316   1.318   1.322   1.324   1.326   1.330
  1.331   1.333   1.338   1.343   1.347   1.352   1.354   1.364
  1.367   1.368   1.371   1.373   1.376   1.377   1.378   1.389
  1.390   1.395   1.396   1.398   1.401   1.402   1.403   1.403
  1.408   1.415   1.416   1.419   1.419   1.423   1.431   1.433
  1.444   1.450   1.451   1.451   1.454   1.455   1.456   1.456
  1.462   1.466   1.473   1.479   1.480   1.485   1.492   1.498
  1.500   1.502   1.505   1.507   1.509   1.516   1.520   1.522
  1.525   1.525   1.529   1.531   1.532   1.533   1.535   1.536
  1.540   1.542   1.543   1.545   1.545   1.546   1.552   1.556
  1.557   1.558   1.560   1.564   1.566   1.567   1.570   1.572
  1.574   1.575   1.580   1.584   1.586   1.591   1.594   1.599
  1.599   1.607   1.610   1.614   1.623   1.628   1.639   1.658
  1.660   1.665   1.668   1.681   1.684   1.693   1.700   1.707
  1.714   1.732   1.741   1.755   1.761   1.765   1.775   1.777
  1.781   1.790   1.793   1.806   1.813   1.818   1.822   1.824
  1.825   1.826   1.829   1.830   1.833   1.835   1.835   1.836
  1.841   1.849   1.851   1.860   1.861   1.863   1.869   1.871
  1.872   1.884   1.889   1.890   1.897   1.899   1.907   1.912
  1.915   1.920   1.923   1.925   1.928   1.928   1.932   1.933
  1.934   1.934   1.937   1.944   1.946   1.948   1.952   1.955
  1.957   1.958   1.959   1.964   1.964   1.966   1.968   1.976
  1.983   1.985   1.989   1.995   1.996   1.999   2.000   2.003
  2.004   2.009   2.012   2.015   2.026   2.036   2.038   2.039
  2.044   2.049   2.057   2.062   2.067   2.070   2.074   2.076
  2.081   2.085   2.087   2.092   2.094   2.096   2.099   2.105
  2.107   2.112   2.118   2.125   2.126   2.126   2.132   2.136
  2.141   2.145   2.148   2.153   2.157   2.166   2.169   2.171
  2.175   2.177   2.182   2.186   2.193   2.197   2.198   2.207
  2.208   2.211   2.218   2.219   2.220   2.220   2.221   2.224
  2.228   2.232   2.240   2.246   2.246   2.247   2.251   2.252
  2.255   2.258   2.264   2.266   2.272   2.276   2.279   2.280
  2.286   2.290   2.291   2.294   2.295   2.299   2.299   2.303
  2.305   2.306   2.310   2.311   2.313   2.317   2.323   2.336
  2.336   2.338   2.340   2.341   2.351   2.353   2.354   2.356
  2.358   2.360   2.362   2.362   2.364   2.366   2.368   2.374
  2.376   2.385   2.387   2.389   2.393   2.394   2.403   2.403
  2.403   2.405   2.407   2.413   2.419   2.422   2.424   2.429
  2.430   2.431   2.432   2.433   2.435   2.436   2.440   2.446
  2.451   2.453   2.454   2.456   2.462   2.465   2.468   2.471
  2.477   2.478   2.489   2.490   2.496   2.499   2.501   2.508
  2.510   2.511   2.512   2.514   2.518   2.527   2.542   2.554
  2.560   2.579   2.582   2.592   2.603   2.607   2.616   2.619
  2.635   2.650   2.652   2.657   2.658   2.661   2.664   2.670
  2.676   2.679   2.685   2.692   2.700   2.703   2.706   2.713
  2.720   2.727   2.727   2.734   2.740   2.743   2.745   2.747
  2.747   2.752   2.754   2.760   2.763   2.764   2.767   2.774
  2.775   2.798   2.801   2.802   2.803   2.804   2.805   2.807
  2.807   2.808   2.812   2.822   2.823   2.826   2.836   2.841
  2.844   2.853   2.858   2.865   2.866   2.874   2.879   2.882
  2.889   2.896   2.901   2.902   2.905   2.908   2.912   2.915
  2.922   2.923   2.940   2.946   2.949   2.952   2.955   2.960
  2.963   2.974   2.975   2.997   3.003   3.016   3.029   3.030
  3.031   3.036   3.055   3.073   3.078   3.084   3.088   3.097
  3.101   3.107   3.144   3.158   3.243   3.258   3.272   3.275
  3.283   3.302   3.355   3.400   3.424   3.427   3.455   3.464
  3.471   3.488   3.508   3.510   3.517   3.547   3.583   3.585
  3.637   3.687   3.701   9.629   9.770  13.159  13.192  13.192
 13.244  13.389  13.425  13.441  13.516  13.522  13.528  13.541
 13.565  13.632  13.654  13.683  13.706  13.708  13.732  13.734
 13.749  13.778  13.807  13.811  13.823  13.856  13.878  13.902
 13.906  13.906  13.912  13.931  13.940  13.945  13.948  13.974
 13.985  14.009  14.021  14.023  14.032  14.052  14.061  14.095
 14.143  14.145  14.174  14.176  14.178  14.198  14.204  14.205
 14.213  14.236  14.254  14.257  14.269  14.280  14.285  14.294
 14.324  14.327  14.336  14.360  14.368  14.529  14.531  14.532
 14.566  14.583  14.585  14.596  14.598  14.601  14.602  14.621
 14.622  19.486  19.596
 
 Beta MOs
 -- Occupied --
-14.776 -14.679 -10.533 -10.532 -10.520 -10.501 -10.500 -10.495
-10.495 -10.495 -10.495 -10.490 -10.489 -10.480 -10.480 -10.476
-10.476 -10.475 -10.469 -10.468 -10.467 -10.467 -10.452 -10.452
-10.448 -10.448 -10.448 -10.448 -10.448 -10.447 -10.447 -10.447
-10.446 -10.445 -10.445 -10.445 -10.445 -10.445 -10.444 -10.444
-10.443 -10.443 -10.442 -10.442 -10.440 -10.440 -10.440 -10.439
-10.437 -10.437 -10.437 -10.437 -10.437 -10.436 -10.436 -10.436
-10.436 -10.434 -10.433 -10.433 -10.433 -10.432 -10.432 -10.432
-10.431 -10.429 -10.429 -10.428 -10.428 -10.417 -10.417 -10.415
-10.414 -10.409 -10.406 -10.406 -10.401 -10.401  -6.902  -6.896
 -1.163  -1.098  -1.013  -1.001  -0.999  -0.999  -0.977  -0.965
 -0.950  -0.942  -0.939  -0.938  -0.934  -0.918  -0.918  -0.915
 -0.893  -0.889  -0.886  -0.885  -0.880  -0.867  -0.867  -0.862
 -0.859  -0.847  -0.835  -0.833  -0.831  -0.831  -0.828  -0.814
 -0.808  -0.803  -0.797  -0.794  -0.794  -0.782  -0.779  -0.772
 -0.767  -0.765  -0.755  -0.753  -0.748  -0.728  -0.714  -0.710
 -0.709  -0.709  -0.704  -0.701  -0.694  -0.682  -0.677  -0.671
 -0.661  -0.660  -0.656  -0.652  -0.644  -0.643  -0.633  -0.631
 -0.630  -0.628  -0.628  -0.622  -0.588  -0.583  -0.580  -0.580
 -0.578  -0.576  -0.575  -0.571  -0.571  -0.566  -0.557  -0.555
 -0.554  -0.544  -0.542  -0.540  -0.538  -0.537  -0.534  -0.534
 -0.524  -0.524  -0.520  -0.516  -0.510  -0.509  -0.507  -0.507
 -0.500  -0.498  -0.492  -0.491  -0.490  -0.490  -0.486  -0.483
 -0.482  -0.481  -0.479  -0.477  -0.477  -0.473  -0.471  -0.470
 -0.470  -0.469  -0.469  -0.467  -0.467  -0.466  -0.465  -0.464
 -0.463  -0.458  -0.457  -0.453  -0.452  -0.451  -0.450  -0.450
 -0.449  -0.440  -0.436  -0.435  -0.434  -0.433  -0.433  -0.425
 -0.425  -0.423  -0.423  -0.422  -0.420  -0.417  -0.410  -0.408
 -0.408  -0.405  -0.404  -0.401  -0.395  -0.393  -0.390  -0.386
 -0.386  -0.383  -0.381  -0.381  -0.379  -0.379  -0.377  -0.375
 -0.371  -0.362  -0.357  -0.352  -0.347  -0.341  -0.333  -0.321
 -0.320  -0.320  -0.317  -0.299  -0.297  -0.295  -0.293  -0.287
 -0.285  -0.282  -0.282  -0.269  -0.266  -0.257  -0.245  -0.244
 -0.239  -0.232  -0.224
 -- Virtual --
 -0.182  -0.060  -0.047  -0.040  -0.013  -0.009  -0.008  -0.005
 -0.004   0.008   0.012   0.020   0.022   0.029   0.030   0.032
  0.037   0.037   0.063   0.068   0.069   0.089   0.098   0.110
  0.112   0.125   0.132   0.138   0.141   0.146   0.150   0.152
  0.157   0.159   0.160   0.162   0.163   0.164   0.165   0.167
  0.171   0.174   0.177   0.178   0.179   0.180   0.184   0.186
  0.186   0.188   0.189   0.191   0.192   0.193   0.196   0.198
  0.199   0.200   0.202   0.204   0.206   0.211   0.212   0.213
  0.214   0.214   0.218   0.221   0.222   0.224   0.229   0.229
  0.229   0.230   0.231   0.232   0.233   0.233   0.234   0.240
  0.241   0.243   0.243   0.244   0.245   0.247   0.249   0.250
  0.253   0.255   0.256   0.258   0.258   0.259   0.260   0.260
  0.264   0.266   0.266   0.267   0.268   0.273   0.275   0.278
  0.281   0.283   0.283   0.284   0.288   0.289   0.293   0.294
  0.296   0.297   0.301   0.303   0.307   0.315   0.316   0.321
  0.321   0.323   0.324   0.324   0.328   0.333   0.334   0.337
  0.339   0.342   0.348   0.348   0.353   0.353   0.359   0.365
  0.366   0.367   0.378   0.381   0.382   0.384   0.387   0.389
  0.395   0.397   0.399   0.405   0.410   0.420   0.422   0.422
  0.425   0.426   0.431   0.434   0.438   0.441   0.445   0.449
  0.451   0.455   0.464   0.465   0.466   0.470   0.472   0.474
  0.475   0.476   0.479   0.480   0.486   0.487   0.488   0.493
  0.495   0.495   0.499   0.500   0.502   0.503   0.506   0.509
  0.509   0.512   0.515   0.520   0.522   0.525   0.528   0.529
  0.532   0.533   0.537   0.539   0.540   0.542   0.543   0.544
  0.545   0.547   0.547   0.548   0.551   0.552   0.552   0.554
  0.556   0.556   0.561   0.562   0.563   0.564   0.568   0.570
  0.572   0.576   0.578   0.579   0.580   0.580   0.582   0.584
  0.585   0.587   0.588   0.589   0.591   0.592   0.594   0.595
  0.597   0.599   0.599   0.600   0.600   0.602   0.603   0.604
  0.604   0.605   0.608   0.610   0.612   0.613   0.615   0.617
  0.618   0.619   0.623   0.624   0.624   0.627   0.629   0.631
  0.632   0.634   0.634   0.636   0.639   0.640   0.641   0.643
  0.644   0.645   0.646   0.647   0.651   0.654   0.656   0.656
  0.660   0.663   0.665   0.666   0.667   0.671   0.674   0.676
  0.681   0.682   0.684   0.689   0.689   0.691   0.693   0.693
  0.696   0.698   0.700   0.702   0.703   0.704   0.707   0.711
  0.715   0.715   0.719   0.722   0.725   0.727   0.729   0.730
  0.733   0.734   0.738   0.739   0.742   0.746   0.747   0.749
  0.751   0.755   0.760   0.762   0.764   0.767   0.768   0.768
  0.769   0.770   0.772   0.773   0.775   0.776   0.778   0.785
  0.787   0.788   0.791   0.791   0.797   0.797   0.799   0.806
  0.809   0.810   0.814   0.816   0.816   0.823   0.825   0.832
  0.836   0.840   0.847   0.853   0.858   0.860   0.861   0.867
  0.870   0.875   0.886   0.887   0.891   0.892   0.896   0.901
  0.908   0.913   0.920   0.923   0.924   0.926   0.929   0.932
  0.932   0.934   0.937   0.943   0.951   0.952   0.954   0.961
  0.961   0.964   0.964   0.966   0.968   0.970   0.972   0.980
  0.983   0.986   0.987   0.990   0.992   0.996   0.997   0.999
  0.999   1.001   1.001   1.002   1.004   1.010   1.014   1.015
  1.018   1.019   1.020   1.021   1.025   1.026   1.027   1.028
  1.030   1.035   1.037   1.039   1.041   1.043   1.043   1.046
  1.048   1.050   1.052   1.054   1.055   1.057   1.057   1.060
  1.062   1.066   1.067   1.070   1.072   1.073   1.075   1.077
  1.080   1.082   1.083   1.084   1.086   1.086   1.090   1.092
  1.094   1.100   1.102   1.108   1.109   1.110   1.112   1.113
  1.114   1.117   1.121   1.124   1.126   1.129   1.133   1.135
  1.139   1.144   1.145   1.150   1.150   1.152   1.153   1.154
  1.159   1.160   1.160   1.164   1.169   1.173   1.174   1.177
  1.183   1.184   1.191   1.197   1.199   1.200   1.209   1.215
  1.215   1.218   1.220   1.226   1.229   1.234   1.241   1.248
  1.254   1.258   1.261   1.268   1.271   1.272   1.273   1.276
  1.278   1.283   1.285   1.293   1.294   1.296   1.301   1.304
  1.305   1.313   1.315   1.317   1.318   1.319   1.323   1.325
  1.327   1.331   1.333   1.337   1.340   1.346   1.349   1.355
  1.355   1.367   1.368   1.369   1.373   1.375   1.377   1.379
  1.382   1.390   1.391   1.397   1.398   1.399   1.403   1.404
  1.408   1.408   1.409   1.416   1.416   1.420   1.420   1.423
  1.432   1.434   1.445   1.450   1.451   1.452   1.455   1.456
  1.457   1.457   1.466   1.468   1.475   1.481   1.482   1.489
  1.494   1.500   1.501   1.504   1.507   1.509   1.511   1.516
  1.520   1.522   1.526   1.526   1.531   1.533   1.533   1.534
  1.536   1.537   1.540   1.543   1.544   1.545   1.547   1.547
  1.552   1.557   1.558   1.559   1.561   1.565   1.567   1.569
  1.571   1.573   1.576   1.576   1.581   1.584   1.587   1.592
  1.595   1.600   1.600   1.608   1.611   1.615   1.623   1.629
  1.640   1.660   1.662   1.666   1.670   1.684   1.689   1.698
  1.703   1.710   1.715   1.740   1.744   1.758   1.761   1.766
  1.777   1.780   1.783   1.793   1.793   1.807   1.815   1.820
  1.823   1.825   1.826   1.827   1.830   1.832   1.834   1.835
  1.836   1.837   1.841   1.850   1.851   1.861   1.861   1.867
  1.869   1.872   1.874   1.889   1.890   1.894   1.898   1.902
  1.910   1.913   1.915   1.920   1.923   1.926   1.928   1.930
  1.933   1.934   1.935   1.935   1.938   1.946   1.948   1.949
  1.953   1.955   1.958   1.960   1.962   1.965   1.967   1.968
  1.970   1.977   1.983   1.988   1.991   1.995   1.999   1.999
  2.001   2.004   2.005   2.010   2.012   2.015   2.027   2.039
  2.042   2.045   2.048   2.052   2.058   2.063   2.069   2.072
  2.076   2.078   2.082   2.085   2.087   2.094   2.095   2.099
  2.100   2.105   2.109   2.113   2.122   2.126   2.127   2.127
  2.134   2.136   2.141   2.148   2.148   2.155   2.157   2.167
  2.170   2.172   2.175   2.179   2.184   2.186   2.195   2.197
  2.199   2.208   2.210   2.211   2.219   2.219   2.220   2.221
  2.222   2.224   2.230   2.233   2.240   2.246   2.247   2.249
  2.253   2.253   2.258   2.259   2.266   2.267   2.273   2.276
  2.281   2.281   2.288   2.291   2.294   2.295   2.297   2.301
  2.301   2.305   2.307   2.309   2.312   2.313   2.315   2.319
  2.325   2.337   2.337   2.339   2.341   2.343   2.354   2.356
  2.356   2.357   2.358   2.360   2.362   2.364   2.365   2.366
  2.369   2.374   2.377   2.388   2.388   2.390   2.394   2.394
  2.403   2.404   2.405   2.407   2.409   2.414   2.419   2.422
  2.429   2.429   2.432   2.433   2.434   2.436   2.437   2.438
  2.442   2.447   2.452   2.455   2.457   2.458   2.464   2.467
  2.472   2.473   2.478   2.481   2.490   2.492   2.499   2.501
  2.504   2.509   2.511   2.512   2.513   2.514   2.518   2.528
  2.548   2.556   2.561   2.581   2.587   2.593   2.604   2.608
  2.621   2.623   2.636   2.650   2.653   2.658   2.659   2.662
  2.666   2.670   2.676   2.682   2.686   2.694   2.701   2.704
  2.707   2.714   2.722   2.727   2.728   2.735   2.740   2.743
  2.745   2.748   2.748   2.755   2.756   2.762   2.764   2.767
  2.767   2.774   2.776   2.800   2.802   2.803   2.803   2.805
  2.806   2.808   2.808   2.809   2.812   2.822   2.823   2.826
  2.836   2.842   2.845   2.853   2.858   2.866   2.867   2.874
  2.881   2.884   2.890   2.898   2.903   2.904   2.909   2.910
  2.913   2.915   2.922   2.924   2.942   2.949   2.950   2.952
  2.955   2.960   2.963   2.974   2.975   2.997   3.003   3.017
  3.030   3.030   3.032   3.038   3.056   3.076   3.079   3.084
  3.089   3.097   3.101   3.109   3.145   3.158   3.245   3.258
  3.273   3.275   3.283   3.304   3.355   3.401   3.424   3.428
  3.455   3.464   3.471   3.489   3.508   3.510   3.518   3.548
  3.584   3.585   3.637   3.687   3.702   9.633   9.774  13.159
 13.192  13.193  13.244  13.390  13.426  13.441  13.516  13.522
 13.528  13.541  13.566  13.633  13.655  13.683  13.706  13.708
 13.733  13.734  13.749  13.778  13.806  13.811  13.823  13.856
 13.879  13.902  13.906  13.906  13.913  13.931  13.940  13.945
 13.948  13.974  13.985  14.009  14.022  14.023  14.033  14.053
 14.062  14.096  14.143  14.145  14.174  14.176  14.178  14.199
 14.204  14.206  14.213  14.236  14.254  14.258  14.270  14.282
 14.285  14.294  14.324  14.327  14.336  14.361  14.369  14.529
 14.532  14.532  14.567  14.583  14.585  14.596  14.598  14.601
 14.602  14.621  14.622  19.500  19.596
 --------------------------------------------------------------
 
          Ground-State Mulliken Net Atomic Charges

     Atom                 Charge (a.u.)    Spin (a.u.)
  --------------------------------------------------------
      1 C                     0.087886       0.000002
      2 C                     0.324321       0.000011
      3 N                    -0.728220      -0.000023
      4 C                     0.320425       0.000007
      5 C                     0.087709       0.000006
      6 C                    -0.420879      -0.000002
      7 C                     0.109973       0.000007
      8 C                    -0.292995      -0.000002
      9 C                    -0.287229       0.000007
     10 C                    -0.420307       0.000000
     11 C                     0.109866       0.000004
     12 C                    -0.292987      -0.000001
     13 C                    -0.290558       0.000004
     14 C                     0.295826       0.000662
     15 C                    -0.361719      -0.000796
     16 C                     0.039080       0.002926
     17 C                    -0.184393      -0.022920
     18 C                     0.030934       0.002771
     19 C                    -0.358054      -0.000789
     20 B                     0.573250       0.283144
     21 C                    -0.143609       0.049790
     22 C                    -0.395460      -0.050387
     23 C                     0.052312       0.083198
     24 C                     0.075014       0.050540
     25 C                    -0.412758      -0.025544
     26 C                    -0.143228       0.022703
     27 C                     0.179515      -0.045003
     28 C                    -0.077219       0.023288
     29 C                     0.179799      -0.053978
     30 C                     0.229038      -0.038984
     31 C                    -0.363228       0.068864
     32 C                    -0.224840      -0.047889
     33 C                    -0.412505       0.073728
     34 C                    -0.403077       0.085100
     35 C                    -0.226991      -0.052714
     36 C                    -0.360587       0.078798
     37 B                     0.564836       0.326940
     38 C                    -0.139085       0.025583
     39 C                    -0.410181      -0.027245
     40 C                     0.078180       0.052579
     41 C                     0.050571       0.083323
     42 C                    -0.398719      -0.050312
     43 C                    -0.146811       0.049158
     44 C                     0.178955      -0.054365
     45 C                    -0.076029       0.023547
     46 C                     0.179012      -0.045788
     47 C                     0.230565      -0.039612
     48 C                    -0.361176       0.079833
     49 C                    -0.226599      -0.053354
     50 C                    -0.403534       0.086083
     51 C                    -0.413403       0.075303
     52 C                    -0.224720      -0.048829
     53 C                    -0.364287       0.070445
     54 C                    -0.759077       0.000656
     55 C                    -0.762914       0.000576
     56 C                    -0.149408       0.065679
     57 C                     0.026138      -0.031045
     58 C                    -0.354834       0.051738
     59 C                     0.289006      -0.020868
     60 C                    -0.346749       0.053407
     61 C                     0.035548      -0.031708
     62 N                    -0.651587       0.388742
     63 C                     0.323393      -0.102278
     64 C                     0.136983       0.097330
     65 C                     0.133904       0.099429
     66 C                     0.325912      -0.102394
     67 C                    -0.398559      -0.019803
     68 C                     0.145537       0.207394
     69 C                    -0.283622      -0.125477
     70 C                    -0.237218       0.190272
     71 C                    -0.398042      -0.021510
     72 C                     0.145612       0.209838
     73 C                    -0.283948      -0.126739
     74 C                    -0.237445       0.191042
     75 C                    -0.761040       0.004213
     76 C                    -0.757105       0.004431
     77 H                     0.294813      -0.010015
     78 H                     0.267651       0.005570
     79 H                     0.294184      -0.010054
     80 H                     0.267436       0.005628
     81 C                    -0.716973      -0.017109
     82 H                     0.258704       0.000683
     83 C                    -0.716942      -0.016921
     84 H                     0.258413       0.000615
     85 H                     0.260452      -0.002546
     86 H                     0.260800      -0.002430
     87 H                     0.241763       0.001824
     88 H                     0.263282      -0.001437
     89 H                     0.262223      -0.002162
     90 H                     0.240532       0.001670
     91 H                     0.262478      -0.002256
     92 H                     0.259259      -0.001205
     93 H                     0.208903       0.000265
     94 H                     0.223965       0.001859
     95 H                     0.235083      -0.005050
     96 H                     0.224630      -0.004460
     97 H                     0.240970       0.002572
     98 H                     0.234253      -0.004733
     99 H                     0.236123       0.002391
    100 H                     0.234955      -0.004141
    101 H                     0.226182       0.001859
    102 H                     0.208542       0.000257
    103 H                     0.225607      -0.004364
    104 H                     0.235247      -0.004992
    105 H                     0.235027      -0.004045
    106 H                     0.236712       0.002346
    107 H                     0.241158       0.002541
    108 H                     0.234328      -0.004670
    109 H                     0.238718       0.000363
    110 H                     0.241295       0.000329
    111 H                     0.250778      -0.000001
    112 H                     0.229505       0.000000
    113 H                     0.252591      -0.000000
    114 H                     0.229802       0.000000
    115 C                    -0.714297      -0.000001
    116 H                     0.221616       0.000000
    117 C                    -0.714459      -0.000000
    118 H                     0.222004       0.000000
    119 H                     0.239629       0.001613
    120 H                     0.248881      -0.000843
    121 H                     0.248614      -0.000763
    122 H                     0.238217       0.001519
    123 H                     0.246160      -0.000649
    124 H                     0.248694      -0.000764
    125 H                     0.230468      -0.000000
    126 H                     0.233911       0.000000
    127 H                     0.233772       0.000000
    128 H                     0.230397      -0.000000
    129 H                     0.233840       0.000000
    130 H                     0.233936       0.000000
    131 H                     0.247608       0.000255
    132 H                     0.262163       0.012145
    133 H                     0.262104       0.011958
    134 H                     0.247813       0.000259
    135 H                     0.262266       0.012260
    136 H                     0.262057       0.012089
  --------------------------------------------------------
  Sum of atomic charges =    -0.000000
  Sum of spin   charges =     2.000000

 -----------------------------------------------------------------
                    Cartesian Multipole Moments
 -----------------------------------------------------------------
    Charge (ESU x 10^10)
                -0.0000
    Dipole Moment (Debye)
         X      26.1368      Y       5.5119      Z      25.4241
       Tot      36.8768
    Quadrupole Moments (Debye-Ang)
        XX    -569.7620     XY     -27.9736     YY    -470.0663
        XZ    -123.9237     YZ     -23.1128     ZZ    -550.7636
    Octopole Moments (Debye-Ang^2)
       XXX    8527.3497    XXY     901.0292    XYY    2528.2340
       YYY    1797.2348    XXZ    2936.4276    XYZ     186.0366
       YYZ    2131.7687    XZZ    3237.4857    YZZ     814.6205
       ZZZ    7553.3962
    Hexadecapole Moments (Debye-Ang^3)
      XXXX -152767.4725   XXXY  -14910.7678   XXYY  -29075.0388
      XYYY  -10870.6298   YYYY  -25347.8487   XXXZ  -57040.0587
      XXYZ   -8149.2574   XYYZ  -17596.6424   YYYZ  -19787.4284
      XXZZ  -48709.0726   XYZZ   -4908.2475   YYZZ  -22227.8597
      XZZZ  -58412.3163   YZZZ  -20982.4071   ZZZZ -123756.5432
 -----------------------------------------------------------------
 Calculating analytic gradient of the SCF energy
 -2.520215208063294E-004 -2.520079544808800E-004
 -2.519833865951038E-004 -2.520460773160213E-004
 -2.520019593215830E-004 -2.520275703532520E-004
 -2.520167242693412E-004 -2.520127681850464E-004
 -2.520393088689716E-004 -2.519901505807458E-004
 -2.520275873605273E-004 -2.520019491489740E-004
 -2.520203345513587E-004 -2.520091693339692E-004
 -2.520098378718839E-004 -2.520196329679176E-004
 -2.520045561094472E-004 -2.520249928073073E-004
 -2.520459660173735E-004 -2.519835226114646E-004
 -2.520126962525742E-004 -2.520167704290386E-004
 -2.520228393003767E-004 -2.520066918511203E-004
 -2.519852070363987E-004 -2.520442812774018E-004
 -2.520305128250483E-004 -2.519989467657414E-004
 -2.520051070116426E-004 -2.520244177664584E-004
 -2.520263360649509E-004 -2.520031323799293E-004
 -2.520088901137858E-004 -2.520205853982765E-004
 -2.520165874822872E-004 -2.520129324833100E-004
 -2.519973858870898E-004 -2.520321119819309E-004
 -2.520285216570886E-004 -2.520009518477277E-004
 -2.520121738973177E-004 -2.520173387063045E-004
 -2.520480626255707E-004 -2.519814108297767E-004
 -2.520002088637839E-004 -2.520292728347762E-004
 -2.520242197446774E-004 -2.520053044714300E-004
 -2.520208050324273E-004 -2.520086800016924E-004
 -2.520298441123570E-004 -2.519996263967835E-004
 -2.520213922896590E-004 -2.520081436941654E-004
 -2.520037866351425E-004 -2.520256889533766E-004
 -2.520256659032627E-004 -2.520037960800107E-004
 -2.520174663472071E-004 -2.520120565438682E-004
 -2.520240303649470E-004 -2.520054370301686E-004
 -2.519946233123729E-004 -2.520348573691194E-004
 -2.520125416103808E-004 -2.520169773270499E-004
 -2.520049048634134E-004 -2.520245721088329E-004
 -2.520431031417982E-004 -2.519863677182548E-004
 -2.520301600944848E-004 -2.519993605047970E-004
 -2.520351815100247E-004 -2.519942907298773E-004
 -2.520085610711391E-004 -2.520209043097112E-004
 -2.520259679140539E-004 -2.520035791297537E-004
 -2.520507821585132E-004 -2.519786863745978E-004
 -2.520320833935532E-004 -2.519973775550114E-004
 -2.520446730046077E-004 -2.519848131649451E-004
 -2.520027524258545E-004 -2.520267143330314E-004
 -2.520044322179876E-004 -2.520250089139582E-004
 -2.519887160972157E-004 -2.520407629034512E-004
 -2.520546316476102E-004 -2.519748367600958E-004
 -2.520448954186826E-004 -2.519845613223574E-004
 -2.520234406222615E-004 -2.520060232527050E-004
 -2.519916829330842E-004 -2.520377816038207E-004
 -2.520013963914739E-004 -2.520280718196189E-004
 -2.520032534777326E-004 -2.520262131325375E-004
 -2.520400474277797E-004 -2.519894215559542E-004
 -2.520103025537650E-004 -2.520191506782023E-004
 -2.520653075428498E-004 -2.519641561012457E-004
 -2.519822910492875E-004 -2.520471961723374E-004
 -2.519992359690290E-004 -2.520302175582725E-004
 -2.520147771953246E-004 -2.520146657698328E-004
 -2.520167198935836E-004 -2.520127593882735E-004
 -2.520123356605179E-004 -2.520171924363217E-004
 -2.520103787385320E-004 -2.520191215063286E-004
 -2.519995164797027E-004 -2.520299609260378E-004
 -2.520130088438783E-004 -2.520165352835450E-004
 -2.519948992344688E-004 -2.520346010114394E-004
 -2.520176582233277E-004 -2.520118109038473E-004
 -2.520200387966053E-004 -2.520095025583979E-004
 -2.520161441479285E-004 -2.520133631247242E-004
 -2.519890657473030E-004 -2.520404130433191E-004
 -2.520263362684473E-004 -2.520031947113777E-004
 -2.520064074966653E-004 -2.520230902003056E-004
 -2.520228901722261E-004 -2.520065831972458E-004
 -2.520272886209128E-004 -2.520022464489341E-004
 -2.520312205850998E-004 -2.519982883332520E-004
 -2.520036001110515E-004 -2.520258820818408E-004
 -2.520224118583173E-004 -2.520071267263921E-004
 -2.520143334432355E-004 -2.520151679148900E-004
 -2.520379161789707E-004 -2.519915592618154E-004
 -2.520159549265482E-004 -2.520135852542594E-004
 -2.520211917846670E-004 -2.520083128277880E-004
 -2.520136868883990E-004 -2.520157922437347E-004
 -2.520262706929554E-004 -2.520032582580347E-004
 -2.520276657267977E-004 -2.520018229154857E-004
 -2.520055720513103E-004 -2.520239289969261E-004
 -2.520224757704804E-004 -2.520070516322043E-004
 -2.520214583613056E-004 -2.520080497991921E-004
 -2.520010583470735E-004 -2.520284063740962E-004
 -2.520241052126999E-004 -2.520054278817449E-004
 -2.520146801598233E-004 -2.520148196746007E-004
 -2.520266789268815E-004 -2.520027910135172E-004
 -2.519923483987752E-004 -2.520371635496887E-004
 -2.519994112815229E-004 -2.520300752290200E-004
 -2.520040031097233E-004 -2.520254588014600E-004
 -2.520240173234411E-004 -2.520054842317418E-004
 -2.520247676941421E-004 -2.520047262019577E-004
 -2.520335247359273E-004 -2.519959455302587E-004
 -2.519997550502532E-004 -2.520297639482462E-004
 -2.520116998732829E-004 -2.520177798413874E-004
 -2.520144313281014E-004 -2.520150418721168E-004
 -2.520303801259417E-004 -2.519991459517460E-004
 -2.520388863227367E-004 -2.519906262981587E-004
 -2.519854422285817E-004 -2.520440494343862E-004
 -2.520282047252619E-004 -2.520013117363407E-004
 -2.520114792615202E-004 -2.520180188219042E-004
 -2.520130076485139E-004 -2.520164466552792E-004
 -2.520009698508106E-004 -2.520285505696467E-004
 -2.519984455122097E-004 -2.520310469784555E-004
 -2.520107965766944E-004 -2.520187042046192E-004
 -2.520242042480750E-004 -2.520052898168315E-004
 -2.520303778703955E-004 -2.519991052837640E-004
 -2.520127071274127E-004 -2.520167754984686E-004
 -2.520177495858625E-004 -2.520117772513706E-004
 -2.520167266712804E-004 -2.520127729706395E-004
 -2.520314514025061E-004 -2.519980228617182E-004
 -2.520219955205717E-004 -2.520075472513252E-004
 -2.520302011275758E-004 -2.519992991274101E-004
 -2.520141388339563E-004 -2.520153270505988E-004
 -2.520123384461387E-004 -2.520172110703735E-004
 -2.520094994391110E-004 -2.520200060460750E-004
 -2.520410411826223E-004 -2.519884303146304E-004
 -2.520108086385747E-004 -2.520187385599412E-004
 -2.520193795279769E-004 -2.520101100499315E-004
 -2.520093737201600E-004 -2.520200905408736E-004
 -2.520052247336588E-004 -2.520243268906830E-004
 -2.519956171795745E-004 -2.520338828595772E-004
 -2.520260225723645E-004 -2.520034547299832E-004
 -2.520104082389512E-004 -2.520191402907904E-004
 -2.520124241725146E-004 -2.520170721170820E-004
 -2.519946698242353E-004 -2.520347999904579E-004
 -2.520177703278322E-004 -2.520117760908174E-004
 -2.520035409544362E-004 -2.520259645404558E-004
 -2.520156957802870E-004 -2.520137712590418E-004
 -2.520062756439995E-004 -2.520232695118817E-004
 -2.520017169375663E-004 -2.520277663978805E-004
 -2.520238856393935E-004 -2.520055980185830E-004
 -2.520062022685017E-004 -2.520233506028114E-004
 -2.520081048116230E-004 -2.520213941941062E-004
 -2.520305824959598E-004 -2.519988767495322E-004
 -2.520097006139174E-004 -2.520198462090082E-004
 -2.520140685055300E-004 -2.520154210710007E-004
 -2.519949928990470E-004 -2.520344680150422E-004
 -2.520300861491946E-004 -2.519994438878886E-004
 -2.520340877193424E-004 -2.519953903412759E-004
 -2.520284932619415E-004 -2.520009520902184E-004
 -2.520046084591388E-004 -2.520249212376127E-004
 -2.520092833492330E-004 -2.520202014519752E-004
 -2.519914070828047E-004 -2.520380535801390E-004
 -2.520220958833240E-004 -2.520074383391247E-004
 -2.520194707535447E-004 -2.520099997217669E-004
 -2.520157079446097E-004 -2.520137512998282E-004
 -2.519970065793077E-004 -2.520325429540073E-004
 -2.519914431149448E-004 -2.520380605972819E-004
 -2.520439840891942E-004 -2.519855010337659E-004
 -2.520054172121070E-004 -2.520241243777228E-004
 -2.520139600775852E-004 -2.520155241402103E-004
 -2.520120940011232E-004 -2.520173547578851E-004
 -2.520268561123941E-004 -2.520026812662870E-004
 -2.520351780723862E-004 -2.519943020430365E-004
 -2.520205192789759E-004 -2.520089529886126E-004
 -2.520024494003773E-004 -2.520270783559272E-004
 -2.520021229704328E-004 -2.520273444169424E-004
 -2.520154199671358E-004 -2.520140576000967E-004
 -2.519979346460848E-004 -2.520315234989842E-004
 -2.520274377580773E-004 -2.520020136175868E-004
 -2.520187561498072E-004 -2.520107234266015E-004
 -2.520223068379062E-004 -2.520071385689772E-004
 -2.520057779826443E-004 -2.520236806607579E-004
 -2.520313680583398E-004 -2.519980995390118E-004
 -2.520111265452059E-004 -2.520183429377499E-004
 -2.520370990734900E-004 -2.519923698765586E-004
 -2.519746091722801E-004 -2.520548667575353E-004
 -2.519857994028752E-004 -2.520436594498523E-004
 -2.519890806464118E-004 -2.520403787741425E-004
 -2.520372839967475E-004 -2.519921901119045E-004
 -2.519970029476235E-004 -2.520324329912404E-004
 -2.520372598298026E-004 -2.519922210382182E-004
 -2.519825191216381E-004 -2.520469442969253E-004
 -2.520110056232997E-004 -2.520184892411246E-004
 -2.519781647697484E-004 -2.520512965388085E-004
 -2.520285854527525E-004 -2.520008921208554E-004
 -2.520292249087819E-004 -2.520002264129854E-004
 -2.520384362464174E-004 -2.519910281046498E-004
 -2.519907222357665E-004 -2.520387454769317E-004
 -2.520353346113263E-004 -2.519941282291468E-004
 -2.519717061283474E-004 -2.520577606469631E-004
 -2.520168161728225E-004 -2.520126620605791E-004
 -2.520141690989222E-004 -2.520153972716517E-004
 -2.520234276670324E-004 -2.520060492508651E-004
 -2.519838826850676E-004 -2.520455787310140E-004
 -2.520141385997186E-004 -2.520154150041778E-004
 -2.520091745090774E-004 -2.520202914822782E-004
 -2.520497798187757E-004 -2.519796836357475E-004
 -2.520168637963939E-004 -2.520126817830819E-004
 -2.520087800580498E-004 -2.520206805545177E-004
 -2.520022622479151E-004 -2.520271970009414E-004
 -2.520181641649343E-004 -2.520113845667765E-004
 -2.520483471352041E-004 -2.519811128233849E-004
 -2.520159509504480E-004 -2.520135199145430E-004
 -2.520061612347514E-004 -2.520233944336468E-004
 -2.519863239136933E-004 -2.520431320782434E-004
 -2.520020528440422E-004 -2.520273948558036E-004
 -2.520166134982982E-004 -2.520129306001489E-004
 -2.520190119104442E-004 -2.520104587193971E-004
 -2.520352450804557E-004 -2.519942342840457E-004
 -2.520165147751868E-004 -2.520130165920929E-004
 -2.520044546688390E-004 -2.520250106075617E-004
 -2.519778781910278E-004 -2.520515763748435E-004
 -2.520167352560114E-004 -2.520128080675151E-004
 -2.520194336116844E-004 -2.520100379977014E-004
 -2.520150718571736E-004 -2.520143908382032E-004
 -2.520149489192736E-004 -2.520146078831665E-004
 -2.519960101288511E-004 -2.520334533450747E-004
 -2.520257348908613E-004 -2.520037320109669E-004
 -2.520127319276784E-004 -2.520168132264500E-004
 -2.520051139391955E-004 -2.520243352765231E-004
 -2.520008637989889E-004 -2.520285981935033E-004
 -2.520155685298501E-004 -2.520139648418452E-004
 -2.520327649424377E-004 -2.519967051790663E-004
 -2.520288236879190E-004 -2.520006500331887E-004
 -2.520068052865885E-004 -2.520227389420048E-004
 -2.519828039602931E-004 -2.520466472340332E-004
 -2.519921280480540E-004 -2.520373313051115E-004
 -2.520071803349961E-004 -2.520223805837451E-004
 -2.520151257460457E-004 -2.520143391611585E-004
 -2.520153134669970E-004 -2.520141639846737E-004
 -2.520238526397219E-004 -2.520055865801245E-004
 -2.520094664911813E-004 -2.520200006629202E-004
 -2.520043680653934E-004 -2.520250996085515E-004
 -2.519983525567724E-004 -2.520310829834921E-004
 -2.520226626369636E-004 -2.520068207997233E-004
 -2.519910491522769E-004 -2.520383977350728E-004
 -2.520087575143948E-004 -2.520207572430423E-004
 -2.520121418428157E-004 -2.520173486523327E-004
 -2.520105082819912E-004 -2.520189457478418E-004
 -2.520095778214904E-004 -2.520199038606983E-004
 -2.520046619130522E-004 -2.520247862920167E-004
 -2.520158577099553E-004 -2.520136286850089E-004
 -2.520127630874048E-004 -2.520167521114437E-004
 -2.519922600441133E-004 -2.520371858834168E-004
 -2.520027163826371E-004 -2.520267395103922E-004
 -2.520157405631787E-004 -2.520137381416438E-004
 -2.520099221126041E-004 -2.520195298405208E-004
 -2.520456436225361E-004 -2.519838022688470E-004
 -2.520163140254442E-004 -2.520131773966892E-004
 -2.520053280096880E-004 -2.520241228006233E-004
 -2.520133729107421E-004 -2.520161054726682E-004
 -2.520183406743179E-004 -2.520111644046116E-004
 -2.520341253610321E-004 -2.519953024927109E-004
 -2.519997396057281E-004 -2.520297055929404E-004
 -2.520186514862533E-004 -2.520108399087520E-004
 -2.520435047362229E-004 -2.519859473835449E-004
 -2.520356466129040E-004 -2.519937806899449E-004
 -2.520168899057400E-004 -2.520126179316305E-004
 -2.520159278178813E-004 -2.520135499577537E-004
 -2.520004364879501E-004 -2.520290445586785E-004
 -2.520305312775024E-004 -2.519989030606542E-004
 -2.520091279811249E-004 -2.520203298326274E-004
 -2.520090862967878E-004 -2.520203722258954E-004
 -2.520002027768243E-004 -2.520292183006073E-004
 -2.520019509645689E-004 -2.520275285100363E-004
 -2.520043009143462E-004 -2.520251731631970E-004
 -2.520183566058469E-004 -2.520110746183147E-004
 -2.519979823280443E-004 -2.520314919208530E-004
 -2.519986734592849E-004 -2.520307902907294E-004
 -2.520227026927607E-004 -2.520067623337658E-004
 -2.520163817724145E-004 -2.520130789100761E-004
 -2.520174603485664E-004 -2.520120075023863E-004
 -2.520083180426618E-004 -2.520211429028340E-004
 -2.520020983473350E-004 -2.520273803446611E-004
 -2.520036246273852E-004 -2.520258532062040E-004
 -2.520103301435633E-004 -2.520191099025116E-004
 -2.520125718946946E-004 -2.520169042577876E-004
 -2.520036941584163E-004 -2.520257830944336E-004
 -2.520196783155682E-004 -2.520097725968272E-004
 -2.520167591295598E-004 -2.520127147880668E-004
 -2.520167522170621E-004 -2.520127062117962E-004
 -2.520067415063919E-004 -2.520227255134683E-004
 -2.520051148540729E-004 -2.520243477816400E-004
 -2.520340104261201E-004 -2.519954567138285E-004
 -2.520162483361531E-004 -2.520132704669142E-004
 -2.520257127843870E-004 -2.520037779343442E-004
 -2.520003148489078E-004 -2.520291590607293E-004
 -2.520076761561875E-004 -2.520218380140570E-004
 -2.519991545586419E-004 -2.520303340345285E-004
 -2.520142881598473E-004 -2.520151753786924E-004
 -2.520077155032954E-004 -2.520217873567479E-004
 -2.520045381621264E-004 -2.520249394295615E-004
 -2.520281990241691E-004 -2.520012734170891E-004
 -2.520156995361768E-004 -2.520137988618368E-004
 -2.520107347223491E-004 -2.520187401512022E-004
 -2.520200707818520E-004 -2.520093829981263E-004
 -2.520069958985899E-004 -2.520224836174688E-004
 -2.520096076891871E-004 -2.520198481109077E-004
 -2.520046198590154E-004 -2.520248356751165E-004
 -2.520225041102983E-004 -2.520069891665932E-004
 -2.520257418780957E-004 -2.520037393717236E-004
 -2.520219294587594E-004 -2.520075172187616E-004
 -2.520097923091160E-004 -2.520196858663481E-004
 -2.520098354923347E-004 -2.520196265770057E-004
 -2.520032400239324E-004 -2.520262358831847E-004
 -2.520219077385226E-004 -2.520075830741482E-004
 -2.520247714803904E-004 -2.520046917458276E-004
 -2.519978730379813E-004 -2.520315931069343E-004
 -2.520180956534832E-004 -2.520114173125314E-004
 -2.520021581662087E-004 -2.520273356599172E-004
 -2.520289877405924E-004 -2.520004876663541E-004
 -2.520187339744444E-004 -2.520107825769675E-004
 -2.520322955380682E-004 -2.519971908876297E-004
 -2.520155517000689E-004 -2.520139131764098E-004
 -2.520193007401194E-004 -2.520101940105468E-004
 -2.520262480964396E-004 -2.520032336704041E-004
 -2.520059396301038E-004 -2.520235416503239E-004
 -2.520290053311983E-004 -2.520004817856914E-004
 -2.520123149032258E-004 -2.520171608430784E-004
 -2.520214661307683E-004 -2.520080047185196E-004
 -2.520014672411180E-004 -2.520280020208486E-004
 -2.520063458013467E-004 -2.520231434907217E-004
 -2.520088210453495E-004 -2.520206414935648E-004
 -2.520193725561090E-004 -2.520101031841245E-004
 -2.520231006355742E-004 -2.520063551034871E-004
 -2.520083907918781E-004 -2.520210523372073E-004
 -2.520206597901466E-004 -2.520088212697173E-004
 -2.520175000234434E-004 -2.520119603976036E-004
 -2.520218424923690E-004 -2.520076477681288E-004
 -2.520010808250314E-004 -2.520283829096872E-004
 -2.520079373309965E-004 -2.520215413191580E-004
 -2.520343115986100E-004 -2.519951536485174E-004
 -2.520162843779388E-004 -2.520131520670972E-004
 -2.520099111527124E-004 -2.520195573666330E-004
 -2.520177173096500E-004 -2.520117582056290E-004
 -2.520178722631569E-004 -2.520115817105149E-004
 -2.520353536343303E-004 -2.519940755758982E-004
 -2.520185086199374E-004 -2.520109743491654E-004
 -2.520345897774461E-004 -2.519948617690083E-004
 -2.520208828674948E-004 -2.520086262238380E-004
 -2.520259678727975E-004 -2.520034943721620E-004
 -2.520146909651663E-004 -2.520147723777268E-004
 -2.520198563433918E-004 -2.520096090123279E-004
 -2.520350475706552E-004 -2.519944135401345E-004
 -2.520105453135150E-004 -2.520189476784326E-004
 -2.520258964721745E-004 -2.520036110521421E-004
 -2.520182765602474E-004 -2.520111812916620E-004
 -2.520180613042200E-004 -2.520113945405687E-004
 -2.520257202676863E-004 -2.520037535273784E-004
 -2.520248359232944E-004 -2.520046143797912E-004
 -2.519828140019331E-004 -2.520466472996710E-004
 -2.520079140312826E-004 -2.520215609122483E-004
 -2.519941448285760E-004 -2.520352920613952E-004
 -2.520200846581436E-004 -2.520094021743273E-004
 -2.520083612936911E-004 -2.520211295450806E-004
 -2.519869931548142E-004 -2.520424533822712E-004
 -2.520319418361124E-004 -2.519975150395259E-004
 -2.520123503382996E-004 -2.520171346304899E-004
 -2.520122141019385E-004 -2.520172634451693E-004
 -2.519968819101635E-004 -2.520325655262154E-004
 -2.520065292689985E-004 -2.520229563490189E-004
 -2.520292452390778E-004 -2.520002354212282E-004
 -2.520256038815550E-004 -2.520038420480554E-004
 -2.520201825247996E-004 -2.520092695799978E-004
 -2.520132669043631E-004 -2.520161999801127E-004
 -2.520247056389901E-004 -2.520047658225521E-004
 -2.520244547711147E-004 -2.520050184640386E-004
 -2.520306089294499E-004 -2.519988618420817E-004
 -2.520088897664608E-004 -2.520205627867257E-004
 -2.520108941217335E-004 -2.520185692477903E-004
 -2.520226656931136E-004 -2.520068125377941E-004
 -2.520088371513263E-004 -2.520206163788205E-004
 -2.520232520185200E-004 -2.520062100174018E-004
 -2.520133366125077E-004 -2.520161307774220E-004
 -2.520201710271262E-004 -2.520092847578463E-004
 -2.520260667148883E-004 -2.520034035295004E-004
 -2.520270333081142E-004 -2.520024351554817E-004
 -2.520090688225205E-004 -2.520204003344877E-004
 -2.520136026080767E-004 -2.520158562937253E-004
 -2.520149368956205E-004 -2.520145231615023E-004
 -2.520087069362982E-004 -2.520207396274673E-004
 -2.520129352379510E-004 -2.520165373957642E-004
 -2.520186720697768E-004 -2.520107808992834E-004
 -2.520060929076423E-004 -2.520233728668262E-004
 -2.520203479218965E-004 -2.520091115300802E-004
 -2.520246013937165E-004 -2.520048443150675E-004
 -2.520127243132297E-004 -2.520167469445877E-004
 -2.520110882773409E-004 -2.520183761188632E-004
 -2.520062430583073E-004 -2.520232019374704E-004
 -2.520185452599665E-004 -2.520109161569693E-004
 -2.520127338906507E-004 -2.520167414779061E-004
 -2.520145938390635E-004 -2.520148688540801E-004
 -2.520246038972570E-004 -2.520048525149930E-004
 -2.520127436613990E-004 -2.520167144687864E-004
 -2.520110465350404E-004 -2.520184072313671E-004
 -2.520219645309918E-004 -2.520075031246665E-004
 -2.520221643074715E-004 -2.520072879238593E-004
 -2.520225833646868E-004 -2.520068540640968E-004
 -2.520155905439374E-004 -2.520138919521516E-004
 -2.520135285868219E-004 -2.520159323722275E-004
 -2.520187588221698E-004 -2.520107075814525E-004
 -2.520197876154430E-004 -2.520096773508600E-004
 -2.520066664837544E-004 -2.520227792897383E-004
 -2.520177807715567E-004 -2.520116794385693E-004
 -2.520083623414973E-004 -2.520211009431149E-004
 -2.520068558371369E-004 -2.520225993440446E-004
 -2.520129203219531E-004 -2.520165362784409E-004
 -2.520158343843453E-004 -2.520136459310092E-004
 -2.520207584914064E-004 -2.520086848989866E-004
 -2.520074591578638E-004 -2.520219936461997E-004
 -2.520083112346468E-004 -2.520211530722011E-004
 -2.520186067263372E-004 -2.520108565728118E-004
 -2.520057491702782E-004 -2.520237030254731E-004
 -2.520206578304611E-004 -2.520088073536950E-004
 -2.520162584165951E-004 -2.520132029496986E-004
 Gradient of SCF Energy
            1           2           3           4           5           6
    1  -0.0083713  -0.0020448  -0.0043255   0.0015426   0.0032639  -0.0013488
    2   0.0055124   0.0017091  -0.0022939  -0.0026972  -0.0094565  -0.0042233
    3  -0.0001219   0.0003523  -0.0032679  -0.0001634  -0.0022711  -0.0029302
            7           8           9          10          11          12
    1   0.0008485  -0.0018022  -0.0003501  -0.0048360  -0.0149905  -0.0062118
    2  -0.0153767  -0.0054526   0.0012161   0.0009817   0.0082033   0.0012745
    3  -0.0075557  -0.0036868  -0.0000195  -0.0018910  -0.0028709  -0.0024945
           13          14          15          16          17          18
    1   0.0007531   0.0043816   0.0006615  -0.0051781  -0.0023519  -0.0027966
    2  -0.0011039   0.0021157  -0.0018884  -0.0057618  -0.0014589   0.0028665
    3   0.0001966   0.0030783   0.0001579   0.0010045  -0.0018952  -0.0075787
           19          20          21          22          23          24
    1  -0.0001835  -0.0043149   0.0195495  -0.0103506   0.0094436  -0.0145538
    2   0.0021181  -0.0016936  -0.0090719   0.0063624   0.0055004  -0.0013666
    3   0.0001079  -0.0029593  -0.0028599   0.0035055   0.0130324  -0.0099799
           25          26          27          28          29          30
    1  -0.0073315  -0.0012634   0.0068466  -0.0026867   0.0032517   0.0006690
    2   0.0075085  -0.0139011  -0.0057726   0.0018846  -0.0078685  -0.0007870
    3   0.0066373  -0.0214554  -0.0035908   0.0013962  -0.0083506  -0.0006888
           31          32          33          34          35          36
    1  -0.0022799  -0.0024899  -0.0067246   0.0018992   0.0025604  -0.0047843
    2   0.0036568  -0.0013752   0.0004205   0.0031783  -0.0004541   0.0033203
    3   0.0033404  -0.0032164  -0.0034368   0.0051778   0.0008519   0.0014565
           37          38          39          40          41          42
    1   0.0126408  -0.0238439   0.0075608  -0.0115789   0.0152719   0.0040238
    2   0.0015443   0.0085672  -0.0072107  -0.0042492   0.0001978  -0.0079006
    3   0.0122817  -0.0005280  -0.0069678  -0.0125965   0.0083351  -0.0094540
           43          44          45          46          47          48
    1  -0.0024236  -0.0096568   0.0015501  -0.0044653  -0.0008226   0.0019053
    2   0.0132965   0.0055032  -0.0022048   0.0053805   0.0006867  -0.0035032
    3   0.0173621   0.0037104  -0.0024013   0.0063420   0.0006745  -0.0046417
           49          50          51          52          53          54
    1   0.0009969   0.0064474  -0.0043360  -0.0038315   0.0039845   0.0055017
    2   0.0011337  -0.0010748  -0.0023806  -0.0000408  -0.0028083   0.0042494
    3   0.0022918   0.0017082  -0.0065107  -0.0022437  -0.0025601   0.0019916
           55          56          57          58          59          60
    1   0.0039599   0.0002380  -0.0044054   0.0011161   0.0039815  -0.0112425
    2  -0.0005974  -0.0000808   0.0027243   0.0056419   0.0014025  -0.0076733
    3   0.0057430  -0.0001134  -0.0064018  -0.0125940   0.0042491   0.0022587
           61          62          63          64          65          66
    1  -0.0056738  -0.0093456  -0.0001634   0.0109190  -0.0268064   0.0031820
    2  -0.0039806  -0.0035088   0.0035427  -0.0025965  -0.0006911  -0.0023766
    3  -0.0036971  -0.0091636   0.0012439  -0.0264712   0.0098563   0.0009029
           67          68          69          70          71          72
    1  -0.0211797   0.0097535   0.0066226   0.0116319   0.0258705   0.0269122
    2   0.0032466   0.0053428   0.0022561  -0.0002460  -0.0017262   0.0033312
    3   0.0240676   0.0270524   0.0094670  -0.0010060  -0.0191344   0.0114052
           73          74          75          76          77          78
    1   0.0094223  -0.0020029  -0.0044996  -0.0065673  -0.0083502  -0.0104341
    2   0.0013834   0.0022700   0.0021152  -0.0043639  -0.0015273   0.0006567
    3   0.0075263   0.0117133  -0.0074043  -0.0036418  -0.0038440   0.0056861
           79          80          81          82          83          84
    1  -0.0035847   0.0066073  -0.0320958   0.0073593  -0.0053559   0.0133300
    2  -0.0011887  -0.0014262  -0.0030257   0.0028694  -0.0058246   0.0017290
    3  -0.0089975  -0.0101721  -0.0072374   0.0137181  -0.0319071   0.0080887
           85          86          87          88          89          90
    1   0.0059387   0.0012798   0.0004419   0.0016223   0.0006997   0.0020431
    2   0.0056848  -0.0041766  -0.0012331  -0.0015990  -0.0002360   0.0020236
    3   0.0004398   0.0066816   0.0022202   0.0021037   0.0030110   0.0003144
           91          92          93          94          95          96
    1   0.0026506   0.0017436  -0.0014599   0.0055900   0.0008790   0.0002907
    2   0.0011127   0.0020079  -0.0006716   0.0019395   0.0022142   0.0002509
    3   0.0005136   0.0009174  -0.0016708   0.0055554   0.0038487   0.0008362
           97          98          99         100         101         102
    1   0.0020732   0.0010416   0.0005951   0.0006828   0.0067706  -0.0022323
    2  -0.0000993  -0.0007935   0.0000498  -0.0003136   0.0010078  -0.0001536
    3   0.0008616  -0.0007466   0.0005354  -0.0001134   0.0048640  -0.0014189
          103         104         105         106         107         108
    1   0.0006799   0.0043720  -0.0002500   0.0001809   0.0011738  -0.0008323
    2  -0.0002860  -0.0012998   0.0006847   0.0002002   0.0009914   0.0011535
    3  -0.0000404   0.0008056   0.0007025   0.0003452   0.0018884   0.0009546
          109         110         111         112         113         114
    1   0.0014792   0.0035180  -0.0033685   0.0012809  -0.0043543  -0.0025537
    2  -0.0020670   0.0046887  -0.0024535  -0.0029876  -0.0012884   0.0025427
    3   0.0047529  -0.0004898  -0.0031219  -0.0010925  -0.0030345   0.0000337
          115         116         117         118         119         120
    1   0.0040392   0.0028317   0.0189642   0.0020617   0.0029210  -0.0003026
    2   0.0172433   0.0007276  -0.0052827   0.0017974   0.0029866  -0.0043201
    3   0.0108845   0.0017622   0.0063605   0.0019153   0.0000188  -0.0040508
          121         122         123         124         125         126
    1  -0.0057245   0.0014512   0.0002138  -0.0054800   0.0060067   0.0065189
    2   0.0009546  -0.0014624  -0.0029389   0.0021697  -0.0027127  -0.0024773
    3   0.0006143   0.0035031  -0.0049950  -0.0006383   0.0014349   0.0008517
          127         128         129         130         131         132
    1   0.0059088   0.0002825  -0.0000966   0.0005806   0.0138263  -0.0040904
    2  -0.0031364   0.0059742   0.0057957   0.0064907  -0.0001496   0.0085764
    3   0.0021259   0.0031419   0.0038665   0.0026160  -0.0032653  -0.0052475
          133         134         135         136
    1  -0.0033843  -0.0041438  -0.0027896  -0.0037944
    2  -0.0102018   0.0021079  -0.0104157   0.0086905
    3  -0.0018398   0.0135072  -0.0023907  -0.0056300
 Max gradient component =       3.210E-02
 RMS gradient           =       6.908E-03
 Computing fast IEFPCM-SWIG gradient.
 Updating gradient with PCM contributions...
 -- total gradient after adding PCM contribution --
---------------------------------------------------
  Atom         X              Y              Z     
---------------------------------------------------
   1      -0.004758      -0.000080      -0.001183
   2      -0.002362       0.001374       0.000011
   3       0.000339       0.000135       0.000295
   4       0.000990      -0.002859      -0.000576
   5      -0.000247      -0.003778      -0.001781
   6      -0.004295      -0.005403      -0.004974
   7       0.000973      -0.021356      -0.010530
   8      -0.000950      -0.009271      -0.005246
   9      -0.000598       0.001865       0.000554
  10      -0.007604      -0.000730      -0.003984
  11      -0.020763       0.011206      -0.004093
  12      -0.009555       0.003920      -0.002687
  13       0.001516      -0.001128      -0.000064
  14      -0.000083       0.000158      -0.000436
  15       0.000331      -0.000091       0.001019
  16       0.000952       0.000960      -0.000056
  17      -0.000997      -0.000495      -0.000659
  18       0.000475      -0.000674       0.000892
  19       0.000916       0.001120      -0.000087
  20      -0.008688      -0.003224      -0.006368
  21       0.019910      -0.007925      -0.002044
  22      -0.008953       0.007301       0.005126
[...]
     98  H       -12.5546430365    2.7594732906   -1.0305467536
     99  H        -8.4434611069    3.2667333702    1.6044636659
    100  H       -10.7522481895    3.4620463813    0.8345516373
    101  H        -5.4655399037   -3.9427859920   -7.2550531909
    102  H        -2.0322702994   -2.8109444620   -3.8345055272
    103  H         0.2235561137   -4.3994390677   -4.3863869021
    104  H        -4.4045359318   -5.8495999382   -8.9071768189
    105  H         1.2032844422   -7.3726651803   -7.3284861607
    106  H         1.7819950013   -6.0327456652   -5.3707083136
    107  H        -2.9317424867   -7.5122398286   -9.9776198897
    108  H        -0.6729316864   -7.9605726303   -9.1616306079
    109  H        -8.4129871710   -0.7765295952   -9.5077820729
    110  H       -10.2066673342   -4.1246398103   -7.5584332742
    111  H       -10.9184666735    0.0337198806   -8.3477751120
    112  H       -12.8552502233    1.4026927866   -8.9822083863
    113  H        -9.1255585011   -4.9635979215  -10.0506785657
    114  H        -9.9887067346   -6.5653130307  -11.6936705080
    115  C       -12.1444663911   -6.3770850129  -13.3137266223
    116  H       -13.1894751447   -3.9247294821  -12.7386926953
    117  C       -14.7612692707    0.9328772863  -10.8436145309
    118  H       -14.0580814938   -1.4748646793  -11.9139974113
    119  H        -9.3092685593   -5.0282996540   -5.5941450386
    120  H        -8.5991403441   -3.8336971278   -4.5091559486
    121  H        -7.5577523582   -4.8938282487   -5.4370023141
    122  H        -6.5329304441    0.2925268966   -8.6347427634
    123  H        -6.4263621517    0.3040526855   -6.8748711747
    124  H        -5.4047923380   -0.7765358793   -7.8022818714
    125  H       -15.3677250152    0.4836941207  -11.6296848296
    126  H       -15.4091402754    1.0925633644   -9.9797134764
    127  H       -14.4458303460    1.9172759477  -11.1938287675
    128  H       -13.0354353275   -6.0278730736  -13.8347859256
    129  H       -11.3900953290   -6.6061103657  -14.0685782084
    130  H       -12.3995609565   -7.3173116328  -12.8211503747
    131  H         1.5972385048    2.0486285309    5.5148510067
    132  H        -0.1142006736    2.4525816567    5.6430424340
    133  H         0.4263461902    0.8209434425    5.9946270327
    134  H         5.6670815800    2.3329613113   -0.6002732813
    135  H         5.7178892729    1.1505734338   -1.9078594145
    136  H         5.1189137775    2.7697445945   -2.2179554688
   Point Group: c1    Number of degrees of freedom:   402


   Energy is  -3082.405602422

 Hessian Updated using BFGS Update

380 Hessian modes will be used to form the next step
  Hessian Eigenvalues:
     0.004444    0.008460    0.008810    0.008822    0.008893    0.009453
     0.010387    0.011327    0.013064    0.014519    0.015242    0.015339
     0.015770    0.015789    0.015801    0.016250    0.016298    0.016958
     0.017104    0.017116    0.017385    0.017524    0.017712    0.017968
     0.017995    0.018227    0.018448    0.018632    0.018743    0.019023
     0.019275    0.019374    0.019448    0.019759    0.019873    0.020069
     0.020199    0.020418    0.020445    0.020462    0.020548    0.020601
     0.020626    0.020669    0.020680    0.020753    0.020994    0.021085
     0.021099    0.021180    0.021356    0.021409    0.021419    0.021507
     0.021579    0.021622    0.021656    0.021718    0.021747    0.021785
     0.021827    0.021958    0.022212    0.022238    0.022311    0.022460
     0.022477    0.022651    0.022722    0.022761    0.022904    0.023107
     0.023120    0.023148    0.023163    0.023299    0.023333    0.023343
     0.023358    0.023374    0.023445    0.023468    0.023582    0.023591
     0.023605    0.023627    0.023656    0.023671    0.023677    0.023790
     0.023798    0.023814    0.023824    0.023875    0.023962    0.023996
     0.024056    0.024066    0.024081    0.024111    0.024128    0.024141
     0.024152    0.024167    0.024170    0.024181    0.024193    0.024280
     0.024316    0.024329    0.024360    0.024498    0.024773    0.024798
     0.025442    0.028625    0.032037    0.071407    0.071454    0.071624
     0.071790    0.072276    0.072330    0.072501    0.072601    0.079716
     0.079807    0.079878    0.079885    0.079886    0.079893    0.079899
     0.079940    0.153491    0.155346    0.158926    0.159252    0.159961
     0.159971    0.159978    0.159986    0.159993    0.159995    0.159996
     0.159996    0.159997    0.159997    0.159998    0.159998    0.159998
     0.159999    0.159999    0.159999    0.159999    0.159999    0.159999
     0.160000    0.160000    0.160000    0.160000    0.160216    0.160255
     0.160693    0.160957    0.161323    0.162698    0.168879    0.210696
     0.218603    0.220599    0.220627    0.222140    0.222160    0.223324
     0.224608    0.224720    0.225808    0.227247    0.231658    0.232126
     0.233779    0.233819    0.234885    0.235118    0.235140    0.235413
     0.235925    0.236353    0.237339    0.237394    0.238747    0.239742
     0.240086    0.240990    0.245007    0.246162    0.246523    0.247410
     0.248564    0.248726    0.248888    0.249068    0.249373    0.249399
     0.249555    0.249652    0.249683    0.249695    0.249767    0.249809
     0.249855    0.249865    0.249905    0.249911    0.249929    0.249953
     0.249960    0.249963    0.249985    0.249994    0.249998    0.250911
     0.251588    0.252240    0.253330    0.257550    0.259214    0.268287
     0.270813    0.273488    0.275828    0.280355    0.285203    0.297715
     0.320704    0.321005    0.321282    0.321591    0.338077    0.338520
     0.341303    0.341975    0.345282    0.345359    0.345402    0.345492
     0.345727    0.345887    0.345904    0.346050    0.348642    0.348805
     0.348885    0.348937    0.349185    0.349274    0.349281    0.349285
     0.349285    0.349285    0.349289    0.349292    0.349308    0.349321
     0.349363    0.349445    0.354106    0.354336    0.354454    0.354625
     0.355087    0.355243    0.355626    0.355938    0.356012    0.356091
     0.356146    0.356188    0.356189    0.356203    0.356291    0.356411
     0.356555    0.356593    0.356660    0.356714    0.357088    0.357098
     0.357143    0.357167    0.357204    0.357243    0.357414    0.357477
     0.357513    0.357563    0.357586    0.358037    0.368352    0.369526
     0.371720    0.373492    0.376434    0.378454    0.379967    0.382429
     0.382476    0.382540    0.390934    0.400289    0.403090    0.404257
     0.408765    0.409393    0.410616    0.413075    0.414983    0.415239
     0.418177    0.419247    0.422570    0.425729    0.426985    0.427102
     0.427829    0.428551    0.431500    0.432445    0.432821    0.433277
     0.434272    0.434570    0.434719    0.435253    0.436069    0.440647
     0.445635    0.445886    0.448285    0.451888    0.452993    0.453576
     0.456492    0.457324    0.459505    0.461994    0.465797    0.466314
     0.468268    0.468626    0.468805    0.470169    0.470534    0.472933
     0.474328    0.474505    0.475649    0.477095    0.478316    0.478722
     0.479481    0.479656    0.479982    0.481273    0.482135    0.482404
     0.482519    0.483130    0.483394    0.483562    0.484466    0.485625
     0.485712    0.485975    0.492517    0.499157    0.499545    0.500820
     0.501094    0.503625

 Minimum Search - Taking Simple RFO Step
 Searching for Lamda that Minimizes Along All modes
 Value Taken    Lamda =  -0.00000877
 Step Taken.  Stepsize is  0.028623

                             Maximum     Tolerance    Cnvgd?
         Gradient           0.000238      0.000075      NO
         Displacement       0.010503      0.001200      NO
         Energy change     -0.000078      0.000000      NO


 New Cartesian Coordinates Obtained by Inverse Iteration

 Displacement from previous Coordinates is:  0.420137
 Adding empirical dispersion correction 
 ----------------------------------------------------------------
 Doing -D3(BJ) with
 s6 =   1.00000
 s8 =   0.00000
 a1 =   0.48600
 a2 =   4.50000
 -D3 energy including 3body term =     -0.1264826561 hartrees
 ----------------------------------------------------------------
 Adding gCP correction 
 ----------------------------------------------------------------
 gCP energy =      0.1731998160 hartrees
 ----------------------------------------------------------------
             Standard Nuclear Orientation (Angstroms)
    I     Atom           X                Y                Z
 ----------------------------------------------------------------
    1      C     -12.2770073348    -1.9264976734   -10.7960808114
    2      C     -11.3867667113    -1.5006395709    -9.7972480383
    3      N     -10.4201977022    -2.4690511286    -9.6165238768
    4      C     -10.6818269847    -3.5161400135   -10.4709819019
    5      C     -11.8260394437    -3.2209343960   -11.2277976760
    6      C     -12.3031937592    -4.1443537256   -12.1575614554
    7      C     -11.6468866993    -5.3505897810   -12.3359229134
    8      C     -10.4979950338    -5.6143415494   -11.5703452983
    9      C     -10.0018367243    -4.7194147915   -10.6413720405
   10      C     -13.3745860610    -1.1408584400   -11.1372869623
   11      C     -13.5903177454     0.0604778489   -10.4847924199
   12      C     -12.6865687465     0.4590037611    -9.4845851332
   13      C     -11.5875831775    -0.3000049114    -9.1262077445
   14      C      -9.4103808027    -2.4446804465    -8.6304828112
   15      C      -8.4196950992    -1.4786199596    -8.6874004092
   16      C      -7.4562038376    -1.4050450131    -7.6890615797
   17      C      -7.4720491517    -2.3174709331    -6.6236129562
   18      C      -8.4544653235    -3.3165297213    -6.6014140604
   19      C      -9.4232147282    -3.3700085082    -7.5982782626
   20      B      -6.4318899473    -2.1288766483    -5.4475200344
   21      C      -5.0403008255    -2.7665485180    -5.4916952651
   22      C      -4.7151604024    -3.6905727121    -6.5014346292
   23      C      -3.4797238454    -4.2879324335    -6.5313887133
   24      C      -2.4952664332    -3.9634092870    -5.5497317469
   25      C      -2.7869057641    -3.0461559340    -4.5688181824
   26      C      -4.0600440530    -2.4345086964    -4.5051673177
   27      C      -1.3090298073    -4.7773720645    -5.8262677665
   28      C      -1.6197483655    -5.5601918668    -6.9584894344
   29      C      -2.9250394854    -5.2989376241    -7.4221272928
   30      C      -0.7655475736    -6.4989858783    -7.5325790600
   31      C       0.5006275537    -6.6455897750    -6.9158448587
   32      C       0.8171258149    -5.8868256765    -5.8113645467
   33      C      -0.0761617316    -4.9456780976    -5.2466078280
   34      C      -3.3927189534    -5.9997081997    -8.5076334085
   35      C      -2.5418107024    -6.9526274438    -9.1135087612
   36      C      -1.2687632268    -7.2057858311    -8.6538801750
   37      B      -4.4132360879    -1.4279698579    -3.4042586875
   38      C      -5.8328012478    -0.8694731192    -3.2815893147
   39      C      -6.2021801594    -0.0091451552    -2.2215073861
   40      C      -7.4862748154     0.4716903590    -2.1219132125
   41      C      -8.4529234923     0.1081419711    -3.1074538311
   42      C      -8.1114648668    -0.7101762907    -4.1542574677
   43      C      -6.8062371558    -1.2217272073    -4.2676024110
   44      C      -9.7215431196     0.7351739024    -2.7632732138
   45      C      -9.4937531542     1.4627001163    -1.5786829811
   46      C      -8.1558675739     1.3377157620    -1.1468766552
   47      C     -10.4761198931     2.1986351845    -0.9200639591
   48      C     -11.7665867087     2.1946641734    -1.5065851218
   49      C     -11.9949518022     1.4860204569    -2.6648218741
   50      C     -10.9809671657     0.7441545047    -3.3131091868
   51      C      -7.7898603380     1.9907101384     0.0038564552
   52      C      -8.7649680639     2.7496034878     0.6943611966
   53      C     -10.0674300700     2.8607013531     0.2623753125
   54      C      -6.4000524689    -0.3386305959    -7.7619785180
   55      C      -8.4843240882    -4.3193744916    -5.4822559639
   56      C      -3.2707851648    -0.9177918146    -2.4398764201
   57      C      -2.9643022638    -1.5859191007    -1.2374469129
   58      C      -1.9206553060    -1.1461642615    -0.4438809921
   59      C      -1.1580486403    -0.0481562196    -0.8505886459
   60      C      -1.4642748727     0.6347363689    -2.0313390203
   61      C      -2.5186407143     0.2132207884    -2.8161398950
   62      N      -0.0732752749     0.3741288867    -0.0905333279
   63      C      -0.0645002948     0.5888908654     1.2794380044
   64      C       1.1935701941     1.0867727668     1.6516830608
   65      C       1.9880935993     1.1636905853     0.4354987021
   66      C       1.1651392949     0.7104552569    -0.6064897826
   67      C       1.4238587363     1.4424929901     2.9610982500
   68      C       0.3962282150     1.3032984467     3.9030813751
   69      C      -0.8547183796     0.8261361240     3.4941285231
   70      C      -1.1137989391     0.4754258503     2.1820065124
   71      C       3.2789329093     1.5553761154     0.1591776160
   72      C       3.7547271278     1.4875988316    -1.1577314580
   73      C       2.9221458673     0.9889181240    -2.1670134383
   74      C       1.6266732311     0.5810493689    -1.9127174297
   75      C      -3.7589958741    -2.7958947867    -0.8457483734
   76      C      -2.8682945189     0.9609363976    -4.0686262394
   77      H      -2.0992623984     0.1475985317     1.8810463056
   78      H      -1.6511694972     0.7446463318     4.2227293672
   79      H       1.0148226958     0.1677211384    -2.7025887830
   80      H       3.3052810019     0.9102170991    -3.1765243198
   81      C       5.1453010488     1.9240823170    -1.4940176584
   82      H       3.9294679705     1.9108333890     0.9482771584
   83      C       0.6137048773     1.6832074598     5.3335023623
   84      H       2.3835182911     1.8430928546     3.2626466934
   85      H      -0.9103342465     1.5247292369    -2.3029745907
   86      H      -1.6474305335    -1.6950639376     0.4485111651
   87      H      -3.4253961858    -3.2153841602     0.1028920656
   88      H      -4.8189224541    -2.5515229049    -0.7558574473
   89      H      -3.6834377650    -3.5752975807    -1.6057691189
   90      H      -2.2001756219     1.8054583380    -4.2338346097
   91      H      -3.8911077082     1.3383598125    -4.0268120876
   92      H      -2.8125657513     0.3069610901    -4.9405471331
   93      H      -5.4618370819     0.2656345260    -1.4763960689
   94      H      -8.8558410205    -0.9703091731    -4.9004824837
   95      H     -11.2130944675     0.1999388729    -4.2208443820
   96      H      -6.7809972624     1.9380476417     0.3940541513
   97      H     -12.9874454419     1.4923659602    -3.0980135653
   98      H     -12.5747449744     2.7471459661    -1.0425733163
   99      H      -8.4703275116     3.2619997005     1.6014483751
  100      H     -10.7779524784     3.4525288855     0.8267862100
  101      H      -5.4583325581    -3.9384401532    -7.2537448322
  102      H      -2.0355077944    -2.8001794299    -3.8247104395
  103      H       0.2238263728    -4.3851019242    -4.3698843683
  104      H      -4.3896730267    -5.8447356576    -8.9023992639
  105      H       1.2164018569    -7.3579340751    -7.3081185397
  106      H       1.7876396950    -6.0163856468    -5.3492369548
  107      H      -2.9112902669    -7.5053930821    -9.9682206731
  108      H      -0.6538544718    -7.9495643797    -9.1461053674
  109      H      -8.4079872429    -0.7771631164    -9.5140712676
  110      H     -10.2030070968    -4.1231837489    -7.5625833075
  111      H     -10.9171128361     0.0302848458    -8.3437183940
  112      H     -12.8598347330     1.3959060884    -8.9677526959
  113      H      -9.1171388972    -4.9575467279   -10.0653058913
  114      H      -9.9820752001    -6.5577980069   -11.7092152014
  115      C     -12.1432094097    -6.3712765136   -13.3211338171
  116      H     -13.1932568780    -3.9231191569   -12.7367662283
  117      C     -14.7709161653     0.9259602455   -10.8228978293
  118      H     -14.0653961621    -1.4771561466   -11.9029110451
  119      H      -9.3026158776    -5.0295720407    -5.6011938615
  120      H      -8.6042823517    -3.8307408407    -4.5133330374
  121      H      -7.5526165709    -4.8864212115    -5.4346342596
  122      H      -6.5290153799     0.2923483615    -8.6415218072
  123      H      -6.4238900493     0.3062692510    -6.8816079373
  124      H      -5.4004609769    -0.7745783024    -7.8068055241
  125      H     -15.3802846542     0.4769226267   -11.6067803745
  126      H     -15.4147470114     1.0826267519    -9.9554502677
  127      H     -14.4591557740     1.9116427962   -11.1728485649
  128      H     -13.0370271632    -6.0235735143   -13.8382776193
  129      H     -11.3906199119    -6.5959677196   -14.0790654617
  130      H     -12.3935822921    -7.3134195994   -12.8298399156
  131      H       1.6241904870     2.0481742866     5.5062859930
  132      H      -0.0839211652     2.4646026900     5.6387933263
  133      H       0.4461230726     0.8297839597     5.9921257383
  134      H       5.6798419346     2.2871878724    -0.6184951470
  135      H       5.7189168044     1.1011765754    -1.9232281573
  136      H       5.1311163638     2.7240326115    -2.2359642115
 ----------------------------------------------------------------
 Nuclear Repulsion Energy = 11531.9920636764 hartrees
 There are      269 alpha and      267 beta electrons
 Discretize the solute cavity surface with Lebedev spheres
	Using 302 Lebedev grid points for each H atom
	Using 302 Lebedev grid points for other atoms
	Atomic van der Waals radii will be scaled by 1.20
 Remove points where switching function is < 1.0e-08
 Keep 14366 surface tesserae and discard 26706 interior tesserae
 Molecular Surface Area = 1072.023 Angst**2
 Nucleus-field energy     =    -0.0000000938 hartrees
 Requested basis set is def2-mSVP
 There are 672 shells and 1312 basis functions
 A cutoff of  1.0D-11 yielded  56016 shell pairs
 There are    223598 function pairs (    246664 Cartesian)
 Smallest overlap matrix eigenvalue = 1.99E-04
 Guess MOs from SCF MO coefficient file

 -----------------------------------------------------------------------
  General SCF calculation program by
  Eric Jon Sundstrom, Paul Horn, Yuezhi Mao, Dmitri Zuev, Alec White,
  David Stuck, Shaama M.S., Shane Yost, Joonho Lee, David Small,
  Daniel Levine, Susi Lehtola, Hugh Burton, Evgeny Epifanovsky
 -----------------------------------------------------------------------
 Exchange:     0.4200 Hartree-Fock + 0.5800 PBEh-3c
 Correlation:  1.0000 PBEh-3c
 Using SG-1 standard quadrature grid
 Dispersion:   Grimme D3
 using 8 threads for integral computing
 -------------------------------------------------------
 OpenMP Integral computing Module                
 Release: version 2.0, May 2017, Q-Chem Inc. Pleasanton 
 -------------------------------------------------------
 -------------------------------------------------------
 OpenMP BLAS3 based DFT computing Module                
 Release: version 1.0, May 2013, Q-Chem Inc. Pittsburgh 
 -------------------------------------------------------
 A unrestricted SCF calculation will be
 performed using DIIS
 SCF converges when DIIS error is below 1.0e-08
 ---------------------------------------
  Cycle       Energy         DIIS error
 ---------------------------------------
 Using non-symmetric K matrix
    1   -3077.0047137593      5.82e-05  
    2   -3082.3303264108      2.12e-04  
    3   -3082.3972657567      6.98e-05  
    4   -3082.4037167155      2.67e-05  
    5   -3082.4046606657      1.87e-05  
    6   -3082.4053229078      8.96e-06  
