78
	Energy:     274.8767603
C          0.11553       -4.68500        1.09289
C          0.03612       -4.44350        2.62905
C          1.58962       -4.21662        0.91108
C          2.31340       -4.16230       -0.27871
H          1.84380       -4.43905       -1.20990
C          3.65767       -3.75303       -0.24402
H          4.22725       -3.71167       -1.16156
C          4.26955       -3.40550        0.97680
H          5.30939       -3.10021        0.99105
C          3.53607       -3.45534        2.17188
H          4.00695       -3.18848        3.11250
C          2.19722       -3.86153        2.11156
C         -1.06944       -4.62653        3.47132
H         -2.01675       -4.95194        3.07064
C         -0.93493       -4.37932        4.85469
H         -1.78131       -4.51841        5.51612
C          0.29617       -3.95809        5.39084
H          0.39090       -3.78283        6.45894
C          1.39745       -3.76082        4.54601
H          2.34380       -3.43084        4.96207
C          1.23958       -4.00165        3.17126
C         -1.98599       -4.01339       -0.54337
C         -2.80981       -2.92699       -0.92231
H         -3.74195       -3.11497       -1.44400
C         -2.47657       -1.60570       -0.62811
C         -3.38020       -0.53509       -0.96348
N         -4.10383        0.34192       -1.17456
C         -0.83530       -3.71769        0.31607
C         -0.50306       -2.34905        0.49597
H          0.38477       -2.06759        1.04661
C         -1.27201       -1.31925       -0.00423
C         -0.80168        0.04171        0.13138
N         -0.43085        1.13276        0.23678
H          5.85076       -6.30450        0.22962
H          7.51518       -7.81348        1.25643
C          5.53118       -7.21857        0.71639
C          6.46534       -8.06854        1.29902
C          4.18012       -7.53421        0.76570
H          3.49448       -6.84090        0.30683
C          6.05491       -9.25942        1.90896
H          6.81483       -9.90915        2.30826
C          3.73986       -8.71057        1.42032
C          4.68469       -9.60175        1.96372
N          2.34833       -9.01403        1.58390
C          2.84520      -10.75063        3.23909
C          1.93509       -9.84156        2.68577
H          3.12273      -12.21020        4.83826
C          2.46413      -11.48962        4.38539
C          0.64691       -9.69506        3.27006
C          1.19415      -11.32349        4.95030
C          0.28717      -10.43356        4.38834
H         -0.07915       -8.99148        2.88160
H          0.90628      -11.89552        5.82183
H         -0.69697      -10.30471        4.82437
C          4.16170      -10.95461        2.48644
C          5.20555      -11.75383        3.28727
C          3.79198      -11.79391        1.23036
C          1.34933       -8.26686        0.95982
C          0.43015       -8.93308        0.18175
C         -0.70670       -8.28875       -0.21738
C         -0.92820       -6.94647        0.12938
C          0.09271       -6.19741        0.78889
C          1.19455       -6.93082        1.26111
H          1.93597       -6.47259        1.90511
H          0.56274       -9.98293       -0.03733
H         -1.45147       -8.86465       -0.74618
C         -2.31468       -6.46506       -0.05422
C         -2.51141       -5.37944       -1.01667
H         -2.70711       -6.15423        0.92938
H         -2.95950       -7.31289       -0.39602
H         -3.62164       -5.30375       -1.02931
H         -2.33852       -5.73168       -2.07433
H          3.02933      -11.29564        0.59034
H          3.36598      -12.77781        1.52480
H          4.68346      -11.97169        0.59322
H          5.48387      -11.18896        4.20179
H          6.10950      -11.95161        2.67745
H          4.81293      -12.75143        3.57141
