mFile = /cm/shared/apps/q-chem/intel/QCHEM_5.0.1_Trunk/bin/mpi/machines
Process 0 of 1 is on ctcp028 - thread support 0
initial socket setup ...start
initial socket setup ...done 
now start server 0 ... 
ctcp028.cm.cluster 10.141.0
Q-Chem Developer Version! Running on 10.141.0.*
                  Welcome to Q-Chem
     A Quantum Leap Into The Future Of Chemistry


 Q-Chem 5.0, Q-Chem, Inc., Pleasanton, CA (2017)

 Yihan Shao,  Zhengting Gan,  E. Epifanovsky,  A. T. B. Gilbert,  M. Wormit,  
 J. Kussmann,  A. W. Lange,  A. Behn,  Jia Deng,  Xintian Feng,  D. Ghosh,  
 M. Goldey,  P. R. Horn,  L. D. Jacobson,  I. Kaliman,  T. Kus,  A. Landau,  
 Jie Liu,  E. I. Proynov,  R. M. Richard,  R. P. Steele,  E. J. Sundstrom,  
 H. L. Woodcock III,  P. M. Zimmerman,  D. Zuev,  B. Albrecht,  E. Alguire,  
 S. A. Baeppler,  Z. Benda,  Y. A. Bernard,  E. J. Berquist,  K. B. Bravaya,  
 D. Casanova,  Chun-Min Chang,  Yunqing Chen,  A. Chien,  K. D. Closser,  
 M. P. Coons,  S. Dasgupta,  M. Diedenhofen,  Hainam Do,  R. G. Edgar,  
 Po-Tung Fang,  S. Fatehi,  Qingguo Feng,  Qinghui Ge,  A. Ghysels,  
 J. Gomes,  J. Gonthier,  A. Gunina,  M. W. D. Hanson-Heine,  
 P. H. P. Harbach,  A. W. Hauser,  J. E. Herr,  E. G. Hohenstein,  
 Z. C. Holden,  Kerwin Hui,  T.-C. Jagau,  Hyunjun Ji,  B. Kaduk,  
 K. Khistyaev,  Jaehoon Kim,  P. Klunzinger,  K. Koh,  D. Kosenkov,  
 T. Kowalczyk,  C. M. Krauter,  A. Kunitsa,  Ka Un Lao,  A. Laurent,  
 K. V. Lawler,  Joonho Lee,  D. Lefrancois,  S. Lehtola,  D. S. Levine,  
 Yi-Pei Li,  You-Sheng Lin,  Fenglai Liu,  E. Livshits,  A. Luenser,  
 P. Manohar,  E. Mansoor,  S. F. Manzer,  Shan-Ping Mao,  Yuezhi Mao,  
 N. Mardirossian,  A. V. Marenich,  L. A. Martinez-Martinez,  S. A. Maurer,  
 N. J. Mayhall,  S. C. McKenzie,  J.-M. Mewes,  A. F. Morrison,  K. Nanda,  
 T. S. Nguyen-Beck,  R. Olivares-Amaya,  J. A. Parkhill,  T. M. Perrine,  
 F. Plasser,  S. Prager,  A. Prociuk,  D. R. Rehn,  F. Rob,  M. Schneider,  
 N. Sergueev,  S. M. Sharada,  S. Sharma,  D. W. Small,  T. Stauch,  
 T. Stein,  Yu-Chuan Su,  A. J. W. Thom,  T. Tsuchimochi,  L. Vogt,  
 O. Vydrov,  M. A. Watson,  J. Wenzel,  M. de Wergifosse,  T. A. Wesolowski,  
 A. White,  J. Witte,  A. Yamada,  Jun Yang,  K. Yao,  S. Yeganeh,  
 S. R. Yost,  Zhi-Qiang You,  A. Zech,  Igor Ying Zhang,  Xing Zhang,  
 Yan Zhao,  Ying Zhu,  B. R. Brooks,  G. K. L. Chan,  C. J. Cramer,  
 M. S. Gordon,  W. J. Hehre,  A. Klamt,  M. W. Schmidt,  C. D. Sherrill,  
 D. G. Truhlar,  A. Aspuru-Guzik,  R. Baer,  A. T. Bell,  N. A. Besley,  
 Jeng-Da Chai,  A. Dreuw,  B. D. Dunietz,  T. R. Furlani,  Chao-Ping Hsu,  
 Yousung Jung,  Jing Kong,  D. S. Lambrecht,  WanZhen Liang,  C. Ochsenfeld,  
 V. A. Rassolov,  L. V. Slipchenko,  J. E. Subotnik,  T. Van Voorhis,  
 J. M. Herbert,  A. I. Krylov,  P. M. W. Gill,  M. Head-Gordon

 Contributors to earlier versions of Q-Chem not listed above: 
 R. D. Adamson,  B. Austin,  J. Baker,  G. J. O. Beran,  K. Brandhorst,  
 S. T. Brown,  E. F. C. Byrd,  A. K. Chakraborty,  C.-L. Cheng,  
 Siu Hung Chien,  D. M. Chipman,  D. L. Crittenden,  H. Dachsel,  
 R. A. DiStasio Jr.,  R. J. Doerksen,  A. D. Dutoi,  L. Fusti-Molnar,  
 W. A. Goddard III,  A. Golubeva-Zadorozhnaya,  S. R. Gwaltney,  G. Hawkins,  
 A. Heyden,  S. Hirata,  G. Kedziora,  F. J. Keil,  C. Kelley,  Jihan Kim,  
 R. A. King,  R. Z. Khaliullin,  P. P. Korambath,  W. Kurlancheek,  
 A. M. Lee,  M. S. Lee,  S. V. Levchenko,  Ching Yeh Lin,  D. Liotard,  
 R. C. Lochan,  I. Lotan,  P. E. Maslen,  N. Nair,  D. P. O'Neill,  
 D. Neuhauser,  E. Neuscamman,  C. M. Oana,  R. Olson,  B. Peters,  
 R. Peverati,  P. A. Pieniazek,  Y. M. Rhee,  J. Ritchie,  M. A. Rohrdanz,  
 E. Rosta,  N. J. Russ,  H. F. Schaefer III,  N. E. Schultz,  N. Shenvi,  
 A. C. Simmonett,  A. Sodt,  D. Stuck,  K. S. Thanthiriwatte,  V. Vanovschi,  
 Tao Wang,  A. Warshel,  C. F. Williams,  Q. Wu,  X. Xu,  W. Zhang

 Please cite Q-Chem as follows:
 Y. Shao et al., Mol. Phys. 113, 184-215 (2015)
 DOI: 10.1080/00268976.2014.952696

 Q-Chem 5.0.1 for Intel X86 EM64T Linux

 Parts of Q-Chem use Armadillo 5.200.1 (Boston Tea Smuggler).
 http://arma.sourceforge.net/

 Q-Chem begins on Mon Jan  7 13:34:07 2019  

Host: ctcp028
0

     Scratch files written to /scratch/mewes/142826/qchem155998//
 Parallel job on  1  processors
The previous job contains 0 fragments, simply inherited here

Checking the input file for inconsistencies... 	...done.

--------------------------------------------------------------
User input:
--------------------------------------------------------------
$rem
threads 8
jobtype	opt
method PBEh-3c
basis def2-mSVP
mem_static	512
mem_total	6096
sym_ignore	true
$end

$molecule
read incoords_b.mol
$end

--------------------------------------------------------------
 Adding empirical dispersion correction 
 ----------------------------------------------------------------
 Doing -D3(BJ) with
 s6 =   1.00000
 s8 =   0.00000
 a1 =   0.48600
 a2 =   4.50000
 -D3 energy including 3body term =     -0.0773910439 hartrees
 ----------------------------------------------------------------
 Adding gCP correction 
 ----------------------------------------------------------------
 gCP energy =      0.1091116593 hartrees
 ----------------------------------------------------------------
             Standard Nuclear Orientation (Angstroms)
    I     Atom           X                Y                Z
 ----------------------------------------------------------------
    1      C      -1.1493620000    -1.1535080000     0.0626400000
    2      C      -2.4516070000    -1.3953470000    -0.3790530000
    3      C      -2.9067220000    -2.7016640000    -0.4007680000
    4      C      -2.1162250000    -3.7716020000     0.0064240000
    5      C      -1.1046770000    -4.6826640000     3.3699490000
    6      C      -0.8121880000    -3.5356790000     0.4566300000
    7      C       0.1259330000    -4.5856410000     1.0666230000
    8      C       0.0594600000    -6.0672730000     0.6440310000
    9      C      -0.6892230000    -6.6559560000    -0.3769870000
   10      C      -0.4402690000    -7.9902380000    -0.7134080000
   11      C       0.5232950000    -8.7469500000    -0.0834750000
   12      C       1.2373180000    -8.1779070000     0.9600830000
   13      C       0.9750000000    -6.8743860000     1.3244020000
   14      N       2.2262830000    -8.9328690000     1.6358190000
   15      C       1.8522600000    -9.9849860000     2.4827800000
   16      C       0.5476220000   -10.4747440000     2.5212410000
   17      C       0.2332700000   -11.5559980000     3.3255440000
   18      C       1.2098870000   -12.1658140000     4.0926900000
   19      C       2.4972840000   -11.6511610000     4.0802500000
   20      C       2.8344680000   -10.5477880000     3.3092650000
   21      C       3.5516890000    -8.8476340000     1.2008960000
   22      C       3.8752480000    -8.2489930000    -0.0158900000
   23      C       5.1914240000    -8.2095600000    -0.4421110000
   24      C       6.1914800000    -8.7784200000     0.3268700000
   25      C       5.8651620000    -9.3575290000     1.5439500000
   26      C       4.5592230000    -9.3820090000     2.0119300000
   27      C       4.1732860000    -9.8383680000     3.4042110000
   28      C       0.0042700000    -4.4430360000     2.5853120000
   29      C       1.2017450000    -4.0029780000     3.1471640000
   30      C       2.1909660000    -3.8521850000     2.0835530000
   31      C       1.5854550000    -4.1736600000     0.8712390000
   32      C       1.2973210000    -3.7996720000     4.5147490000
   33      C       0.1831580000    -4.0391150000     5.3053970000
   34      C      -1.0085440000    -4.4777290000     4.7398930000
   35      C       3.5289740000    -3.4893780000     2.1194110000
   36      C       4.2415520000    -3.4488990000     0.9300100000
   37      C       3.6301870000    -3.7679810000    -0.2776950000
   38      C       2.2917830000    -4.1380070000    -0.3139290000
   39      C      -0.3600510000    -2.2162180000     0.4709950000
   40      C      -2.6864840000    -5.1468920000    -0.1610290000
   41      C      -1.8166440000    -5.9767690000    -1.1000000000
   42      C      -3.3057150000    -0.3402330000    -0.8139680000
   43      N      -4.0175420000     0.4903720000    -1.1716620000
   44      C      -0.6212140000     0.1704370000     0.0956620000
   45      N      -0.1839690000     1.2344760000     0.1248000000
   46      C       5.2507740000   -10.7046110000     4.0472520000
   47      C       3.9894970000    -8.5796400000     4.2793170000
   48      H       1.8175550000    -4.3980850000    -1.2526400000
   49      H       4.2013580000    -3.7302950000    -1.1958720000
   50      H       5.2862600000    -3.1684490000     0.9418020000
   51      H       4.0155700000    -3.2477730000     3.0554000000
   52      H      -2.0350030000    -5.0238590000     2.9329120000
   53      H      -1.8670720000    -4.6613230000     5.3719030000
   54      H       0.2419050000    -3.8843250000     6.3743220000
   55      H       2.2225510000    -3.4611190000     4.9629450000
   56      H      -3.9107380000    -2.8960220000    -0.7550070000
   57      H       0.6400470000    -1.9937160000     0.8130460000
   58      H      -0.7841330000   -11.9248290000     3.3316850000
   59      H       0.9734360000   -13.0220880000     4.7098420000
   60      H      -0.2326680000   -10.0297900000     1.9206870000
   61      H       3.2465050000   -12.1141680000     4.7073530000
   62      H       6.6581780000    -9.7781740000     2.1467640000
   63      H       3.1016650000    -7.8213010000    -0.6384280000
   64      H       7.2199260000    -8.7623910000    -0.0077710000
   65      H       5.4279920000    -7.7417640000    -1.3888730000
   66      H       1.5405370000    -6.4678500000     2.1524140000
   67      H       0.7117660000    -9.7706890000    -0.3789910000
   68      H      -1.0284080000    -8.4407390000    -1.5038830000
   69      H      -2.4304090000    -6.7459480000    -1.5718680000
   70      H      -1.4528280000    -5.3452260000    -1.9160620000
   71      H      -2.7891740000    -5.6653550000     0.7958180000
   72      H      -3.6946250000    -5.0622120000    -0.5688500000
   73      H       3.2284570000    -7.9126650000     3.8757060000
   74      H       4.9251190000    -8.0207400000     4.3390950000
   75      H       3.6873270000    -8.8578160000     5.2904550000
   76      H       5.4475920000   -11.6090260000     3.4705630000
   77      H       4.9663760000   -10.9963780000     5.0578870000
   78      H       6.1850410000   -10.1519770000     4.1462350000
 ----------------------------------------------------------------
 Nuclear Repulsion Energy =  5550.7124262216 hartrees
 There are      158 alpha and      158 beta electrons
 Requested basis set is def2-mSVP
 There are 391 shells and 767 basis functions

 Total QAlloc Memory Limit   6096 MB
 Mega-Array Size       501 MB
 MEM_STATIC part       512 MB
 A cutoff of  1.0D-11 yielded  35359 shell pairs
 There are    141717 function pairs (    156377 Cartesian)
 
 -------------------------------------------------------
 OpenMP Integral Computing Module                       
 Release: version 1.0, May 2013, Q-Chem Inc. Pittsburgh 
 -------------------------------------------------------
 Integral Job Info:
 Integral job number is                      11
 Integral operator is                         1
 short-range coefficients                     0
 long-range coefficients              100000000
 Omega coefficients                           0
 if combine SR and LR in K                    0
 Integral screening is                        0
 Integral computing path is                   2
 max size of driver memory is            800000
 size of driver memory is                593474
 size of scratch memory is              1809772
 max col of scratch BK array               1296
 max len of scratch array in speh3          155
 max len of scratch index in speh4           18
 max int batch size is                      520
 min int batch size is                       52
 fixed nKL is                                52
 max L of basis functions is                  2
 order of int derivative is                   0
 number of shells is                        391
 number of basis is                         814
 number of cartesian basis is               814
 number of contracted shell pairs         35359
 number of primitive shell pairs          73812
 maxK2 (contraction) of shell pair           25
 max number of K2 of shell pair               1
 max number of CS2 of shell pair           8439
 max number of PS2 of shell pair          13105
 mem total for path MDJ                  386872
 -------------------------------------------------------
 Smallest overlap matrix eigenvalue = 2.54E-04

 Scale SEOQF with 1.000000e-02/1.000000e-02/1.000000e-02

 Standard Electronic Orientation quadrupole field applied
 Nucleus-field energy     =     0.0000000998 hartrees
 Guess from superposition of atomic densities
 Warning:  Energy on first SCF cycle will be non-variational
 A restricted hybrid HF-DFT SCF calculation will be
 performed using Pulay DIIS extrapolation
 Exchange:     0.4200 Hartree-Fock + 0.5800 PBEh-3c
 Correlation:  1.0000 PBEh-3c
 Using SG-1 standard quadrature grid
 Dispersion:   Grimme D3
 SCF converges when DIIS error is below 1.0E-08
 using 8 threads for integral computing
 -------------------------------------------------------
 OpenMP Integral computing Module                
 Release: version 1.0, May 2013, Q-Chem Inc. Pittsburgh 
 -------------------------------------------------------
 ---------------------------------------
  Cycle       Energy         DIIS Error
 ---------------------------------------
    1   -1871.4070507878      3.05E-02
    2   -1855.1117864307      2.27E-03
    3   -1855.0359034004      2.69E-03
    4   -1855.4745702831      8.85E-04
    5   -1855.5256696510      2.18E-04
    6   -1855.5284086337      8.85E-05
    7   -1855.5289255435      2.33E-05
    8   -1855.5289641970      8.64E-06
    9   -1855.5289697870      2.28E-06
   10   -1855.5289701252      1.01E-06
   11   -1855.5289702043      3.66E-07
   12   -1855.5289702236      1.38E-07
   13   -1855.5289702226      5.71E-08
   14   -1855.5289702271      1.98E-08
   15   -1855.5289702110      7.72E-09 Convergence criterion met
 ---------------------------------------
 SCF time:  CPU 2433.43 s  wall 640.55 s
 SCF   energy in the final basis set = -1855.52897021
 Total energy in the final basis set = -1855.52897021
 
 --------------------------------------------------------------
 
                    Orbital Energies (a.u.)
 --------------------------------------------------------------
 
 Alpha MOs
 -- Occupied --
-14.679 -14.657 -14.654 -10.522 -10.520 -10.511 -10.507 -10.500
-10.500 -10.498 -10.497 -10.493 -10.492 -10.491 -10.490 -10.487
-10.481 -10.476 -10.475 -10.474 -10.473 -10.472 -10.469 -10.469
-10.467 -10.466 -10.466 -10.465 -10.465 -10.464 -10.464 -10.464
-10.463 -10.463 -10.463 -10.452 -10.451 -10.445 -10.445 -10.444
-10.444 -10.443 -10.441 -10.438 -10.437 -10.431 -10.426  -1.092
 -1.042  -1.029  -1.019  -1.003  -0.988  -0.968  -0.961  -0.958
 -0.938  -0.933  -0.911  -0.898  -0.890  -0.884  -0.858  -0.855
 -0.849  -0.846  -0.835  -0.825  -0.820  -0.808  -0.795  -0.772
 -0.772  -0.747  -0.731  -0.726  -0.715  -0.709  -0.703  -0.692
 -0.681  -0.678  -0.672  -0.672  -0.666  -0.646  -0.619  -0.613
 -0.613  -0.610  -0.598  -0.583  -0.581  -0.573  -0.566  -0.560
 -0.540  -0.540  -0.537  -0.533  -0.531  -0.525  -0.522  -0.521
 -0.515  -0.510  -0.507  -0.504  -0.502  -0.501  -0.499  -0.494
 -0.492  -0.491  -0.487  -0.485  -0.475  -0.468  -0.459  -0.450
 -0.448  -0.443  -0.440  -0.439  -0.438  -0.436  -0.433  -0.431
 -0.430  -0.426  -0.424  -0.420  -0.419  -0.416  -0.416  -0.414
 -0.411  -0.404  -0.400  -0.399  -0.397  -0.395  -0.392  -0.380
 -0.374  -0.363  -0.348  -0.338  -0.322  -0.314  -0.306  -0.304
 -0.297  -0.292  -0.288  -0.281  -0.270  -0.231
 -- Virtual --
 -0.063  -0.041  -0.028  -0.016  -0.010  -0.003   0.014   0.018
  0.019   0.032   0.046   0.049   0.051   0.070   0.085   0.111
  0.112   0.120   0.128   0.131   0.132   0.138   0.146   0.150
  0.157   0.157   0.158   0.164   0.167   0.170   0.181   0.186
  0.189   0.192   0.194   0.198   0.199   0.201   0.204   0.206
  0.214   0.215   0.217   0.222   0.224   0.228   0.230   0.231
  0.235   0.238   0.239   0.244   0.244   0.247   0.251   0.252
  0.257   0.258   0.259   0.262   0.268   0.271   0.275   0.281
  0.284   0.288   0.292   0.296   0.298   0.302   0.307   0.310
  0.314   0.319   0.326   0.333   0.333   0.346   0.355   0.361
  0.364   0.365   0.372   0.376   0.385   0.386   0.387   0.392
  0.400   0.416   0.417   0.421   0.430   0.433   0.447   0.456
  0.458   0.463   0.470   0.475   0.479   0.482   0.485   0.490
  0.497   0.503   0.509   0.511   0.516   0.519   0.521   0.524
  0.530   0.533   0.535   0.538   0.540   0.545   0.547   0.549
  0.553   0.556   0.560   0.564   0.566   0.567   0.569   0.571
  0.578   0.579   0.582   0.585   0.589   0.593   0.594   0.596
  0.599   0.604   0.607   0.609   0.613   0.616   0.619   0.620
  0.620   0.622   0.623   0.627   0.634   0.637   0.639   0.641
  0.643   0.648   0.649   0.651   0.652   0.659   0.663   0.666
  0.666   0.669   0.675   0.676   0.682   0.687   0.691   0.700
  0.700   0.701   0.705   0.709   0.714   0.715   0.719   0.724
  0.724   0.730   0.734   0.736   0.740   0.743   0.747   0.752
  0.753   0.758   0.765   0.767   0.777   0.783   0.792   0.798
  0.801   0.808   0.811   0.817   0.823   0.825   0.833   0.839
  0.840   0.853   0.862   0.867   0.878   0.890   0.893   0.899
  0.905   0.911   0.920   0.924   0.928   0.933   0.935   0.938
  0.941   0.946   0.951   0.953   0.957   0.964   0.965   0.969
  0.972   0.976   0.978   0.984   0.989   0.991   0.994   0.996
  0.997   1.005   1.006   1.008   1.010   1.016   1.021   1.026
  1.029   1.033   1.040   1.042   1.046   1.047   1.049   1.054
  1.057   1.059   1.063   1.068   1.070   1.077   1.082   1.084
  1.090   1.093   1.095   1.103   1.106   1.112   1.113   1.120
  1.125   1.130   1.134   1.135   1.141   1.143   1.146   1.149
  1.153   1.164   1.168   1.176   1.183   1.187   1.195   1.202
  1.212   1.222   1.229   1.236   1.246   1.249   1.253   1.260
  1.269   1.272   1.275   1.284   1.289   1.297   1.299   1.304
  1.310   1.313   1.319   1.326   1.330   1.338   1.339   1.347
  1.348   1.359   1.367   1.376   1.378   1.380   1.395   1.398
  1.409   1.416   1.426   1.431   1.439   1.445   1.457   1.476
  1.495   1.498   1.502   1.504   1.507   1.517   1.519   1.522
  1.531   1.536   1.537   1.541   1.545   1.551   1.556   1.557
  1.560   1.564   1.569   1.571   1.580   1.585   1.590   1.594
  1.595   1.602   1.605   1.614   1.619   1.628   1.639   1.652
  1.654   1.664   1.684   1.689   1.696   1.703   1.722   1.730
  1.737   1.745   1.759   1.765   1.774   1.780   1.785   1.787
  1.801   1.804   1.819   1.822   1.829   1.835   1.841   1.844
  1.850   1.854   1.857   1.867   1.871   1.873   1.879   1.889
  1.898   1.903   1.907   1.917   1.921   1.929   1.934   1.941
  1.950   1.953   1.961   1.970   1.982   1.988   1.992   1.999
  2.001   2.004   2.009   2.017   2.019   2.025   2.030   2.037
  2.037   2.044   2.051   2.059   2.063   2.064   2.077   2.082
  2.090   2.096   2.104   2.115   2.130   2.135   2.140   2.143
  2.145   2.156   2.160   2.162   2.164   2.171   2.172   2.187
  2.190   2.195   2.201   2.209   2.213   2.219   2.224   2.231
  2.239   2.244   2.249   2.251   2.257   2.267   2.273   2.277
  2.285   2.290   2.292   2.294   2.305   2.311   2.316   2.318
  2.326   2.332   2.337   2.339   2.348   2.352   2.355   2.359
  2.364   2.368   2.378   2.385   2.386   2.388   2.394   2.396
  2.416   2.419   2.431   2.436   2.461   2.467   2.475   2.485
  2.500   2.509   2.522   2.527   2.530   2.544   2.563   2.568
  2.588   2.593   2.595   2.603   2.619   2.629   2.630   2.653
  2.666   2.672   2.684   2.696   2.699   2.708   2.711   2.718
  2.724   2.729   2.733   2.735   2.740   2.743   2.752   2.755
  2.759   2.766   2.773   2.776   2.778   2.793   2.797   2.804
  2.817   2.821   2.831   2.835   2.841   2.850   2.854   2.862
  2.871   2.886   2.890   2.897   2.899   2.911   2.923   2.930
  2.947   2.975   2.978   2.984   2.992   3.012   3.016   3.028
  3.034   3.044   3.078   3.083   3.148   3.225   3.277   3.329
  3.359   3.370   3.380   3.386   3.410   3.498   3.546   3.559
  3.591   3.678  13.191  13.246  13.262  13.323  13.358  13.405
 13.631  13.659  13.664  13.718  13.727  13.733  13.755  13.773
 13.777  13.799  13.810  13.825  13.896  13.912  13.922  14.026
 14.064  14.090  14.126  14.171  14.178  14.181  14.198  14.213
 14.220  14.244  14.248  14.253  14.269  14.281  14.320  14.396
 14.574  14.582  14.585  14.591  14.602  14.620  19.495  19.565
 19.631
 --------------------------------------------------------------
 
          Ground-State Mulliken Net Atomic Charges

     Atom                 Charge (a.u.)
  ----------------------------------------
      1 C                     0.090598
      2 C                     0.079785
      3 C                    -0.319737
      4 C                     0.102546
      5 C                    -0.275038
      6 C                     0.214678
      7 C                    -0.439918
      8 C                     0.229950
      9 C                     0.061180
     10 C                    -0.300781
     11 C                    -0.249280
     12 C                     0.219068
     13 C                    -0.269132
     14 N                    -0.710574
     15 C                     0.318314
     16 C                    -0.297851
     17 C                    -0.232215
     18 C                    -0.219520
     19 C                    -0.324682
     20 C                     0.159406
     21 C                     0.316578
     22 C                    -0.280368
     23 C                    -0.234344
     24 C                    -0.218752
     25 C                    -0.326387
     26 C                     0.168673
     27 C                    -0.230484
     28 C                     0.155370
     29 C                     0.139586
     30 C                     0.157913
     31 C                     0.051074
     32 C                    -0.324596
     33 C                    -0.215386
     34 C                    -0.223281
     35 C                    -0.327111
     36 C                    -0.208647
     37 C                    -0.226403
     38 C                    -0.256658
     39 C                    -0.295740
     40 C                    -0.543741
     41 C                    -0.515280
     42 C                    -0.006979
     43 N                    -0.153900
     44 C                    -0.008881
     45 N                    -0.154570
     46 C                    -0.664985
     47 C                    -0.596071
     48 H                     0.222403
     49 H                     0.227493
     50 H                     0.229274
     51 H                     0.213348
     52 H                     0.215968
     53 H                     0.227973
     54 H                     0.228881
     55 H                     0.213375
     56 H                     0.245990
     57 H                     0.281479
     58 H                     0.215300
     59 H                     0.212618
     60 H                     0.246602
     61 H                     0.213728
     62 H                     0.212948
     63 H                     0.239817
     64 H                     0.211758
     65 H                     0.213203
     66 H                     0.261094
     67 H                     0.254007
     68 H                     0.219603
     69 H                     0.247229
     70 H                     0.252485
     71 H                     0.257149
     72 H                     0.251681
     73 H                     0.238187
     74 H                     0.218465
     75 H                     0.220200
     76 H                     0.238790
     77 H                     0.228003
     78 H                     0.227525
  ----------------------------------------
  Sum of atomic charges =     0.000000

 -----------------------------------------------------------------
                    Cartesian Multipole Moments
 -----------------------------------------------------------------
    Charge (ESU x 10^10)
                 0.0000
    Dipole Moment (Debye)
         X       1.2232      Y      -6.9438      Z       1.4850
       Tot       7.2054
    Quadrupole Moments (Debye-Ang)
        XX    -254.2107     XY      20.0209     YY    -264.8036
        XZ       2.6479     YZ      -1.5479     ZZ    -250.3266
    Octopole Moments (Debye-Ang^2)
       XXX    -759.3077    XXY    1444.0807    XYY    -439.3443
       YYY    4883.0124    XXZ    -327.2132    XYZ     -61.2775
       YYZ    -334.9620    XZZ    -252.7399    YZZ    1493.9631
       ZZZ   -1059.8778
    Hexadecapole Moments (Debye-Ang^3)
      XXXX  -12421.8459   XXXY    8946.2292   XXYY  -14261.5761
      XYYY   10814.4067   YYYY  -78890.4690   XXXZ   -2442.5445
      XXYZ    2700.4021   XYYZ    -234.0257   YYYZ    8043.5316
      XXZZ   -3431.9496   XYZZ    2849.0794   YYZZ  -13527.7025
      XZZZ   -2413.3789   YZZZ    8657.7513   ZZZZ   -8489.4063
 -----------------------------------------------------------------
 Calculating analytic gradient of the SCF energy
 -1.392830910641785E-003 -1.392845281779345E-003
 -1.392844504665460E-003 -1.392831701484072E-003
 -1.392834698818575E-003 -1.392841550518623E-003
 -1.392863901940147E-003 -1.392812310328718E-003
 -1.392810452666345E-003 -1.392865750000780E-003
 -1.392852438845129E-003 -1.392823806678009E-003
 -1.392833258919732E-003 -1.392842958333960E-003
 -1.392852977755551E-003 -1.392823219406373E-003
 -1.392838342247718E-003 -1.392837916395957E-003
 -1.392844873189222E-003 -1.392831345994729E-003
 -1.392807767219898E-003 -1.392868423664626E-003
 -1.392850644693023E-003 -1.392825608948741E-003
 -1.392841875946187E-003 -1.392834327161135E-003
 -1.392824355229375E-003 -1.392851802635724E-003
 -1.392829784585620E-003 -1.392846382853604E-003
 -1.392839263185858E-003 -1.392836955260909E-003
 -1.392843790236303E-003 -1.392832429399372E-003
 -1.392838736368837E-003 -1.392837523085967E-003
 -1.392865510788501E-003 -1.392810701270114E-003
 -1.392826019240424E-003 -1.392850171216032E-003
 -1.392864258876212E-003 -1.392811964870440E-003
 -1.392846121798874E-003 -1.392830096575730E-003
 -1.392844695125103E-003 -1.392831516914314E-003
 -1.392848275317848E-003 -1.392827956715191E-003
 -1.392861397535690E-003 -1.392814833645324E-003
 -1.392838432763467E-003 -1.392837771499109E-003
 -1.392846511466554E-003 -1.392829726586297E-003
 -1.392855508813073E-003 -1.392820728460045E-003
 -1.392845970498924E-003 -1.392830251695095E-003
 -1.392843802871526E-003 -1.392832428119626E-003
 -1.392858696644094E-003 -1.392817528532854E-003
 -1.392841237855564E-003 -1.392834963177100E-003
 -1.392846069472575E-003 -1.392830153057223E-003
 -1.392840222907534E-003 -1.392835989148415E-003
 -1.392832042752932E-003 -1.392844188974533E-003
 -1.392832317550159E-003 -1.392843894533914E-003
 -1.392845534601923E-003 -1.392830678042860E-003
 -1.392845593743875E-003 -1.392830597922532E-003
 -1.392865715506254E-003 -1.392810503779690E-003
 -1.392852184603843E-003 -1.392824017403487E-003
 -1.392839243204540E-003 -1.392836975654380E-003
 -1.392830864661742E-003 -1.392845347773863E-003
 -1.392825476119972E-003 -1.392850719439803E-003
 -1.392855023626747E-003 -1.392821217779925E-003
 -1.392831053560626E-003 -1.392845159917744E-003
 -1.392846957005948E-003 -1.392829244634714E-003
 -1.392874961877066E-003 -1.392801270922094E-003
 -1.392823219096038E-003 -1.392852991004139E-003
 -1.392833226731964E-003 -1.392842950627984E-003
 -1.392839512675320E-003 -1.392836750230822E-003
 -1.392849747734638E-003 -1.392826472973270E-003
 -1.392860357297829E-003 -1.392815853494644E-003
 -1.392875436152439E-003 -1.392800808264363E-003
 -1.392823517240997E-003 -1.392852694437991E-003
 -1.392815474937599E-003 -1.392860703146872E-003
 -1.392833730175369E-003 -1.392842541715129E-003
 -1.392840428655085E-003 -1.392835789126133E-003
 -1.392850577113994E-003 -1.392825626189771E-003
 -1.392866530398585E-003 -1.392809725284842E-003
 -1.392836266444391E-003 -1.392839954130905E-003
 -1.392829705553842E-003 -1.392846485874863E-003
 -1.392844892718910E-003 -1.392831313631227E-003
 -1.392818035092660E-003 -1.392858161978466E-003
 -1.392815181648038E-003 -1.392861008227223E-003
 -1.392825963197843E-003 -1.392850254828316E-003
 -1.392844329300597E-003 -1.392831860003916E-003
 -1.392825455822973E-003 -1.392850757445632E-003
 -1.392843083453847E-003 -1.392833133961946E-003
 -1.392837239638633E-003 -1.392838954445842E-003
 -1.392802157822798E-003 -1.392874045658799E-003
 -1.392838908665088E-003 -1.392837328853997E-003
 -1.392865934583947E-003 -1.392810275822230E-003
 -1.392824198010878E-003 -1.392852022750527E-003
 -1.392858703519647E-003 -1.392817538940307E-003
 -1.392822024460447E-003 -1.392854163329791E-003
 -1.392829422980599E-003 -1.392846776818255E-003
 -1.392853520383382E-003 -1.392822709132380E-003
 -1.392846380535234E-003 -1.392829815762559E-003
 -1.392816995560408E-003 -1.392859200511279E-003
 -1.392869891067775E-003 -1.392806342662280E-003
 -1.392828458845317E-003 -1.392847751016912E-003
 -1.392846770562161E-003 -1.392829433223597E-003
 -1.392830411575837E-003 -1.392845761119475E-003
 -1.392843480967042E-003 -1.392832688408562E-003
 -1.392846901184664E-003 -1.392829300392165E-003
 -1.392830993540993E-003 -1.392845164048956E-003
 -1.392825192975432E-003 -1.392850978164847E-003
 -1.392833126375802E-003 -1.392843051071999E-003
 -1.392829970298559E-003 -1.392846178315788E-003
 -1.392843794351673E-003 -1.392832399826427E-003
 -1.392855435664859E-003 -1.392820740581258E-003
 -1.392833756088743E-003 -1.392842404555912E-003
 -1.392841837820197E-003 -1.392834376464293E-003
 -1.392834780919951E-003 -1.392841389773971E-003
 -1.392826719474268E-003 -1.392849448044216E-003
 -1.392818616797582E-003 -1.392857603674277E-003
 -1.392837217179793E-003 -1.392838999436785E-003
 -1.392823565427827E-003 -1.392852622397877E-003
 -1.392790682034778E-003 -1.392885510158900E-003
 -1.392861222748477E-003 -1.392814955990112E-003
 -1.392831364588037E-003 -1.392844804972379E-003
 -1.392814248854549E-003 -1.392861971726302E-003
 -1.392829716472945E-003 -1.392846501212537E-003
 -1.392821344282793E-003 -1.392854813255168E-003
 -1.392829715181434E-003 -1.392846457088489E-003
 -1.392798005863934E-003 -1.392878182426475E-003
 -1.392816030680648E-003 -1.392860138353460E-003
 -1.392843571953098E-003 -1.392832644421392E-003
 -1.392820990497818E-003 -1.392855235683981E-003
 -1.392829949630600E-003 -1.392846217043121E-003
 -1.392857975238269E-003 -1.392818204716740E-003
 -1.392828994142367E-003 -1.392847180517628E-003
 -1.392833179093804E-003 -1.392842971234147E-003
 -1.392835386274494E-003 -1.392840814976862E-003
 -1.392875779783303E-003 -1.392800425712261E-003
 -1.392824176619478E-003 -1.392852007793367E-003
 -1.392851522363325E-003 -1.392824724592146E-003
 -1.392854620865810E-003 -1.392821550208394E-003
 -1.392833028481031E-003 -1.392843206060588E-003
 -1.392855585063032E-003 -1.392820640803801E-003
 -1.392829889629158E-003 -1.392846316469716E-003
 -1.392854550842538E-003 -1.392821645453775E-003
 -1.392828818580119E-003 -1.392847401555274E-003
 -1.392854894068780E-003 -1.392821377005212E-003
 -1.392823607877647E-003 -1.392852647914322E-003
 -1.392847444626452E-003 -1.392828856955793E-003
 -1.392823966386544E-003 -1.392852282752364E-003
 -1.392851074306920E-003 -1.392825165071586E-003
 -1.392834128015396E-003 -1.392842141810718E-003
 -1.392829767998274E-003 -1.392846423326555E-003
 -1.392822923699092E-003 -1.392853320630977E-003
 -1.392839038243303E-003 -1.392837218627821E-003
 -1.392869254857539E-003 -1.392806939078135E-003
 -1.392817167003735E-003 -1.392859078957164E-003
 -1.392856044130634E-003 -1.392820191540989E-003
 -1.392859354243207E-003 -1.392816851544973E-003
 -1.392832743581926E-003 -1.392843473845437E-003
 -1.392851758282125E-003 -1.392824417932485E-003
 -1.392842328406136E-003 -1.392833876208199E-003
 -1.392848246574136E-003 -1.392827942846420E-003
 -1.392838731117781E-003 -1.392837477150804E-003
 -1.392831100028703E-003 -1.392845088431021E-003
 -1.392821091790224E-003 -1.392855073578689E-003
 -1.392844077537703E-003 -1.392832105310993E-003
 -1.392812506311723E-003 -1.392863703360944E-003
 -1.392815890777550E-003 -1.392860302220840E-003
 -1.392852184264819E-003 -1.392824020453179E-003
 -1.392818845647990E-003 -1.392857378492705E-003
 -1.392813590128198E-003 -1.392862622671994E-003
 -1.392844175268182E-003 -1.392832042302645E-003
 -1.392814185729353E-003 -1.392862020963445E-003
 -1.392811074570064E-003 -1.392865111715102E-003
 -1.392830530096588E-003 -1.392845657615699E-003
 -1.392849825259816E-003 -1.392826367931875E-003
 -1.392822618983702E-003 -1.392853554470555E-003
 -1.392825464472922E-003 -1.392850719212481E-003
 -1.392849066234291E-003 -1.392827148420307E-003
 -1.392821655746286E-003 -1.392854540807260E-003
 -1.392808657834495E-003 -1.392867561033311E-003
 -1.392846794671834E-003 -1.392829422501061E-003
 -1.392822902808910E-003 -1.392853325528485E-003
 -1.392819019104309E-003 -1.392857225763673E-003
 -1.392837104657738E-003 -1.392839080500974E-003
 -1.392823773471029E-003 -1.392852417286234E-003
 -1.392807523089451E-003 -1.392868684062727E-003
 -1.392846517793006E-003 -1.392829700449135E-003
 -1.392825710287378E-003 -1.392850483716608E-003
 -1.392848497014488E-003 -1.392827730741552E-003
 -1.392834969583886E-003 -1.392841223891710E-003
 -1.392833388427104E-003 -1.392842772250073E-003
 -1.392839179621376E-003 -1.392837028954341E-003
 -1.392843121970338E-003 -1.392833080514087E-003
 -1.392863906161799E-003 -1.392812311457027E-003
 -1.392831917223787E-003 -1.392844292918410E-003
 -1.392840054276892E-003 -1.392836168600550E-003
 -1.392842112697828E-003 -1.392834132860212E-003
 -1.392844754806455E-003 -1.392831465792392E-003
 -1.392837002269428E-003 -1.392839189498918E-003
 -1.392846514672566E-003 -1.392829704255575E-003
 -1.392835056193882E-003 -1.392841145905669E-003
 -1.392850684774678E-003 -1.392825504965312E-003
 -1.392852084358610E-003 -1.392824155468895E-003
 -1.392837787561032E-003 -1.392838422568539E-003
 -1.392828070122279E-003 -1.392848151738895E-003
 -1.392849890650273E-003 -1.392826356655880E-003
 -1.392854269777948E-003 -1.392821922540619E-003
 -1.392829330467492E-003 -1.392846866657855E-003
 -1.392829537018501E-003 -1.392846681491765E-003
 -1.392831241996484E-003 -1.392844930922171E-003
 -1.392830270901161E-003 -1.392845959022729E-003
 -1.392853260742167E-003 -1.392822969230180E-003
 -1.392848625407205E-003 -1.392827601818675E-003
 -1.392812501851834E-003 -1.392863699443131E-003
 -1.392844555288239E-003 -1.392831644669491E-003
 -1.392854261778964E-003 -1.392821957766549E-003
 -1.392834533845244E-003 -1.392841664703468E-003
 -1.392839529804832E-003 -1.392836641982733E-003
 -1.392851089173950E-003 -1.392825095003435E-003
 -1.392856123140350E-003 -1.392820096083840E-003
 -1.392836498899873E-003 -1.392839720284030E-003
 -1.392840959762951E-003 -1.392835253617336E-003
 -1.392851874936750E-003 -1.392824347305798E-003
 -1.392846891981829E-003 -1.392829318957112E-003
 -1.392842980283254E-003 -1.392833234322612E-003
 -1.392852668726176E-003 -1.392823544336887E-003
 -1.392848873458209E-003 -1.392827328939382E-003
 -1.392853403812809E-003 -1.392822812756388E-003
 -1.392862851289782E-003 -1.392813337976170E-003
 -1.392847970633344E-003 -1.392828231055421E-003
 -1.392835496718849E-003 -1.392840686268181E-003
 -1.392837874869118E-003 -1.392838295738873E-003
 -1.392840336828415E-003 -1.392835867706649E-003
 -1.392860114463259E-003 -1.392816073753718E-003
 -1.392846221320527E-003 -1.392829990953822E-003
 -1.392834674753511E-003 -1.392841548093732E-003
 -1.392847712497475E-003 -1.392828507197918E-003
 -1.392817741156826E-003 -1.392858465325444E-003
 -1.392853349396734E-003 -1.392822848787585E-003
 -1.392829704850163E-003 -1.392846507784110E-003
 -1.392819711886655E-003 -1.392856483162876E-003
 -1.392849665267917E-003 -1.392826512309876E-003
 -1.392818769886737E-003 -1.392857423879299E-003
 -1.392817054062642E-003 -1.392859138001590E-003
 -1.392854109009562E-003 -1.392822092798742E-003
 -1.392821345672014E-003 -1.392854852252280E-003
 -1.392828109109415E-003 -1.392848088460754E-003
 -1.392836794355219E-003 -1.392839403409897E-003
 -1.392818971528066E-003 -1.392857204374172E-003
 -1.392825625792899E-003 -1.392850555635036E-003
 -1.392851387037765E-003 -1.392824817047408E-003
 -1.392828822481242E-003 -1.392847381249935E-003
 -1.392822156854678E-003 -1.392854043074991E-003
 -1.392846351754245E-003 -1.392829832823937E-003
 -1.392829001901357E-003 -1.392847188820368E-003
 Gradient of SCF Energy
            1           2           3           4           5           6
    1  -0.0005113  -0.0001685  -0.0001059  -0.0001781  -0.0003223  -0.0005694
    2  -0.0004581  -0.0001505  -0.0000720  -0.0001065  -0.0001532  -0.0002560
    3  -0.0002371  -0.0001030  -0.0000796  -0.0002204  -0.0002503  -0.0006191
            7           8           9          10          11          12
    1  -0.0000594  -0.0008595  -0.0005948  -0.0001901   0.0017940   0.0029681
    2   0.0001969  -0.0007427  -0.0007021   0.0004682  -0.0026476   0.0045556
    3  -0.0000103  -0.0001992  -0.0007236   0.0004192   0.0034221  -0.0004012
           13          14          15          16          17          18
    1  -0.0050707   0.0012556  -0.0019793  -0.0002038   0.0000279   0.0002255
    2   0.0016935  -0.0010654  -0.0031524   0.0003464   0.0003245   0.0001067
    3  -0.0016524  -0.0044669   0.0002795   0.0000143  -0.0000048   0.0000927
           19          20          21          22          23          24
    1  -0.0001628  -0.0008349  -0.0011673   0.0001621   0.0005329   0.0000731
    2  -0.0004811  -0.0008835  -0.0014544   0.0003322   0.0000821   0.0002294
    3   0.0000343  -0.0005743  -0.0003257  -0.0000129   0.0000042   0.0000049
           25          26          27          28          29          30
    1  -0.0000618  -0.0001974   0.0001957   0.0013088  -0.0007164   0.0001346
    2   0.0000972  -0.0008451   0.0001551   0.0004674   0.0000382   0.0000694
    3   0.0002248   0.0000426  -0.0002586   0.0011074  -0.0005695   0.0001945
           31          32          33          34          35          36
    1   0.0014908   0.0000134   0.0001697   0.0002330   0.0001913   0.0002597
    2   0.0005161   0.0001986   0.0001412   0.0000558   0.0000207  -0.0000343
    3   0.0015849   0.0000384   0.0000752   0.0001134   0.0004233   0.0001059
           37          38          39          40          41          42
    1   0.0009324  -0.0001175   0.0000218  -0.0000246   0.0000474   0.0000285
    2   0.0002308   0.0000527   0.0000341  -0.0000288   0.0000117   0.0000974
    3   0.0002017   0.0000967   0.0000099  -0.0000427  -0.0000343   0.0000186
           43          44          45          46          47          48
    1   0.0000129  -0.0000075  -0.0000301   0.0002561   0.0004932   0.0001613
    2  -0.0000174  -0.0000097  -0.0000170   0.0005141   0.0005652   0.0001195
    3  -0.0000083  -0.0000415  -0.0000120   0.0003781   0.0002397   0.0000236
           49          50          51          52          53          54
    1  -0.0000080   0.0001108   0.0000988   0.0000619   0.0000329   0.0000717
    2   0.0001486   0.0001706  -0.0001442   0.0001568   0.0000441  -0.0000112
    3  -0.0002218   0.0001020  -0.0000008   0.0000452   0.0000665   0.0000058
           55          56          57          58          59          60
    1   0.0000207   0.0000491  -0.0000009  -0.0000660   0.0001030  -0.0003758
    2  -0.0000712   0.0000299   0.0000713   0.0003800   0.0000176  -0.0005994
    3   0.0000712   0.0000164   0.0000056  -0.0005699   0.0001098  -0.0003853
           61          62          63          64          65          66
    1   0.0000781   0.0001707   0.0000506   0.0000715   0.0001330  -0.0006553
    2   0.0001747   0.0000963  -0.0001711   0.0000767   0.0000430   0.0003555
    3  -0.0000129   0.0001651  -0.0001756   0.0000378   0.0000395   0.0006606
           67          68          69          70          71          72
    1  -0.0001737   0.0000896   0.0000102  -0.0000240  -0.0000188  -0.0000084
    2   0.0000194  -0.0000143  -0.0000183  -0.0000195  -0.0000243  -0.0000266
    3   0.0009554   0.0001204   0.0000291  -0.0000040   0.0000058   0.0000231
           73          74          75          76          77          78
    1   0.0003776   0.0001173   0.0002104   0.0000351   0.0002719   0.0003101
    2  -0.0001468   0.0001966   0.0002425   0.0003580   0.0001441   0.0000784
    3   0.0000779   0.0002041   0.0001770  -0.0000364   0.0000549   0.0001313
 Max gradient component =       5.071E-03
 RMS gradient           =       7.947E-04
 Gradient time:  CPU 568.44 s  wall 120.23 s
 Geometry Optimization Parameters
   NAtoms,    NIC,     NZ,  NCons,   NDum,   NFix, NCnnct, MaxDiis
       78     630       0       0       0       0       0       0


** GEOMETRY OPTIMIZATION IN DELOCALIZED INTERNAL COORDINATES **
   Searching for a Minimum

   Optimization Cycle:   1

                       Coordinates (Angstroms)
     ATOM                X               Y               Z
      1  C        -1.1493620000   -1.1535080000    0.0626400000
      2  C        -2.4516070000   -1.3953470000   -0.3790530000
      3  C        -2.9067220000   -2.7016640000   -0.4007680000
      4  C        -2.1162250000   -3.7716020000    0.0064240000
      5  C        -1.1046770000   -4.6826640000    3.3699490000
      6  C        -0.8121880000   -3.5356790000    0.4566300000
      7  C         0.1259330000   -4.5856410000    1.0666230000
      8  C         0.0594600000   -6.0672730000    0.6440310000
      9  C        -0.6892230000   -6.6559560000   -0.3769870000
     10  C        -0.4402690000   -7.9902380000   -0.7134080000
     11  C         0.5232950000   -8.7469500000   -0.0834750000
     12  C         1.2373180000   -8.1779070000    0.9600830000
     13  C         0.9750000000   -6.8743860000    1.3244020000
     14  N         2.2262830000   -8.9328690000    1.6358190000
     15  C         1.8522600000   -9.9849860000    2.4827800000
     16  C         0.5476220000  -10.4747440000    2.5212410000
     17  C         0.2332700000  -11.5559980000    3.3255440000
     18  C         1.2098870000  -12.1658140000    4.0926900000
     19  C         2.4972840000  -11.6511610000    4.0802500000
     20  C         2.8344680000  -10.5477880000    3.3092650000
     21  C         3.5516890000   -8.8476340000    1.2008960000
     22  C         3.8752480000   -8.2489930000   -0.0158900000
     23  C         5.1914240000   -8.2095600000   -0.4421110000
     24  C         6.1914800000   -8.7784200000    0.3268700000
     25  C         5.8651620000   -9.3575290000    1.5439500000
     26  C         4.5592230000   -9.3820090000    2.0119300000
     27  C         4.1732860000   -9.8383680000    3.4042110000
     28  C         0.0042700000   -4.4430360000    2.5853120000
     29  C         1.2017450000   -4.0029780000    3.1471640000
     30  C         2.1909660000   -3.8521850000    2.0835530000
     31  C         1.5854550000   -4.1736600000    0.8712390000
     32  C         1.2973210000   -3.7996720000    4.5147490000
     33  C         0.1831580000   -4.0391150000    5.3053970000
     34  C        -1.0085440000   -4.4777290000    4.7398930000
     35  C         3.5289740000   -3.4893780000    2.1194110000
     36  C         4.2415520000   -3.4488990000    0.9300100000
     37  C         3.6301870000   -3.7679810000   -0.2776950000
     38  C         2.2917830000   -4.1380070000   -0.3139290000
     39  C        -0.3600510000   -2.2162180000    0.4709950000
     40  C        -2.6864840000   -5.1468920000   -0.1610290000
     41  C        -1.8166440000   -5.9767690000   -1.1000000000
     42  C        -3.3057150000   -0.3402330000   -0.8139680000
     43  N        -4.0175420000    0.4903720000   -1.1716620000
     44  C        -0.6212140000    0.1704370000    0.0956620000
     45  N        -0.1839690000    1.2344760000    0.1248000000
     46  C         5.2507740000  -10.7046110000    4.0472520000
     47  C         3.9894970000   -8.5796400000    4.2793170000
     48  H         1.8175550000   -4.3980850000   -1.2526400000
     49  H         4.2013580000   -3.7302950000   -1.1958720000
     50  H         5.2862600000   -3.1684490000    0.9418020000
     51  H         4.0155700000   -3.2477730000    3.0554000000
     52  H        -2.0350030000   -5.0238590000    2.9329120000
     53  H        -1.8670720000   -4.6613230000    5.3719030000
     54  H         0.2419050000   -3.8843250000    6.3743220000
     55  H         2.2225510000   -3.4611190000    4.9629450000
     56  H        -3.9107380000   -2.8960220000   -0.7550070000
     57  H         0.6400470000   -1.9937160000    0.8130460000
     58  H        -0.7841330000  -11.9248290000    3.3316850000
     59  H         0.9734360000  -13.0220880000    4.7098420000
     60  H        -0.2326680000  -10.0297900000    1.9206870000
     61  H         3.2465050000  -12.1141680000    4.7073530000
     62  H         6.6581780000   -9.7781740000    2.1467640000
     63  H         3.1016650000   -7.8213010000   -0.6384280000
     64  H         7.2199260000   -8.7623910000   -0.0077710000
     65  H         5.4279920000   -7.7417640000   -1.3888730000
     66  H         1.5405370000   -6.4678500000    2.1524140000
     67  H         0.7117660000   -9.7706890000   -0.3789910000
     68  H        -1.0284080000   -8.4407390000   -1.5038830000
     69  H        -2.4304090000   -6.7459480000   -1.5718680000
     70  H        -1.4528280000   -5.3452260000   -1.9160620000
     71  H        -2.7891740000   -5.6653550000    0.7958180000
     72  H        -3.6946250000   -5.0622120000   -0.5688500000
     73  H         3.2284570000   -7.9126650000    3.8757060000
     74  H         4.9251190000   -8.0207400000    4.3390950000
     75  H         3.6873270000   -8.8578160000    5.2904550000
     76  H         5.4475920000  -11.6090260000    3.4705630000
     77  H         4.9663760000  -10.9963780000    5.0578870000
     78  H         6.1850410000  -10.1519770000    4.1462350000
   Point Group: c1    Number of degrees of freedom:   228


   Energy is  -1855.528970211


 Attempting to Generate Delocalized Internal Coordinates

228 Hessian modes will be used to form the next step
  Hessian Eigenvalues:
     0.003356    0.005721    0.005905    0.009428    0.011216    0.012261
     0.013031    0.013548    0.013881    0.014936    0.015561    0.016388
     0.016420    0.017113    0.017388    0.017504    0.018495    0.018511
     0.019358    0.019442    0.020042    0.020544    0.020891    0.021229
     0.021851    0.022254    0.023363    0.023535    0.023699    0.023735
     0.023787    0.023801    0.023802    0.023814    0.023870    0.023874
     0.023875    0.023889    0.023935    0.023945    0.023967    0.023980
     0.024001    0.024021    0.024116    0.024121    0.024134    0.024155
     0.024199    0.024318    0.024351    0.024382    0.024390    0.024397
     0.024420    0.024500    0.024534    0.024573    0.024587    0.024671
     0.024878    0.037160    0.044590    0.051447    0.053549    0.053966
     0.054572    0.054911    0.055924    0.056334    0.057364    0.067150
     0.077657    0.085558    0.087715    0.091904    0.094326    0.112861
     0.118682    0.124734    0.125401    0.159877    0.159950    0.159953
     0.159969    0.159972    0.159980    0.159983    0.159989    0.159991
     0.159993    0.159994    0.159996    0.159997    0.159999    0.159999
     0.159999    0.160000    0.160000    0.160000    0.160000    0.160000
     0.160000    0.160000    0.160000    0.160000    0.160000    0.160000
     0.167165    0.175848    0.191715    0.200000    0.200000    0.200000
     0.200000    0.219975    0.219981    0.219999    0.220000    0.220659
     0.224529    0.224778    0.225816    0.226007    0.226334    0.229928
     0.230759    0.234301    0.235865    0.239843    0.240521    0.244906
     0.244912    0.245105    0.245899    0.246152    0.248358    0.249564
     0.249853    0.249986    0.249998    0.249999    0.272165    0.281661
     0.284412    0.285049    0.286657    0.289554    0.294602    0.297297
     0.299137    0.315529    0.318333    0.343373    0.344549    0.346420
     0.346548    0.346593    0.347208    0.347505    0.348149    0.348501
     0.348743    0.354345    0.355891    0.355892    0.356325    0.357082
     0.357214    0.357261    0.357284    0.357299    0.357444    0.357547
     0.357548    0.357820    0.357824    0.357932    0.357944    0.357970
     0.358382    0.358513    0.358547    0.359328    0.359774    0.382428
     0.394848    0.406049    0.416010    0.416496    0.420645    0.422312
     0.422488    0.424834    0.425373    0.428893    0.430128    0.430911
     0.434085    0.435312    0.436017    0.448243    0.454117    0.458543
     0.459445    0.461254    0.465059    0.466416    0.467346    0.471808
     0.472991    0.473399    0.475110    0.475851    0.476680    0.477460
     0.478723    0.479862    0.479957    0.480709    0.481754    0.482703
     0.483178    0.486612    0.487687    0.491819    1.339458    1.340476

 Minimum Search - Taking Simple RFO Step
 Searching for Lamda that Minimizes Along All modes
 Value Taken    Lamda =  -0.00192439
 Step Taken.  Stepsize is  0.252616

                             Maximum     Tolerance    Cnvgd?
         Gradient           0.007242      0.000300      NO
         Displacement       0.085882      0.001200      NO
         Energy change     *********      0.000001      NO


 New Cartesian Coordinates Obtained by Inverse Iteration

 Displacement from previous Coordinates is:  1.499309
 Adding empirical dispersion correction 
 ----------------------------------------------------------------
 Doing -D3(BJ) with
 s6 =   1.00000
 s8 =   0.00000
 a1 =   0.48600
 a2 =   4.50000
 -D3 energy including 3body term =     -0.0774268447 hartrees
 ----------------------------------------------------------------
 Adding gCP correction 
 ----------------------------------------------------------------
 gCP energy =      0.1091877719 hartrees
 ----------------------------------------------------------------
             Standard Nuclear Orientation (Angstroms)
    I     Atom           X                Y                Z
 ----------------------------------------------------------------
    1      C      -1.1941495519    -1.1495602199     0.1529440506
    2      C      -2.4849892775    -1.3985612251    -0.3181574858
    3      C      -2.9155817326    -2.7114671676    -0.3973530639
    4      C      -2.1131452831    -3.7824216818    -0.0167355633
    5      C      -1.0618035655    -4.7500293130     3.3605886316
    6      C      -0.8215207300    -3.5394321395     0.4613733828
    7      C       0.1291594894    -4.5907953645     1.0430732634
    8      C       0.0902725053    -6.0640977601     0.6055979883
    9      C      -0.6293834331    -6.6394780174    -0.4414365700
   10      C      -0.3595447741    -7.9643069062    -0.7970867763
   11      C       0.5786174813    -8.7291447037    -0.1398963603
   12      C       1.2399093997    -8.1821215674     0.9543642967
   13      C       0.9893734667    -6.8757023333     1.3063008730
   14      N       2.2152035993    -8.9140025473     1.6738996395
   15      C       1.8343585226    -9.9448505077     2.5397446232
   16      C       0.5224338490   -10.4133239691     2.5959429630
   17      C       0.1976132108   -11.4881337854     3.4060483732
   18      C       1.1722892410   -12.1145422415     4.1608220732
   19      C       2.4669045256   -11.6195911858     4.1339574139
   20      C       2.8137745775   -10.5225533584     3.3584434380
   21      C       3.5426131148    -8.8369808115     1.2431876531
   22      C       3.8627926393    -8.2545521709     0.0184586284
   23      C       5.1736181462    -8.2430704373    -0.4231725117
   24      C       6.1710577229    -8.8266614152     0.3382541441
   25      C       5.8480281889    -9.3896786394     1.5637779280
   26      C       4.5477835417    -9.3836862357     2.0480549791
   27      C       4.1639270242    -9.8425494592     3.4405829790
   28      C       0.0278627368    -4.4730042243     2.5619409096
   29      C       1.2271705281    -4.0169143714     3.1078709428
   30      C       2.1922926065    -3.8322546519     2.0251186156
   31      C       1.5712635813    -4.1571003078     0.8220680863
   32      C       1.3412149329    -3.8324942651     4.4767692380
   33      C       0.2454481651    -4.1086418113     5.2821982139
   34      C      -0.9465647140    -4.5649499780     4.7312865032
   35      C       3.5223404835    -3.4413898648     2.0335827939
   36      C       4.2085596313    -3.3845927147     0.8291404129
   37      C       3.5803783298    -3.7135007668    -0.3672824323
   38      C       2.2494280183    -4.1061151247    -0.3779465707
   39      C      -0.3922288345    -2.2139961891     0.5304663833
   40      C      -2.6532082147    -5.1619360176    -0.2430335090
   41      C      -1.7431817995    -5.9524847869    -1.1795243926
   42      C      -3.3528701155    -0.3441407362    -0.7265550533
   43      N      -4.0754378764     0.4856725427    -1.0640021785
   44      C      -0.6912181723     0.1813295627     0.2461728225
   45      N      -0.2743022900     1.2510712010     0.3239966775
   46      C       5.2222052924   -10.7427405216     4.0678399865
   47      C       4.0031072018    -8.5903742079     4.3265602194
   48      H       1.7592563556    -4.3731940855    -1.3066393027
   49      H       4.1338348440    -3.6659603351    -1.2954445182
   50      H       5.2481758646    -3.0865694752     0.8200961795
   51      H       4.0235104403    -3.1928787618     2.9600180470
   52      H      -1.9909958973    -5.1074715739     2.9337231903
   53      H      -1.7895777473    -4.7786241578     5.3746544170
   54      H       0.3188048413    -3.9689353865     6.3522786874
   55      H       2.2661389170    -3.4800899082     4.9146356682
   56      H      -3.9103097623    -2.9099281116    -0.7750617362
   57      H       0.5990450578    -1.9884710080     0.8953239122
   58      H      -0.8255772727   -11.8400999786     3.4299457285
   59      H       0.9284256788   -12.9668668090     4.7804706030
   60      H      -0.2559843964    -9.9500434801     2.0075886191
   61      H       3.2151935445   -12.0958740540     4.7522563390
   62      H       6.6383168885    -9.8280453108     2.1570259332
   63      H       3.0893694468    -7.8188768673    -0.5986989503
   64      H       7.1949534067    -8.8366252723    -0.0100731460
   65      H       5.4069518247    -7.7887232135    -1.3772366303
   66      H       1.5388627401    -6.4771411966     2.1483051187
   67      H       0.7867770370    -9.7437734752    -0.4546939174
   68      H      -0.9136137273    -8.4013034958    -1.6193820918
   69      H      -2.3326937168    -6.7156077695    -1.6905670005
   70      H      -1.3636220628    -5.2940936448    -1.9667361083
   71      H      -2.7730962589    -5.7106566605     0.6947044723
   72      H      -3.6512183503    -5.0818583544    -0.6759532862
   73      H       3.2491687734    -7.9087110831     3.9327072500
   74      H       4.9472063585    -8.0466285176     4.3869933033
   75      H       3.6996678691    -8.8754804281     5.3353236852
   76      H       5.3914964622   -11.6475932835     3.4824334423
   77      H       4.9340382824   -11.0369677960     5.0767948996
   78      H       6.1705661700   -10.2155521085     4.1665565327
 ----------------------------------------------------------------
 Nuclear Repulsion Energy =  5555.3592315708 hartrees
 There are      158 alpha and      158 beta electrons
 Nucleus-field energy     =     0.0000000994 hartrees
 Requested basis set is def2-mSVP
 There are 391 shells and 767 basis functions
 A cutoff of  1.0D-11 yielded  35479 shell pairs
 There are    142093 function pairs (    156761 Cartesian)
 Smallest overlap matrix eigenvalue = 2.52E-04
 Guess MOs from SCF MO coefficient file
 Reading MOs from coefficient file
 Reading MOs from coefficient file
 A restricted hybrid HF-DFT SCF calculation will be
 performed using Pulay DIIS extrapolation
 Exchange:     0.4200 Hartree-Fock + 0.5800 PBEh-3c
 Correlation:  1.0000 PBEh-3c
 Using SG-1 standard quadrature grid
 Dispersion:   Grimme D3
 SCF converges when DIIS error is below 1.0E-08
 Geometry optimization detected.  Setting ReadMinima to 0
 Setting SaveMinima to 0
 using 8 threads for integral computing
 -------------------------------------------------------
 OpenMP Integral computing Module                
 Release: version 1.0, May 2013, Q-Chem Inc. Pittsburgh 
 -------------------------------------------------------
 ---------------------------------------
  Cycle       Energy         DIIS Error
 ---------------------------------------
    1   -1855.5170012750      6.95E-04
    2   -1855.5289550724      6.51E-05
    3   -1855.5293557653      5.99E-05
    4   -1855.5295952539      2.67E-05
    5   -1855.5296477774      1.06E-05
    6   -1855.5296556965      3.78E-06
    7   -1855.5296568060      9.26E-07
    8   -1855.5296568657      4.48E-07
    9   -1855.5296568841      1.86E-07
   10   -1855.5296568827      4.75E-08
   11   -1855.5296568708      2.03E-08
   12   -1855.5296568399      8.30E-09 Convergence criterion met
 ---------------------------------------
 SCF time:  CPU 1931.24 s  wall 507.34 s
 SCF   energy in the final basis set = -1855.52965684
 Total energy in the final basis set = -1855.52965684
 
 --------------------------------------------------------------
 
                    Orbital Energies (a.u.)
 --------------------------------------------------------------
 
 Alpha MOs
 -- Occupied --
-14.680 -14.657 -14.654 -10.522 -10.520 -10.510 -10.506 -10.500
-10.500 -10.498 -10.497 -10.493 -10.492 -10.491 -10.490 -10.487
-10.480 -10.476 -10.474 -10.474 -10.473 -10.472 -10.470 -10.469
-10.467 -10.466 -10.466 -10.465 -10.465 -10.464 -10.464 -10.464
-10.464 -10.463 -10.462 -10.451 -10.451 -10.444 -10.444 -10.444
-10.444 -10.442 -10.441 -10.437 -10.437 -10.431 -10.426  -1.093
 -1.042  -1.030  -1.019  -1.003  -0.988  -0.968  -0.961  -0.958
 -0.939  -0.933  -0.912  -0.898  -0.890  -0.884  -0.858  -0.855
 -0.850  -0.846  -0.835  -0.825  -0.819  -0.808  -0.796  -0.773
 -0.772  -0.747  -0.731  -0.726  -0.715  -0.709  -0.703  -0.692
 -0.681  -0.678  -0.672  -0.672  -0.666  -0.646  -0.619  -0.614
 -0.613  -0.610  -0.598  -0.583  -0.582  -0.573  -0.566  -0.560
 -0.541  -0.540  -0.537  -0.533  -0.531  -0.525  -0.522  -0.521
 -0.515  -0.510  -0.507  -0.504  -0.502  -0.501  -0.498  -0.494
 -0.492  -0.490  -0.487  -0.485  -0.475  -0.468  -0.459  -0.450
 -0.448  -0.444  -0.441  -0.439  -0.438  -0.436  -0.434  -0.430
 -0.429  -0.426  -0.424  -0.419  -0.419  -0.416  -0.416  -0.414
 -0.411  -0.404  -0.400  -0.399  -0.398  -0.395  -0.392  -0.379
 -0.374  -0.364  -0.349  -0.338  -0.322  -0.313  -0.307  -0.304
 -0.297  -0.292  -0.288  -0.281  -0.270  -0.230
 -- Virtual --
 -0.063  -0.041  -0.028  -0.016  -0.009  -0.003   0.014   0.018
  0.019   0.033   0.047   0.050   0.050   0.070   0.085   0.111
  0.112   0.121   0.128   0.132   0.132   0.138   0.146   0.150
  0.156   0.157   0.159   0.163   0.167   0.171   0.181   0.186
  0.189   0.192   0.194   0.198   0.199   0.200   0.205   0.205
  0.214   0.215   0.217   0.223   0.224   0.229   0.230   0.232
  0.235   0.238   0.240   0.244   0.244   0.247   0.251   0.252
  0.257   0.258   0.259   0.263   0.268   0.270   0.275   0.281
  0.284   0.288   0.293   0.296   0.298   0.302   0.307   0.311
  0.313   0.319   0.326   0.332   0.333   0.346   0.354   0.360
  0.364   0.365   0.370   0.377   0.385   0.386   0.388   0.393
  0.401   0.415   0.416   0.421   0.430   0.433   0.447   0.456
  0.459   0.463   0.470   0.475   0.480   0.483   0.485   0.491
  0.497   0.502   0.509   0.511   0.517   0.519   0.521   0.524
  0.530   0.533   0.534   0.538   0.540   0.544   0.547   0.550
  0.553   0.556   0.560   0.564   0.565   0.568   0.570   0.572
  0.578   0.580   0.582   0.584   0.589   0.591   0.593   0.597
  0.599   0.605   0.607   0.609   0.613   0.615   0.618   0.620
  0.620   0.622   0.624   0.627   0.634   0.637   0.640   0.641
  0.643   0.648   0.649   0.651   0.651   0.659   0.662   0.664
  0.666   0.667   0.675   0.676   0.682   0.687   0.692   0.698
  0.700   0.702   0.705   0.710   0.715   0.716   0.719   0.723
  0.728   0.732   0.734   0.737   0.740   0.744   0.748   0.752
  0.753   0.759   0.766   0.767   0.780   0.782   0.793   0.800
  0.802   0.808   0.810   0.817   0.823   0.825   0.835   0.839
  0.840   0.855   0.863   0.869   0.878   0.889   0.895   0.900
  0.904   0.912   0.918   0.922   0.928   0.931   0.933   0.937
  0.942   0.945   0.951   0.953   0.959   0.963   0.965   0.969
  0.972   0.976   0.980   0.984   0.990   0.992   0.995   0.995
  0.996   1.003   1.006   1.007   1.011   1.016   1.020   1.027
  1.031   1.033   1.041   1.044   1.047   1.048   1.051   1.054
  1.057   1.059   1.063   1.069   1.070   1.078   1.082   1.085
  1.090   1.093   1.097   1.103   1.105   1.112   1.113   1.120
  1.125   1.130   1.134   1.136   1.141   1.144   1.145   1.150
  1.152   1.163   1.165   1.177   1.183   1.188   1.197   1.204
  1.213   1.219   1.228   1.237   1.246   1.250   1.253   1.261
  1.265   1.268   1.276   1.282   1.289   1.297   1.299   1.302
  1.310   1.314   1.316   1.326   1.330   1.338   1.340   1.345
  1.348   1.360   1.369   1.376   1.379   1.381   1.395   1.398
  1.408   1.413   1.424   1.434   1.441   1.444   1.456   1.476
  1.494   1.499   1.502   1.505   1.507   1.517   1.518   1.520
  1.530   1.536   1.537   1.539   1.547   1.553   1.555   1.557
  1.559   1.563   1.568   1.571   1.580   1.585   1.590   1.593
  1.595   1.602   1.606   1.614   1.621   1.628   1.641   1.651
  1.656   1.665   1.686   1.691   1.696   1.703   1.723   1.734
  1.738   1.744   1.756   1.762   1.774   1.780   1.786   1.789
  1.802   1.806   1.818   1.824   1.830   1.838   1.842   1.846
  1.852   1.857   1.859   1.868   1.873   1.875   1.879   1.890
  1.899   1.903   1.906   1.917   1.923   1.931   1.936   1.941
  1.949   1.954   1.962   1.971   1.981   1.988   1.993   1.999
  2.000   2.004   2.009   2.017   2.019   2.026   2.031   2.038
  2.039   2.045   2.049   2.061   2.064   2.064   2.078   2.083
  2.092   2.096   2.105   2.115   2.130   2.137   2.142   2.145
  2.146   2.156   2.161   2.162   2.164   2.170   2.172   2.187
  2.192   2.195   2.201   2.210   2.212   2.223   2.224   2.233
  2.240   2.244   2.248   2.252   2.257   2.267   2.272   2.279
  2.285   2.289   2.292   2.293   2.305   2.311   2.316   2.318
  2.327   2.331   2.336   2.340   2.348   2.352   2.356   2.360
  2.365   2.368   2.379   2.385   2.386   2.390   2.395   2.396
  2.414   2.420   2.429   2.438   2.465   2.466   2.477   2.483
  2.499   2.510   2.522   2.527   2.533   2.545   2.562   2.569
  2.588   2.594   2.596   2.603   2.621   2.630   2.631   2.652
  2.666   2.675   2.684   2.695   2.700   2.707   2.711   2.719
  2.724   2.730   2.733   2.736   2.740   2.744   2.754   2.756
  2.760   2.766   2.774   2.776   2.779   2.794   2.798   2.803
  2.817   2.821   2.832   2.837   2.842   2.851   2.856   2.862
  2.872   2.887   2.892   2.895   2.901   2.915   2.924   2.932
  2.947   2.977   2.979   2.985   2.992   3.012   3.017   3.030
  3.035   3.048   3.079   3.089   3.149   3.225   3.275   3.330
  3.364   3.371   3.381   3.388   3.411   3.497   3.548   3.562
  3.592   3.678  13.192  13.247  13.265  13.324  13.362  13.404
 13.632  13.661  13.666  13.718  13.728  13.733  13.756  13.774
 13.777  13.801  13.809  13.825  13.897  13.913  13.922  14.026
 14.063  14.089  14.127  14.173  14.179  14.180  14.198  14.214
 14.222  14.246  14.249  14.255  14.271  14.283  14.320  14.403
 14.574  14.583  14.586  14.592  14.603  14.622  19.495  19.565
 19.633
 --------------------------------------------------------------
 
          Ground-State Mulliken Net Atomic Charges

     Atom                 Charge (a.u.)
  ----------------------------------------
      1 C                     0.090205
      2 C                     0.078443
      3 C                    -0.319914
      4 C                     0.099823
      5 C                    -0.273672
      6 C                     0.219880
      7 C                    -0.441164
      8 C                     0.226875
      9 C                     0.059270
     10 C                    -0.298224
     11 C                    -0.242510
     12 C                     0.202233
     13 C                    -0.261994
     14 N                    -0.706875
     15 C                     0.323845
     16 C                    -0.298930
     17 C                    -0.231832
     18 C                    -0.220397
     19 C                    -0.322138
     20 C                     0.157591
     21 C                     0.314230
     22 C                    -0.279663
     23 C                    -0.235240
     24 C                    -0.218743
     25 C                    -0.326917
     26 C                     0.170557
     27 C                    -0.232113
     28 C                     0.148691
     29 C                     0.141915
     30 C                     0.158534
     31 C                     0.056976
     32 C                    -0.326100
     33 C                    -0.215031
     34 C                    -0.223850
     35 C                    -0.328230
     36 C                    -0.208846
     37 C                    -0.227490
     38 C                    -0.254324
     39 C                    -0.293006
     40 C                    -0.541775
     41 C                    -0.516682
     42 C                    -0.006978
     43 N                    -0.154130
     44 C                    -0.009233
     45 N                    -0.154577
     46 C                    -0.665068
     47 C                    -0.594940
     48 H                     0.221710
     49 H                     0.227503
     50 H                     0.229114
     51 H                     0.213425
     52 H                     0.215867
     53 H                     0.228312
     54 H                     0.228960
     55 H                     0.213623
     56 H                     0.245976
     57 H                     0.281941
     58 H                     0.215106
     59 H                     0.212446
     60 H                     0.243197
     61 H                     0.213364
     62 H                     0.212938
     63 H                     0.242594
     64 H                     0.211685
     65 H                     0.213264
     66 H                     0.262662
     67 H                     0.249204
     68 H                     0.220314
     69 H                     0.247493
     70 H                     0.251826
     71 H                     0.256700
     72 H                     0.251516
     73 H                     0.237576
     74 H                     0.218518
     75 H                     0.220366
     76 H                     0.239054
     77 H                     0.227700
     78 H                     0.227564
  ----------------------------------------
  Sum of atomic charges =     0.000000

 -----------------------------------------------------------------
                    Cartesian Multipole Moments
 -----------------------------------------------------------------
    Charge (ESU x 10^10)
                 0.0000
    Dipole Moment (Debye)
         X       1.3784      Y      -6.9864      Z       1.1180
       Tot       7.2083
    Quadrupole Moments (Debye-Ang)
        XX    -255.3789     XY      19.8286     YY    -264.5261
        XZ       2.7335     YZ      -1.3427     ZZ    -249.7970
    Octopole Moments (Debye-Ang^2)
       XXX    -754.9375    XXY    1445.0409    XYY    -429.1724
       YYY    4880.4441    XXZ    -333.2734    XYZ     -57.5031
       YYZ    -343.0770    XZZ    -253.6078    YZZ    1488.5360
       ZZZ   -1068.2897
    Hexadecapole Moments (Debye-Ang^3)
      XXXX  -12402.8240   XXXY    8947.4298   XXYY  -14208.5433
      XYYY   10673.5176   YYYY  -78830.6015   XXXZ   -2447.4287
      XXYZ    2726.2860   XYYZ    -266.6357   YYYZ    8139.7945
      XXZZ   -3434.1332   XYZZ    2858.1390   YYZZ  -13477.1519
      XZZZ   -2410.5265   YZZZ    8688.2054   ZZZZ   -8575.3538
 -----------------------------------------------------------------
 Calculating analytic gradient of the SCF energy
 -1.405214285268620E-003 -1.405229276234689E-003
 -1.405228289030789E-003 -1.405215283900294E-003
 -1.405218460345633E-003 -1.405225156933125E-003
 -1.405248145072723E-003 -1.405195435460199E-003
 -1.405194104408958E-003 -1.405249465908458E-003
 -1.405235559853637E-003 -1.405208054140750E-003
 -1.405216547065012E-003 -1.405227039389250E-003
 -1.405236346705751E-003 -1.405207217940307E-003
 -1.405222719104703E-003 -1.405220907602926E-003
 -1.405229055443210E-003 -1.405214531775209E-003
 -1.405190861553406E-003 -1.405252697824315E-003
 -1.405233637665199E-003 -1.405209984593054E-003
 -1.405226231874425E-003 -1.405217336710137E-003
 -1.405208551946616E-003 -1.405234971780026E-003
 -1.405212942165696E-003 -1.405230594363785E-003
 -1.405222560718836E-003 -1.405221027418873E-003
 -1.405226604693327E-003 -1.405216983734370E-003
 -1.405222647073399E-003 -1.405220979300156E-003
 -1.405249121072071E-003 -1.405194458855390E-003
 -1.405209566198618E-003 -1.405233991325902E-003
 -1.405247531948217E-003 -1.405196061379819E-003
 -1.405229065255171E-003 -1.405214522128433E-003
 -1.405228746986135E-003 -1.405214834777137E-003
 -1.405231540832963E-003 -1.405212057823410E-003
 -1.405244358108572E-003 -1.405199240830658E-003
 -1.405221916157733E-003 -1.405221656899493E-003
 -1.405230380207711E-003 -1.405213223995736E-003
 -1.405238519590371E-003 -1.405205086225063E-003
 -1.405229170615831E-003 -1.405214419491533E-003
 -1.405228265900729E-003 -1.405215330263062E-003
 -1.405241413757740E-003 -1.405202179945181E-003
 -1.405224158798757E-003 -1.405219408698884E-003
 -1.405232354529897E-003 -1.405211233930346E-003
 -1.405222999934576E-003 -1.405220581755336E-003
 -1.405213219347993E-003 -1.405230379596400E-003
 -1.405216168064301E-003 -1.405227406920514E-003
 -1.405228630597844E-003 -1.405214952123988E-003
 -1.405229048991020E-003 -1.405214511940169E-003
 -1.405248884132725E-003 -1.405194700901138E-003
 -1.405233802907265E-003 -1.405209767652807E-003
 -1.405222892655473E-003 -1.405220694731196E-003
 -1.405214762196097E-003 -1.405228816443004E-003
 -1.405207689921473E-003 -1.405235872934559E-003
 -1.405239284308564E-003 -1.405204324507751E-003
 -1.405214512769066E-003 -1.405229069524428E-003
 -1.405231487672918E-003 -1.405212080423247E-003
 -1.405259146186548E-003 -1.405184455767424E-003
 -1.405205766903563E-003 -1.405237812980674E-003
 -1.405216541096476E-003 -1.405227002467137E-003
 -1.405223439875569E-003 -1.405220189436553E-003
 -1.405232109188187E-003 -1.405211480994883E-003
 -1.405245335188951E-003 -1.405198242912299E-003
 -1.405258510591859E-003 -1.405185102708854E-003
 -1.405206512786205E-003 -1.405237069043865E-003
 -1.405198404513022E-003 -1.405245140122469E-003
 -1.405217981544338E-003 -1.405225658709434E-003
 -1.405223511211887E-003 -1.405220076039866E-003
 -1.405234203174504E-003 -1.405209366997438E-003
 -1.405250083044990E-003 -1.405193540599546E-003
 -1.405220156269980E-003 -1.405223433033646E-003
 -1.405212737068050E-003 -1.405230822683161E-003
 -1.405229945920210E-003 -1.405213630519519E-003
 -1.405202609062207E-003 -1.405240956967518E-003
 -1.405198951521197E-003 -1.405244605765943E-003
 -1.405211085297945E-003 -1.405232502560124E-003
 -1.405228556437465E-003 -1.405215002098922E-003
 -1.405209386213051E-003 -1.405234195043149E-003
 -1.405227956188674E-003 -1.405215630686966E-003
 -1.405220637908470E-003 -1.405222925533808E-003
 -1.405186381646553E-003 -1.405257188950227E-003
 -1.405223534834343E-003 -1.405220073461318E-003
 -1.405250159837271E-003 -1.405193418149973E-003
 -1.405207970976780E-003 -1.405235617626536E-003
 -1.405242947651778E-003 -1.405200666844074E-003
 -1.405205418029498E-003 -1.405238138790175E-003
 -1.405213633936182E-003 -1.405229934806864E-003
 -1.405238040658354E-003 -1.405205560136133E-003
 -1.405230829295948E-003 -1.405212735615322E-003
 -1.405200599272247E-003 -1.405242965661674E-003
 -1.405254717897474E-003 -1.405188883339305E-003
 -1.405213092311054E-003 -1.405230485810794E-003
 -1.405229531615426E-003 -1.405214039715469E-003
 -1.405214117761362E-003 -1.405229420751149E-003
 -1.405228418102797E-003 -1.405215119066909E-003
 -1.405230235406745E-003 -1.405213333346267E-003
 -1.405214786767041E-003 -1.405228736916470E-003
 -1.405209725123035E-003 -1.405233814226697E-003
 -1.405217145688333E-003 -1.405226398779755E-003
 -1.405213199160686E-003 -1.405230317724582E-003
 -1.405228395280059E-003 -1.405215167846515E-003
 -1.405238978724957E-003 -1.405204564808654E-003
 -1.405217782163913E-003 -1.405225747414986E-003
 -1.405225562643944E-003 -1.405218020782395E-003
 -1.405217522826926E-003 -1.405226015932010E-003
 -1.405209865220598E-003 -1.405233667811671E-003
 -1.405202047694482E-003 -1.405241540699259E-003
 -1.405220889657773E-003 -1.405222693774693E-003
 -1.405208087414613E-003 -1.405235464660564E-003
 -1.405174370979575E-003 -1.405269190019382E-003
 -1.405244283782325E-003 -1.405199262168584E-003
 -1.405215823076338E-003 -1.405227710432523E-003
 -1.405197005872794E-003 -1.405246583174577E-003
 -1.405212474454581E-003 -1.405231110585364E-003
 -1.405204349138338E-003 -1.405239177868598E-003
 -1.405214294720213E-003 -1.405229246114923E-003
 -1.405181809470950E-003 -1.405261746507070E-003
 -1.405198589586403E-003 -1.405244948658988E-003
 -1.405227667583731E-003 -1.405215918144230E-003
 -1.405204023928359E-003 -1.405239568460864E-003
 -1.405212847296295E-003 -1.405230688423583E-003
 -1.405242075465880E-003 -1.405201472535285E-003
 -1.405213451813960E-003 -1.405230090284386E-003
 -1.405217129578033E-003 -1.405226388917866E-003
 -1.405219022378798E-003 -1.405224547776687E-003
 -1.405259490967571E-003 -1.405184083120256E-003
 -1.405208341656193E-003 -1.405235211066009E-003
 -1.405235404652747E-003 -1.405208210707675E-003
 -1.405238497915377E-003 -1.405205043876218E-003
 -1.405216620958584E-003 -1.405226981625741E-003
 -1.405239122081958E-003 -1.405204471010678E-003
 -1.405213761518934E-003 -1.405229812459398E-003
 -1.405238169518377E-003 -1.405205395615084E-003
 -1.405212882480818E-003 -1.405230705033738E-003
 -1.405238903667699E-003 -1.405204734884715E-003
 -1.405207184643034E-003 -1.405236439690223E-003
 -1.405230706872937E-003 -1.405212963608129E-003
 -1.405207699545526E-003 -1.405235917521493E-003
 -1.405234750114798E-003 -1.405208857844723E-003
 -1.405217942930631E-003 -1.405225695455278E-003
 -1.405213978247468E-003 -1.405229583807294E-003
 -1.405206523394889E-003 -1.405237086614947E-003
 -1.405221762645136E-003 -1.405221860494868E-003
 -1.405253218299745E-003 -1.405190345341648E-003
 -1.405200487420668E-003 -1.405243125358073E-003
 -1.405239222793029E-003 -1.405204379356495E-003
 -1.405243345048531E-003 -1.405200229229940E-003
 -1.405214550445676E-003 -1.405229034865641E-003
 -1.405235019126265E-003 -1.405208525994850E-003
 -1.405226681807311E-003 -1.405216889936254E-003
 -1.405231247179835E-003 -1.405212310298513E-003
 -1.405220866519997E-003 -1.405222710702331E-003
 -1.405215222146021E-003 -1.405228334259788E-003
 -1.405205139822554E-003 -1.405238393589736E-003
 -1.405228442581870E-003 -1.405215109239453E-003
 -1.405196503206532E-003 -1.405247074363838E-003
 -1.405199013677291E-003 -1.405244549066998E-003
 -1.405236205725306E-003 -1.405207367752252E-003
 -1.405202673779689E-003 -1.405240918386047E-003
 -1.405196952610486E-003 -1.405246629833531E-003
 -1.405228409623638E-003 -1.405215176038885E-003
 -1.405197812560137E-003 -1.405245761948127E-003
 -1.405194446848273E-003 -1.405249107812711E-003
 -1.405215077620746E-003 -1.405228478622774E-003
 -1.405233915845420E-003 -1.405209644804318E-003
 -1.405206849403984E-003 -1.405236690862123E-003
 -1.405208861586929E-003 -1.405234691237735E-003
 -1.405233493886184E-003 -1.405210087780900E-003
 -1.405205988662591E-003 -1.405237573007803E-003
 -1.405191617566426E-003 -1.405251969722289E-003
 -1.405230291680479E-003 -1.405213292917782E-003
 -1.405206239194835E-003 -1.405237353693072E-003
 -1.405201300777271E-003 -1.405242312326705E-003
 -1.405220555025511E-003 -1.405222997899557E-003
 -1.405206898666356E-003 -1.405236659644150E-003
 -1.405191212655828E-003 -1.405252362456315E-003
 -1.405230785140076E-003 -1.405212802503489E-003
 -1.405209112970687E-003 -1.405234448882701E-003
 -1.405231843038073E-003 -1.405211752888326E-003
 -1.405219042542935E-003 -1.405224519195488E-003
 -1.405217150832725E-003 -1.405226377808813E-003
 -1.405222260108804E-003 -1.405221316430507E-003
 -1.405227491361740E-003 -1.405216079368305E-003
 -1.405247517100481E-003 -1.405196066667546E-003
 -1.405214857416793E-003 -1.405228720892490E-003
 -1.405223659516624E-003 -1.405219931075234E-003
 -1.405225420798193E-003 -1.405218193187180E-003
 -1.405228132902918E-003 -1.405215456791804E-003
 -1.405220299681308E-003 -1.405223259304955E-003
 -1.405231239432387E-003 -1.405212349137092E-003
 -1.405217875929490E-003 -1.405225695348916E-003
 -1.405235055930205E-003 -1.405208501197032E-003
 -1.405235060987227E-003 -1.405208547758137E-003
 -1.405221324007717E-003 -1.405222255451268E-003
 -1.405212610938187E-003 -1.405230979012055E-003
 -1.405232722983828E-003 -1.405210894838767E-003
 -1.405238016617785E-003 -1.405205545173029E-003
 -1.405213328482891E-003 -1.405230236127756E-003
 -1.405213592729603E-003 -1.405229994442792E-003
 -1.405214737893964E-003 -1.405228804585107E-003
 -1.405214431831440E-003 -1.405229164863750E-003
 -1.405236492103506E-003 -1.405207107840885E-003
 -1.405231429178059E-003 -1.405212165958277E-003
 -1.405196176117144E-003 -1.405247393285153E-003
 -1.405228947580929E-003 -1.405214620551288E-003
 -1.405237293453872E-003 -1.405206293797255E-003
 -1.405218962932995E-003 -1.405224604924442E-003
 -1.405223890550577E-003 -1.405219649851166E-003
 -1.405233812392135E-003 -1.405209738862564E-003
 -1.405239501815184E-003 -1.405204084931157E-003
 -1.405220625208339E-003 -1.405222962096038E-003
 -1.405225548973164E-003 -1.405218030813709E-003
 -1.405235746992272E-003 -1.405207842414270E-003
 -1.405230797904241E-003 -1.405212780434748E-003
 -1.405227877741503E-003 -1.405215703494730E-003
 -1.405236608715691E-003 -1.405206971758017E-003
 -1.405232640135323E-003 -1.405210930279601E-003
 -1.405237578049744E-003 -1.405206007060334E-003
 -1.405246473831795E-003 -1.405197084117271E-003
 -1.405231957751545E-003 -1.405211611994696E-003
 -1.405220013418662E-003 -1.405223538808600E-003
 -1.405221385156206E-003 -1.405222154049084E-003
 -1.405223637805925E-003 -1.405219934620778E-003
 -1.405243943454295E-003 -1.405199614810312E-003
 -1.405230629210059E-003 -1.405212952958520E-003
 -1.405218305715021E-003 -1.405225284914194E-003
 -1.405231583780015E-003 -1.405212003471829E-003
 -1.405202184162036E-003 -1.405241390676972E-003
 -1.405237344507130E-003 -1.405206221275114E-003
 -1.405213453337609E-003 -1.405230129378904E-003
 -1.405203233701952E-003 -1.405240329371419E-003
 -1.405233410774461E-003 -1.405210135023531E-003
 -1.405201983458394E-003 -1.405241578587491E-003
 -1.405200643729600E-003 -1.405242916981070E-003
 -1.405237448919223E-003 -1.405206121559623E-003
 -1.405205332736914E-003 -1.405238234691438E-003
 -1.405211450681659E-003 -1.405232114350236E-003
 -1.405220622823130E-003 -1.405222942018779E-003
[...]
     44  C        -1.3989782367    0.0936915197    0.9381664674
     45  N        -1.1603253064    1.1844632841    1.2163883208
     46  C         4.9277056723  -11.0907303848    4.2834032444
     47  C         3.8813048090   -8.8581012472    4.6054883161
     48  H         1.3676185914   -4.1291804853   -1.6384676927
     49  H         3.6353447604   -3.2077938714   -2.0140350651
     50  H         5.0433212222   -2.5544678468   -0.1051117467
     51  H         4.2183295156   -2.7874892587    2.2068617291
     52  H        -1.5720968942   -5.1172870779    3.1482370095
     53  H        -1.0084156729   -4.7376382216    5.5315606585
     54  H         1.1736823634   -3.7899090232    6.1565234298
     55  H         2.8354723954   -3.2036019448    4.4281542643
     56  H        -4.0592267051   -3.2254093631   -0.7533415790
     57  H         0.2033887109   -1.9367149466    1.2759301624
     58  H        -1.1387720364  -11.5819439017    3.1683939232
     59  H         0.4010309730  -12.9388852884    4.5687464802
     60  H        -0.2931828240   -9.6811363830    1.9030799096
     61  H         2.7509625420  -12.2862276392    4.7523864500
     62  H         6.5497136001  -10.1829094664    2.5570291680
     63  H         3.4233270502   -7.6892836529   -0.3074570598
     64  H         7.3624650344   -9.1128194622    0.5124928076
     65  H         5.7830921568   -7.8191869358   -0.9044967502
     66  H         1.5260549393   -6.4295251944    2.2452657226
     67  H         1.1064780052   -9.6638565942   -0.4704829356
     68  H        -0.4437967531   -8.3090020307   -1.8221526923
     69  H        -1.7490017621   -6.5787550726   -2.1482747387
     70  H        -0.9043185829   -5.0599680354   -2.0195185393
     71  H        -2.6816162802   -6.0008631735    0.2584910621
     72  H        -3.3974293108   -5.2673127560   -1.1534562072
     73  H         3.2211666194   -8.0876633793    4.2071340100
     74  H         4.8612858813   -8.4070169558    4.7703483952
     75  H         3.4784291791   -9.1759642046    5.5686944310
     76  H         5.0491120071  -11.9750393983    3.6564395781
     77  H         4.5532222854  -11.4089763078    5.2558716363
     78  H         5.9125987940  -10.6629620067    4.4680077001

Z-matrix Print:
$molecule
0 1
N 
C  1 1.398032
C  2 1.395303 1 121.500007
H  3 1.080396 2 120.656853 1 -3.140772 0
C  3 1.383946 2 120.396320 1 176.241812 0
H  5 1.082295 3 119.209601 2 -179.537885 0
C  5 1.383060 3 120.328377 2 -0.364612 0
H  7 1.081582 5 120.745469 3 -178.741162 0
C  7 1.386271 5 119.050683 3 2.394429 0
H  9 1.080915 7 118.482655 5 178.200928 0
C  9 1.387669 7 121.881292 5 -0.807188 0
C  1 1.399976 2 119.184155 3 -154.594788 0
C  12 1.394357 1 121.098428 2 153.625336 0
H  13 1.080723 12 120.596988 1 2.477584 0
C  13 1.383479 12 120.239206 1 -177.120537 0
H  15 1.082126 13 119.172809 12 179.865213 0
C  15 1.383467 13 120.302238 12 0.656860 0
H  17 1.081493 15 120.696245 13 178.927943 0
C  17 1.386448 15 119.168894 13 -1.921436 0
H  19 1.081064 17 118.583790 15 -178.723311 0
C  19 1.387527 17 121.812481 15 0.333936 0
C  1 1.418196 2 118.865381 3 2.767884 0
C  22 1.379731 1 119.284376 2 107.835413 0
H  23 1.080419 22 117.031487 1 0.055161 0
C  22 1.387330 1 121.004882 2 -73.179152 0
H  25 1.082674 22 120.433282 1 0.514190 0
C  25 1.378237 22 118.619646 1 179.219330 0
H  27 1.083570 25 119.163650 22 -177.808545 0
C  27 1.394833 25 122.234348 22 1.896900 0
C  29 1.396618 27 119.291447 25 0.097419 0
C  29 1.499306 27 117.393804 25 -175.697381 0
H  31 1.090900 29 108.566502 27 5.614294 0
H  31 1.094180 29 112.087173 27 -110.875077 0
C  11 1.514769 9 123.337207 7 171.656275 0
C  34 1.524875 11 112.264701 9 20.351823 0
H  35 1.089532 34 110.951208 11 -177.618160 0
H  35 1.089593 34 110.993989 11 -60.144175 0
H  35 1.090791 34 112.050905 11 61.110184 0
C  31 1.526605 29 111.137061 27 126.082432 0
H  39 1.091195 31 109.801349 29 -151.821797 0
H  39 1.093788 31 109.578745 29 -35.811145 0
C  39 1.499370 31 111.375966 29 87.968408 0
C  42 1.394464 39 116.939416 31 127.957948 0
H  43 1.082361 42 118.828244 39 3.949484 0
C  43 1.381297 42 122.506973 39 -175.397508 0
C  42 1.396573 39 123.617564 31 -47.914275 0
C  46 1.397307 42 117.778008 39 174.158391 0
H  47 1.080811 46 119.565676 42 -179.147906 0
C  47 1.382091 46 122.754051 42 1.291165 0
C  45 1.425441 43 119.727217 42 -179.980432 0
N  50 1.150924 45 178.431631 43 1.908450 0
C  49 1.425614 47 119.838258 46 179.909742 0
N  52 1.150715 49 179.399144 47 2.309520 0
C  46 1.535250 42 127.686385 39 -9.370469 0
C  54 1.524355 46 106.327113 42 -117.275147 0
C  55 1.378758 54 127.405073 46 64.424401 0
H  56 1.083514 55 120.863562 54 -0.199494 0
C  56 1.387991 55 118.469106 54 179.551113 0
H  58 1.081673 56 119.807373 55 -179.910932 0
C  58 1.390618 56 120.428936 55 0.098452 0
H  60 1.081663 58 119.470511 56 179.886828 0
C  60 1.387531 58 120.932850 56 -0.046579 0
H  62 1.082307 60 120.330407 58 179.973688 0
C  62 1.385906 60 118.713475 58 0.005434 0
C  64 1.461673 62 131.481152 60 179.912937 0
C  65 1.386477 64 131.579713 62 0.496256 0
H  66 1.082334 65 121.004955 64 0.562486 0
C  66 1.387315 65 118.808057 64 -179.456618 0
H  68 1.081693 66 119.597319 65 -179.967336 0
C  68 1.390555 66 120.890364 65 0.084757 0
H  70 1.081869 68 119.754779 66 179.823828 0
C  70 1.387914 68 120.421978 66 -0.233526 0
H  72 1.083367 70 120.535822 68 -179.494656 0
C  72 1.379858 70 118.491472 68 0.282628 0
C  34 1.542384 11 107.543095 9 -98.711895 0
H  75 1.089974 34 111.770040 11 -58.149541 0
H  75 1.091338 34 110.437125 11 -178.247583 0
H  75 1.091381 34 110.325250 11 61.717077 0
$end

 
 --------------------------------------------------------------
 
                    Orbital Energies (a.u.)
 --------------------------------------------------------------
 
 Alpha MOs
 -- Occupied --
-14.681 -14.656 -14.654 -10.521 -10.519 -10.510 -10.507 -10.500
-10.500 -10.498 -10.497 -10.492 -10.492 -10.491 -10.491 -10.488
-10.480 -10.476 -10.476 -10.474 -10.474 -10.473 -10.470 -10.469
-10.467 -10.466 -10.466 -10.466 -10.466 -10.465 -10.464 -10.464
-10.464 -10.463 -10.463 -10.452 -10.451 -10.445 -10.444 -10.444
-10.443 -10.442 -10.441 -10.438 -10.437 -10.431 -10.425  -1.093
 -1.042  -1.030  -1.019  -1.003  -0.988  -0.968  -0.962  -0.959
 -0.938  -0.933  -0.912  -0.898  -0.891  -0.885  -0.858  -0.856
 -0.850  -0.846  -0.835  -0.826  -0.819  -0.808  -0.795  -0.773
 -0.772  -0.747  -0.731  -0.726  -0.714  -0.710  -0.704  -0.692
 -0.681  -0.678  -0.673  -0.672  -0.666  -0.646  -0.619  -0.614
 -0.613  -0.611  -0.596  -0.585  -0.581  -0.574  -0.567  -0.561
 -0.541  -0.540  -0.537  -0.533  -0.530  -0.525  -0.522  -0.521
 -0.516  -0.511  -0.505  -0.504  -0.502  -0.501  -0.499  -0.494
 -0.492  -0.490  -0.487  -0.485  -0.476  -0.469  -0.460  -0.452
 -0.449  -0.444  -0.441  -0.438  -0.437  -0.436  -0.434  -0.430
 -0.429  -0.425  -0.424  -0.421  -0.419  -0.417  -0.416  -0.413
 -0.412  -0.404  -0.400  -0.399  -0.397  -0.395  -0.393  -0.378
 -0.374  -0.366  -0.349  -0.339  -0.321  -0.313  -0.309  -0.303
 -0.298  -0.292  -0.288  -0.282  -0.271  -0.231
 -- Virtual --
 -0.061  -0.038  -0.033  -0.021  -0.007   0.000   0.014   0.018
  0.018   0.033   0.048   0.049   0.050   0.070   0.084   0.111
  0.113   0.119   0.128   0.132   0.135   0.137   0.148   0.151
  0.153   0.157   0.160   0.163   0.167   0.172   0.181   0.185
  0.188   0.193   0.194   0.198   0.199   0.201   0.201   0.206
  0.212   0.214   0.219   0.223   0.224   0.227   0.229   0.232
  0.235   0.238   0.239   0.242   0.244   0.247   0.249   0.255
  0.257   0.257   0.260   0.265   0.266   0.270   0.273   0.280
  0.284   0.288   0.291   0.294   0.299   0.303   0.304   0.308
  0.311   0.320   0.328   0.332   0.333   0.344   0.354   0.360
  0.363   0.365   0.370   0.376   0.381   0.386   0.389   0.393
  0.399   0.413   0.417   0.421   0.431   0.434   0.446   0.456
  0.459   0.466   0.470   0.476   0.481   0.483   0.487   0.493
  0.498   0.500   0.504   0.509   0.518   0.521   0.524   0.527
  0.530   0.532   0.534   0.536   0.540   0.545   0.547   0.549
  0.554   0.556   0.558   0.561   0.564   0.565   0.571   0.575
  0.577   0.578   0.581   0.582   0.586   0.589   0.592   0.599
  0.603   0.603   0.607   0.608   0.609   0.611   0.616   0.619
  0.619   0.621   0.623   0.631   0.635   0.636   0.640   0.643
  0.645   0.647   0.648   0.650   0.652   0.656   0.659   0.661
  0.664   0.667   0.672   0.675   0.682   0.685   0.689   0.692
  0.698   0.702   0.705   0.709   0.714   0.717   0.721   0.723
  0.732   0.735   0.737   0.739   0.742   0.743   0.745   0.751
  0.752   0.759   0.764   0.766   0.780   0.783   0.794   0.795
  0.802   0.807   0.812   0.821   0.823   0.831   0.833   0.836
  0.846   0.853   0.862   0.870   0.878   0.890   0.895   0.902
  0.905   0.913   0.915   0.916   0.929   0.931   0.933   0.934
  0.941   0.945   0.952   0.955   0.957   0.964   0.968   0.970
  0.972   0.976   0.977   0.984   0.987   0.992   0.993   0.997
  1.001   1.001   1.003   1.005   1.005   1.016   1.023   1.027
  1.031   1.033   1.039   1.045   1.046   1.050   1.056   1.057
  1.060   1.063   1.065   1.068   1.072   1.079   1.082   1.085
  1.090   1.092   1.094   1.100   1.107   1.110   1.114   1.118
  1.128   1.129   1.133   1.134   1.137   1.143   1.145   1.152
  1.154   1.164   1.166   1.173   1.179   1.186   1.196   1.203
  1.213   1.224   1.229   1.236   1.241   1.246   1.253   1.257
  1.262   1.267   1.276   1.283   1.286   1.290   1.302   1.303
  1.306   1.310   1.312   1.320   1.321   1.335   1.339   1.341
  1.354   1.361   1.367   1.375   1.376   1.380   1.389   1.393
  1.405   1.413   1.416   1.431   1.442   1.449   1.459   1.480
  1.492   1.497   1.501   1.508   1.509   1.512   1.522   1.523
  1.528   1.531   1.534   1.538   1.542   1.549   1.556   1.557
  1.561   1.565   1.568   1.569   1.577   1.580   1.583   1.594
  1.597   1.600   1.608   1.611   1.626   1.634   1.641   1.647
  1.656   1.668   1.686   1.687   1.695   1.703   1.723   1.725
  1.736   1.744   1.756   1.761   1.771   1.779   1.789   1.800
  1.802   1.806   1.809   1.827   1.831   1.838   1.840   1.846
  1.852   1.857   1.860   1.867   1.877   1.878   1.883   1.888
  1.899   1.903   1.909   1.912   1.923   1.929   1.932   1.934
  1.948   1.956   1.963   1.971   1.981   1.989   1.993   1.997
  2.003   2.005   2.011   2.019   2.020   2.027   2.032   2.035
  2.038   2.043   2.045   2.062   2.064   2.067   2.079   2.084
  2.092   2.097   2.101   2.117   2.129   2.136   2.139   2.145
  2.146   2.157   2.161   2.162   2.164   2.170   2.174   2.185
  2.193   2.196   2.201   2.209   2.209   2.221   2.226   2.233
  2.241   2.244   2.245   2.251   2.259   2.266   2.272   2.278
  2.284   2.287   2.289   2.295   2.306   2.313   2.314   2.318
  2.323   2.331   2.338   2.344   2.349   2.354   2.356   2.362
  2.367   2.368   2.375   2.379   2.385   2.386   2.395   2.397
  2.411   2.422   2.428   2.438   2.458   2.466   2.475   2.483
  2.501   2.510   2.521   2.527   2.539   2.545   2.563   2.573
  2.589   2.592   2.594   2.604   2.620   2.627   2.630   2.649
  2.662   2.675   2.683   2.693   2.702   2.707   2.711   2.718
  2.729   2.730   2.734   2.735   2.738   2.743   2.753   2.756
  2.759   2.767   2.772   2.775   2.781   2.795   2.799   2.802
  2.817   2.822   2.832   2.838   2.840   2.849   2.858   2.866
  2.873   2.882   2.891   2.893   2.900   2.917   2.923   2.933
  2.948   2.973   2.978   2.988   3.002   3.004   3.013   3.031
  3.033   3.044   3.081   3.094   3.160   3.222   3.261   3.329
  3.365   3.370   3.382   3.390   3.410   3.498   3.547   3.560
  3.591   3.678  13.190  13.247  13.263  13.324  13.370  13.404
 13.633  13.661  13.663  13.717  13.726  13.733  13.757  13.772
 13.773  13.799  13.812  13.824  13.895  13.912  13.933  14.021
 14.064  14.080  14.122  14.171  14.178  14.180  14.200  14.213
 14.227  14.246  14.250  14.255  14.266  14.297  14.309  14.401
 14.573  14.582  14.585  14.591  14.606  14.620  19.496  19.565
 19.638
 --------------------------------------------------------------
 
          Ground-State Mulliken Net Atomic Charges

     Atom                 Charge (a.u.)
  ----------------------------------------
      1 C                     0.080320
      2 C                     0.078276
      3 C                    -0.319990
      4 C                     0.080797
      5 C                    -0.259942
      6 C                     0.244539
      7 C                    -0.440928
      8 C                     0.199112
      9 C                     0.084541
     10 C                    -0.299956
     11 C                    -0.229547
     12 C                     0.196905
     13 C                    -0.282102
     14 N                    -0.695961
     15 C                     0.320951
     16 C                    -0.298198
     17 C                    -0.232736
     18 C                    -0.220472
     19 C                    -0.322508
     20 C                     0.159490
     21 C                     0.313800
     22 C                    -0.286971
     23 C                    -0.234655
     24 C                    -0.219351
     25 C                    -0.324955
     26 C                     0.168577
     27 C                    -0.234408
     28 C                     0.078662
     29 C                     0.153355
     30 C                     0.147594
     31 C                     0.129012
     32 C                    -0.328358
     33 C                    -0.213311
     34 C                    -0.229089
     35 C                    -0.324605
     36 C                    -0.213056
     37 C                    -0.227167
     38 C                    -0.266321
     39 C                    -0.277719
     40 C                    -0.525519
     41 C                    -0.533719
     42 C                    -0.006796
     43 N                    -0.154546
     44 C                    -0.009696
     45 N                    -0.154978
     46 C                    -0.665076
     47 C                    -0.594519
     48 H                     0.218680
     49 H                     0.227496
     50 H                     0.228807
     51 H                     0.213445
     52 H                     0.220004
     53 H                     0.229739
     54 H                     0.229773
     55 H                     0.214843
     56 H                     0.247140
     57 H                     0.280734
     58 H                     0.214844
     59 H                     0.212579
     60 H                     0.244294
     61 H                     0.213809
     62 H                     0.212736
     63 H                     0.247260
     64 H                     0.211940
     65 H                     0.215415
     66 H                     0.260160
     67 H                     0.249578
     68 H                     0.219394
     69 H                     0.250687
     70 H                     0.248679
     71 H                     0.258828
     72 H                     0.249086
     73 H                     0.237915
     74 H                     0.219049
     75 H                     0.219850
     76 H                     0.238863
     77 H                     0.227755
     78 H                     0.227846
  ----------------------------------------
  Sum of atomic charges =     0.000000

 -----------------------------------------------------------------
                    Cartesian Multipole Moments
 -----------------------------------------------------------------
    Charge (ESU x 10^10)
                 0.0000
    Dipole Moment (Debye)
         X       2.7270      Y      -6.7549      Z      -0.2992
       Tot       7.2908
    Quadrupole Moments (Debye-Ang)
        XX    -264.9783     XY      20.7600     YY    -260.3409
        XZ       5.6888     YZ      -3.2979     ZZ    -249.0175
    Octopole Moments (Debye-Ang^2)
       XXX    -693.9335    XXY    1466.6410    XYY    -409.1872
       YYY    4823.7589    XXZ    -359.5584    XYZ     -53.6530
       YYZ    -346.0927    XZZ    -246.1455    YZZ    1477.8705
       ZZZ   -1104.1785
    Hexadecapole Moments (Debye-Ang^3)
      XXXX  -13152.0507   XXXY    9035.4777   XXYY  -14342.8926
      XYYY   10414.6326   YYYY  -78221.4905   XXXZ   -2455.0307
      XXYZ    2772.3681   XYYZ    -233.0642   YYYZ    8028.3023
      XXZZ   -3525.1374   XYZZ    2857.7085   YYZZ  -13421.5178
      XZZZ   -2376.4739   YZZZ    8765.1837   ZZZZ   -8669.8252
 -----------------------------------------------------------------
Archival summary:
1\1\ctcp028\OPT\ProcedureUnspecified\BasisUnspecified\34431\mewes\MonJan716:28:472019MonJan716:28:472019\0\\#,OPT,ProcedureUnspecified,BasisUnspecified,\\0,1\N\C,1,1.39803\C,2,1.3953,1,121.5\H,3,1.0804,2,120.657,1,-3.14077,0\C,3,1.38395,2,120.396,1,176.242,0\H,5,1.08229,3,119.21,2,-179.538,0\C,5,1.38306,3,120.328,2,-0.364612,0\H,7,1.08158,5,120.745,3,-178.741,0\C,7,1.38627,5,119.051,3,2.39443,0\H,9,1.08092,7,118.483,5,178.201,0\C,9,1.38767,7,121.881,5,-0.807188,0\C,1,1.39998,2,119.184,3,-154.595,0\C,12,1.39436,1,121.098,2,153.625,0\H,13,1.08072,12,120.597,1,2.47758,0\C,13,1.38348,12,120.239,1,-177.121,0\H,15,1.08213,13,119.173,12,179.865,0\C,15,1.38347,13,120.302,12,0.65686,0\H,17,1.08149,15,120.696,13,178.928,0\C,17,1.38645,15,119.169,13,-1.92144,0\H,19,1.08106,17,118.584,15,-178.723,0\C,19,1.38753,17,121.812,15,0.333936,0\C,1,1.4182,2,118.865,3,2.76788,0\C,22,1.37973,1,119.284,2,107.835,0\H,23,1.08042,22,117.031,1,0.055161,0\C,22,1.38733,1,121.005,2,-73.1792,0\H,25,1.08267,22,120.433,1,0.51419,0\C,25,1.37824,22,118.62,1,179.219,0\H,27,1.08357,25,119.164,22,-177.809,0\C,27,1.39483,25,122.234,22,1.8969,0\C,29,1.39662,27,119.291,25,0.0974188,0\C,29,1.49931,27,117.394,25,-175.697,0\H,31,1.0909,29,108.567,27,5.61429,0\H,31,1.09418,29,112.087,27,-110.875,0\C,11,1.51477,9,123.337,7,171.656,0\C,34,1.52488,11,112.265,9,20.3518,0\H,35,1.08953,34,110.951,11,-177.618,0\H,35,1.08959,34,110.994,11,-60.1442,0\H,35,1.09079,34,112.051,11,61.1102,0\C,31,1.5266,29,111.137,27,126.082,0\H,39,1.09119,31,109.801,29,-151.822,0\H,39,1.09379,31,109.579,29,-35.8111,0\C,39,1.49937,31,111.376,29,87.9684,0\C,42,1.39446,39,116.939,31,127.958,0\H,43,1.08236,42,118.828,39,3.94948,0\C,43,1.3813,42,122.507,39,-175.398,0\C,42,1.39657,39,123.618,31,-47.9143,0\C,46,1.39731,42,117.778,39,174.158,0\H,47,1.08081,46,119.566,42,-179.148,0\C,47,1.38209,46,122.754,42,1.29116,0\C,45,1.42544,43,119.727,42,-179.98,0\N,50,1.15092,45,178.432,43,1.90845,0\C,49,1.42561,47,119.838,46,179.91,0\N,52,1.15072,49,179.399,47,2.30952,0\C,46,1.53525,42,127.686,39,-9.37047,0\C,54,1.52436,46,106.327,42,-117.275,0\C,55,1.37876,54,127.405,46,64.4244,0\H,56,1.08351,55,120.864,54,-0.199494,0\C,56,1.38799,55,118.469,54,179.551,0\H,58,1.08167,56,119.807,55,-179.911,0\C,58,1.39062,56,120.429,55,0.0984515,0\H,60,1.08166,58,119.471,56,179.887,0\C,60,1.38753,58,120.933,56,-0.0465787,0\H,62,1.08231,60,120.33,58,179.974,0\C,62,1.38591,60,118.713,58,0.00543361,0\C,64,1.46167,62,131.481,60,179.913,0\C,65,1.38648,64,131.58,62,0.496256,0\H,66,1.08233,65,121.005,64,0.562486,0\C,66,1.38732,65,118.808,64,-179.457,0\H,68,1.08169,66,119.597,65,-179.967,0\C,68,1.39056,66,120.89,65,0.0847571,0\H,70,1.08187,68,119.755,66,179.824,0\C,70,1.38791,68,120.422,66,-0.233526,0\H,72,1.08337,70,120.536,68,-179.495,0\C,72,1.37986,70,118.491,68,0.282628,0\C,34,1.54238,11,107.543,9,-98.7119,0\H,75,1.08997,34,111.77,11,-58.1495,0\H,75,1.09134,34,110.437,11,-178.248,0\H,75,1.09138,34,110.325,11,61.7171,0\\\@

 Total job time:  10479.54s(wall), 41918.42s(cpu) 
 Mon Jan  7 16:28:47 2019

        *************************************************************
        *                                                           *
        *  Thank you very much for using Q-Chem.  Have a nice day.  *
        *                                                           *
        *************************************************************


0 sent ACK to 0 
now end server 0 ... 
