mFile = /cm/shared/apps/q-chem/intel/QCHEM_5.0.1_Trunk/bin/mpi/machines
Process 0 of 1 is on ctcp003 - thread support 0
initial socket setup ...start
initial socket setup ...done 
now start server 0 ... 
ctcp003.cm.cluster 10.141.0
Q-Chem Developer Version! Running on 10.141.0.*
                  Welcome to Q-Chem
     A Quantum Leap Into The Future Of Chemistry


 Q-Chem 5.0, Q-Chem, Inc., Pleasanton, CA (2017)

 Yihan Shao,  Zhengting Gan,  E. Epifanovsky,  A. T. B. Gilbert,  M. Wormit,  
 J. Kussmann,  A. W. Lange,  A. Behn,  Jia Deng,  Xintian Feng,  D. Ghosh,  
 M. Goldey,  P. R. Horn,  L. D. Jacobson,  I. Kaliman,  T. Kus,  A. Landau,  
 Jie Liu,  E. I. Proynov,  R. M. Richard,  R. P. Steele,  E. J. Sundstrom,  
 H. L. Woodcock III,  P. M. Zimmerman,  D. Zuev,  B. Albrecht,  E. Alguire,  
 S. A. Baeppler,  Z. Benda,  Y. A. Bernard,  E. J. Berquist,  K. B. Bravaya,  
 D. Casanova,  Chun-Min Chang,  Yunqing Chen,  A. Chien,  K. D. Closser,  
 M. P. Coons,  S. Dasgupta,  M. Diedenhofen,  Hainam Do,  R. G. Edgar,  
 Po-Tung Fang,  S. Fatehi,  Qingguo Feng,  Qinghui Ge,  A. Ghysels,  
 J. Gomes,  J. Gonthier,  A. Gunina,  M. W. D. Hanson-Heine,  
 P. H. P. Harbach,  A. W. Hauser,  J. E. Herr,  E. G. Hohenstein,  
 Z. C. Holden,  Kerwin Hui,  T.-C. Jagau,  Hyunjun Ji,  B. Kaduk,  
 K. Khistyaev,  Jaehoon Kim,  P. Klunzinger,  K. Koh,  D. Kosenkov,  
 T. Kowalczyk,  C. M. Krauter,  A. Kunitsa,  Ka Un Lao,  A. Laurent,  
 K. V. Lawler,  Joonho Lee,  D. Lefrancois,  S. Lehtola,  D. S. Levine,  
 Yi-Pei Li,  You-Sheng Lin,  Fenglai Liu,  E. Livshits,  A. Luenser,  
 P. Manohar,  E. Mansoor,  S. F. Manzer,  Shan-Ping Mao,  Yuezhi Mao,  
 N. Mardirossian,  A. V. Marenich,  L. A. Martinez-Martinez,  S. A. Maurer,  
 N. J. Mayhall,  S. C. McKenzie,  J.-M. Mewes,  A. F. Morrison,  K. Nanda,  
 T. S. Nguyen-Beck,  R. Olivares-Amaya,  J. A. Parkhill,  T. M. Perrine,  
 F. Plasser,  S. Prager,  A. Prociuk,  D. R. Rehn,  F. Rob,  M. Schneider,  
 N. Sergueev,  S. M. Sharada,  S. Sharma,  D. W. Small,  T. Stauch,  
 T. Stein,  Yu-Chuan Su,  A. J. W. Thom,  T. Tsuchimochi,  L. Vogt,  
 O. Vydrov,  M. A. Watson,  J. Wenzel,  M. de Wergifosse,  T. A. Wesolowski,  
 A. White,  J. Witte,  A. Yamada,  Jun Yang,  K. Yao,  S. Yeganeh,  
 S. R. Yost,  Zhi-Qiang You,  A. Zech,  Igor Ying Zhang,  Xing Zhang,  
 Yan Zhao,  Ying Zhu,  B. R. Brooks,  G. K. L. Chan,  C. J. Cramer,  
 M. S. Gordon,  W. J. Hehre,  A. Klamt,  M. W. Schmidt,  C. D. Sherrill,  
 D. G. Truhlar,  A. Aspuru-Guzik,  R. Baer,  A. T. Bell,  N. A. Besley,  
 Jeng-Da Chai,  A. Dreuw,  B. D. Dunietz,  T. R. Furlani,  Chao-Ping Hsu,  
 Yousung Jung,  Jing Kong,  D. S. Lambrecht,  WanZhen Liang,  C. Ochsenfeld,  
 V. A. Rassolov,  L. V. Slipchenko,  J. E. Subotnik,  T. Van Voorhis,  
 J. M. Herbert,  A. I. Krylov,  P. M. W. Gill,  M. Head-Gordon

 Contributors to earlier versions of Q-Chem not listed above: 
 R. D. Adamson,  B. Austin,  J. Baker,  G. J. O. Beran,  K. Brandhorst,  
 S. T. Brown,  E. F. C. Byrd,  A. K. Chakraborty,  C.-L. Cheng,  
 Siu Hung Chien,  D. M. Chipman,  D. L. Crittenden,  H. Dachsel,  
 R. A. DiStasio Jr.,  R. J. Doerksen,  A. D. Dutoi,  L. Fusti-Molnar,  
 W. A. Goddard III,  A. Golubeva-Zadorozhnaya,  S. R. Gwaltney,  G. Hawkins,  
 A. Heyden,  S. Hirata,  G. Kedziora,  F. J. Keil,  C. Kelley,  Jihan Kim,  
 R. A. King,  R. Z. Khaliullin,  P. P. Korambath,  W. Kurlancheek,  
 A. M. Lee,  M. S. Lee,  S. V. Levchenko,  Ching Yeh Lin,  D. Liotard,  
 R. C. Lochan,  I. Lotan,  P. E. Maslen,  N. Nair,  D. P. O'Neill,  
 D. Neuhauser,  E. Neuscamman,  C. M. Oana,  R. Olson,  B. Peters,  
 R. Peverati,  P. A. Pieniazek,  Y. M. Rhee,  J. Ritchie,  M. A. Rohrdanz,  
 E. Rosta,  N. J. Russ,  H. F. Schaefer III,  N. E. Schultz,  N. Shenvi,  
 A. C. Simmonett,  A. Sodt,  D. Stuck,  K. S. Thanthiriwatte,  V. Vanovschi,  
 Tao Wang,  A. Warshel,  C. F. Williams,  Q. Wu,  X. Xu,  W. Zhang

 Please cite Q-Chem as follows:
 Y. Shao et al., Mol. Phys. 113, 184-215 (2015)
 DOI: 10.1080/00268976.2014.952696

 Q-Chem 5.0.1 for Intel X86 EM64T Linux

 Parts of Q-Chem use Armadillo 5.200.1 (Boston Tea Smuggler).
 http://arma.sourceforge.net/

 Q-Chem begins on Mon Apr 30 16:59:09 2018  

Host: ctcp003
0

     Scratch files written to /scratch/mewes/95940/qchem87043//
 Parallel job on  1  processors
The previous job contains 0 fragments, simply inherited here

Checking the input file for inconsistencies... 	...done.

--------------------------------------------------------------
User input:
--------------------------------------------------------------
$rem
threads 8
jobtype	sp
method PBEh-3c
basis def2-mSVP
mem_static	1024
mem_total	14000
sym_ignore	true
cis_n_roots             6
cis_singlets            true
cis_triplets		true
rpa                     false
calc_soc 		true
cis_moments             true
cis_relaxed_density	true
$end


$molecule
read s1opt.mol
$end

--------------------------------------------------------------
 Adding empirical dispersion correction 
 ----------------------------------------------------------------
 Doing -D3(BJ) with
 s6 =   1.00000
 s8 =   0.00000
 a1 =   0.48600
 a2 =   4.50000
 -D3 energy including 3body term =     -0.0786436726 hartrees
 ----------------------------------------------------------------
 Adding gCP correction 
 ----------------------------------------------------------------
 gCP energy =      0.1095195205 hartrees
 ----------------------------------------------------------------
             Standard Nuclear Orientation (Angstroms)
    I     Atom           X                Y                Z
 ----------------------------------------------------------------
    1      N       0.0000000000     0.0000000000     0.0000000000
    2      C       0.0000000000     0.0000000000     1.3738420000
    3      C       1.1633572231     0.0000000000    -0.7307854048
    4      C      -1.1767290887     0.3525793702     2.0641012234
    5      H      -2.0671155341     0.6196480320     1.5161915620
    6      C      -1.1796200483     0.3873531427     3.4363216445
    7      H      -2.0798861477     0.6704657286     3.9620911651
    8      C      -0.0208160337     0.0754302211     4.1393957887
    9      H      -0.0157560093     0.1082868727     5.2198304658
   10      C       1.1366278619    -0.2788175561     3.4587177382
   11      H       2.0145307119    -0.5257669053     4.0368773055
   12      C       1.1782302992    -0.3279531376     2.0776536029
   13      C       1.1354102662     0.3004476836    -2.1075752217
   14      H       0.2038722316     0.4825686260    -2.6198413751
   15      C       2.3120145347     0.4076539097    -2.8051838971
   16      H       2.2792760865     0.6746920487    -3.8509185438
   17      C       3.5253284265     0.1920739350    -2.1603863938
   18      H       4.4545445958     0.2883642421    -2.7041033567
   19      C       3.5499700530    -0.1664501536    -0.8176889186
   20      H       4.5057018271    -0.3651830586    -0.3564875557
   21      C       2.3882330204    -0.2823854282    -0.0803340965
   22      C      -1.2696777214     0.0599917706    -0.6726341505
   23      C      -1.6814575326     1.2343533546    -1.2521132288
   24      H      -1.0388289305     2.1018353956    -1.1763340962
   25      C      -2.0585806370    -1.0771505610    -0.7161955503
   26      H      -1.7364130297    -2.0079753928    -0.2673522108
   27      C      -3.2857000155    -0.9656820962    -1.3302374398
   28      H      -3.9420343132    -1.8268141669    -1.3403551557
   29      C      -2.8832053228     1.3299768767    -1.9586367927
   30      C      -3.7289579772     0.2152778247    -1.9403476996
   31      C      -5.1365156421     0.2205481533    -2.4615449492
   32      H      -5.6615620324    -0.6277427210    -2.0166626462
   33      H      -5.1523654060     0.0593901974    -3.5423520184
   34      C       2.3676805458    -0.8561006163     1.3171575240
   35      C       3.6799868791    -0.6185484794     2.0625187477
   36      H       4.5163949388    -1.0744915396     1.5367862698
   37      H       3.6646806411    -1.0889594855     3.0435538814
   38      H       3.8879661645     0.4429425871     2.1926948749
   39      C      -5.8652804281     1.5248418089    -2.1380771657
   40      H      -6.9376622123     1.3316835166    -2.0818420436
   41      H      -5.5714030344     1.8520151223    -1.1322019807
   42      C      -5.6075470575     2.5426342779    -3.2047364065
   43      C      -6.6710819858     3.0159590106    -3.9242834426
   44      H      -7.6727611130     2.7526499797    -3.6036266589
   45      C      -6.5449877745     3.7891333936    -5.0913943727
   46      C      -7.6908803557     4.2399577114    -5.7570685179
   47      N      -8.6602100417     4.5944295539    -6.2903590525
   48      C      -5.2056084971     4.0343521980    -5.5633512908
   49      C      -4.1292590689     3.5747003909    -4.8020035794
   50      H      -3.1452481815     3.8326337690    -5.1676831059
   51      C      -4.2651008900     2.8464054244    -3.6368172277
   52      C      -4.9428549831     4.7182953685    -6.7637338435
   53      N      -4.7019351437     5.2799267038    -7.7489368348
   54      C      -3.0410108466     2.6510562714    -2.7455079298
   55      C      -1.7456667902     2.7832536110    -3.5461246566
   56      C      -1.3054316127     1.9571001808    -4.5621162433
   57      H      -1.9196951794     1.1322185375    -4.9026493102
   58      C      -0.0876017496     2.2363238666    -5.1706633824
   59      H       0.2549707226     1.6216513226    -5.9934755801
   60      C       0.6755837072     3.3225966126    -4.7529217661
   61      H       1.6141456522     3.5389126360    -5.2467147445
   62      C       0.2327264540     4.1477256334    -3.7290505075
   63      H       0.8258558714     4.9991249983    -3.4198907996
   64      C      -0.9877983437     3.8740263001    -3.1277053389
   65      C      -1.7075439618     4.5469023818    -2.0502951181
   66      C      -1.4001693770     5.6916682543    -1.3327240505
   67      H      -0.4931165294     6.2477854481    -1.5343864061
   68      C      -2.2871597863     6.1283369684    -0.3591355590
   69      H      -2.0701474311     7.0270359161     0.2027107066
   70      C      -3.4637351048     5.4290349511    -0.1138721403
   71      H      -4.1553206770     5.7917416427     0.6354251661
   72      C      -3.7714597668     4.2814503326    -0.8323783859
   73      H      -4.7039756419     3.7622284013    -0.6554479664
   74      C      -2.8866873996     3.8421437181    -1.7990587330
   75      C       2.1582071748    -2.3878543870     1.1692463428
   76      H       2.9809558047    -2.8254803805     0.6038484990
   77      H       2.1238764372    -2.8562087270     2.1531170928
   78      H       1.2301578260    -2.6302455481     0.6508594013
 ----------------------------------------------------------------
 Nuclear Repulsion Energy =  5553.7336717546 hartrees
 There are      158 alpha and      158 beta electrons
 Requested basis set is def2-mSVP
 There are 391 shells and 767 basis functions

 Total QAlloc Memory Limit  14000 MB
 Mega-Array Size      1001 MB
 MEM_STATIC part      1024 MB
 A cutoff of  1.0D-11 yielded  35097 shell pairs
 There are    140985 function pairs (    155664 Cartesian)
 
 -------------------------------------------------------
 OpenMP Integral Computing Module                       
 Release: version 1.0, May 2013, Q-Chem Inc. Pittsburgh 
 -------------------------------------------------------
 Integral Job Info:
 Integral job number is                      11
 Integral operator is                         1
 short-range coefficients                     0
 long-range coefficients              100000000
 Omega coefficients                           0
 if combine SR and LR in K                    0
 Integral screening is                        0
 Integral computing path is                   2
 max size of driver memory is            800000
 size of driver memory is                593474
 size of scratch memory is              1809772
 max col of scratch BK array               1296
 max len of scratch array in speh3          155
 max len of scratch index in speh4           18
 max int batch size is                      520
 min int batch size is                       52
 fixed nKL is                                52
 max L of basis functions is                  2
 order of int derivative is                   0
 number of shells is                        391
 number of basis is                         814
 number of cartesian basis is               814
 number of contracted shell pairs         35097
 number of primitive shell pairs          73511
 maxK2 (contraction) of shell pair           25
 max number of K2 of shell pair               1
 max number of CS2 of shell pair           8337
 max number of PS2 of shell pair          13125
 mem total for path MDJ                  384584
 -------------------------------------------------------
 Smallest overlap matrix eigenvalue = 2.82E-04

 Scale SEOQF with 1.000000e-02/1.000000e-02/1.000000e-02

 Standard Electronic Orientation quadrupole field applied
 Nucleus-field energy     =    -0.0000000042 hartrees
 Guess from superposition of atomic densities
 Warning:  Energy on first SCF cycle will be non-variational
 A restricted hybrid HF-DFT SCF calculation will be
 performed using Pulay DIIS extrapolation
 Exchange:     0.4200 Hartree-Fock + 0.5800 PBEh-3c
 Correlation:  1.0000 PBEh-3c
 Using SG-1 standard quadrature grid
 Dispersion:   Grimme D3
 SCF converges when DIIS error is below 1.0E-08
 using 8 threads for integral computing
 -------------------------------------------------------
 OpenMP Integral computing Module                
 Release: version 1.0, May 2013, Q-Chem Inc. Pittsburgh 
 -------------------------------------------------------
 ---------------------------------------
  Cycle       Energy         DIIS Error
 ---------------------------------------
    1   -1871.3590404742      3.05E-02
    2   -1855.1016998226      2.27E-03
    3   -1855.0031418039      2.73E-03
    4   -1855.4607360716      9.07E-04
    5   -1855.5148145963      2.23E-04
    6   -1855.5175299801      9.94E-05
    7   -1855.5181935497      2.46E-05
    8   -1855.5182374247      8.87E-06
    9   -1855.5182432826      2.35E-06
   10   -1855.5182436286      1.12E-06
   11   -1855.5182437216      3.86E-07
   12   -1855.5182437393      1.46E-07
   13   -1855.5182437403      6.08E-08
   14   -1855.5182437444      1.91E-08
   15   -1855.5182437336      7.13E-09 Convergence criterion met
 ---------------------------------------
 SCF time:  CPU 3260.68 s  wall 717.50 s
 SCF   energy in the final basis set = -1855.51824373
 Total energy in the final basis set = -1855.51824373
 
 Direct TDDFT/TDA calculation will be performed
 Exchange:     0.4200 Hartree-Fock + 0.5800 PBEh-3c
 Correlation:  1.0000 PBEh-3c
 Using SG-1 standard quadrature grid
 Dispersion:   Grimme D3
 Triplet excitation energies requested
 Singlet excitation energies requested
 CIS energy converged when residual is below 10e- 6
 ---------------------------------------------------
 Iter    Rts Conv    Rts Left    Ttl Dev     Max Dev
 ---------------------------------------------------
   1         0           6      0.000158    0.000044
   2         0           6      0.000229    0.000065
   3         0           6      0.000198    0.000071
   4         0           6      0.000241    0.000075
   5         0           6      0.000194    0.000060
   6         0           6      0.000110    0.000032
   7         1           5      0.000051    0.000016
   8         1           5      0.000026    0.000011
   9         2           4      0.000017    0.000009
  10         3           3      0.000010    0.000005
  11         4           2      0.000006    0.000003
  12         5           1      0.000004    0.000002
  13         5           1      0.000003    0.000001
  14         6           0      0.000002    0.000001    Roots Converged
 ---------------------------------------------------
 Triplets done: starting singlet calculation
 ---------------------------------------------------
 Iter    Rts Conv    Rts Left    Ttl Dev     Max Dev
 ---------------------------------------------------
  15         0           6      0.000219    0.000072
  16         0           6      0.000335    0.000146
  17         0           6      0.000136    0.000050
  18         0           6      0.000072    0.000028
  19         1           5      0.000040    0.000019
  20         2           4      0.000028    0.000015
  21         3           3      0.000019    0.000012
  22         3           3      0.000010    0.000007
  23         5           1      0.000006    0.000003
  24         5           1      0.000003    0.000001
  25         6           0      0.000003    0.000001    Roots Converged
 ---------------------------------------------------
 
 ---------------------------------------------------
         TDDFT/TDA Excitation Energies              
 ---------------------------------------------------

 Excited state   1: excitation energy (eV) =    3.0003
 Total energy for state  1:                 -1855.40798302 au
    Multiplicity: Triplet
    Trans. Mom.:  0.0000 X   0.0000 Y   0.0000 Z
    Strength   :     0.0000000000
    D(150) --> V(  1) amplitude = -0.4261
    D(151) --> V(  1) amplitude =  0.7214
    D(153) --> V(  1) amplitude = -0.2214

 Excited state   2: excitation energy (eV) =    3.1190
 Total energy for state  2:                 -1855.40362144 au
    Multiplicity: Triplet
    Trans. Mom.:  0.0000 X   0.0000 Y   0.0000 Z
    Strength   :     0.0000000000
    D(158) --> V(  1) amplitude =  0.9887

 Excited state   3: excitation energy (eV) =    3.1196
 Total energy for state  3:                 -1855.40360127 au
    Multiplicity: Singlet
    Trans. Mom.: -0.1181 X   0.0838 Y  -0.1040 Z
    Strength   :     0.0024284794
    D(158) --> V(  1) amplitude =  0.9975

 Excited state   4: excitation energy (eV) =    3.3669
 Total energy for state  4:                 -1855.39451239 au
    Multiplicity: Triplet
    Trans. Mom.:  0.0000 X   0.0000 Y   0.0000 Z
    Strength   :     0.0000000000
    D(157) --> V(  2) amplitude = -0.6219
    D(157) --> V(  3) amplitude =  0.5412

 Excited state   5: excitation energy (eV) =    3.4505
 Total energy for state  5:                 -1855.39144184 au
    Multiplicity: Triplet
    Trans. Mom.:  0.0000 X   0.0000 Y   0.0000 Z
    Strength   :     0.0000000000
    D(158) --> V(  7) amplitude = -0.6608
    D(158) --> V(  8) amplitude = -0.5439

 Excited state   6: excitation energy (eV) =    3.7698
 Total energy for state  6:                 -1855.37970648 au
    Multiplicity: Triplet
    Trans. Mom.:  0.0000 X   0.0000 Y   0.0000 Z
    Strength   :     0.0000000000
    D(152) --> V(  6) amplitude = -0.2934
    D(158) --> V(  4) amplitude =  0.3316
    D(158) --> V(  5) amplitude =  0.2177
    D(158) --> V(  6) amplitude = -0.3692
    D(158) --> V(  8) amplitude = -0.3102

 Excited state   7: excitation energy (eV) =    3.8611
 Total energy for state  7:                 -1855.37634914 au
    Multiplicity: Triplet
    Trans. Mom.:  0.0000 X   0.0000 Y   0.0000 Z
    Strength   :     0.0000000000
    D(148) --> V(  1) amplitude =  0.3551
    D(149) --> V(  1) amplitude = -0.4921
    D(157) --> V(  1) amplitude =  0.5799

 Excited state   8: excitation energy (eV) =    3.9412
 Total energy for state  8:                 -1855.37340667 au
    Multiplicity: Singlet
    Trans. Mom.:  0.0059 X  -0.0454 Y   0.0537 Z
    Strength   :     0.0004804089
    D(158) --> V(  2) amplitude =  0.9474
    D(158) --> V(  3) amplitude = -0.2780

 Excited state   9: excitation energy (eV) =    4.0184
 Total energy for state  9:                 -1855.37056899 au
    Multiplicity: Singlet
    Trans. Mom.: -0.4041 X  -0.0449 Y  -0.2064 Z
    Strength   :     0.0204667833
    D(157) --> V(  1) amplitude =  0.9870

 Excited state  10: excitation energy (eV) =    4.1023
 Total energy for state 10:                 -1855.36748857 au
    Multiplicity: Singlet
    Trans. Mom.:  0.0899 X   0.0990 Y  -0.0011 Z
    Strength   :     0.0017967559
    D(158) --> V(  4) amplitude =  0.7603
    D(158) --> V(  5) amplitude =  0.5938

 Excited state  11: excitation energy (eV) =    4.1303
 Total energy for state 11:                 -1855.36645913 au
    Multiplicity: Singlet
    Trans. Mom.:  0.3013 X  -0.1226 Y   0.3395 Z
    Strength   :     0.0223673636
    D(158) --> V(  3) amplitude =  0.6284
    D(158) --> V(  4) amplitude =  0.2175
    D(158) --> V(  6) amplitude = -0.6889

 Excited state  12: excitation energy (eV) =    4.4611
 Total energy for state 12:                 -1855.35429951 au
    Multiplicity: Singlet
    Trans. Mom.:  0.0808 X  -0.0025 Y  -0.2819 Z
    Strength   :     0.0093973102
    D(158) --> V(  2) amplitude =  0.2369
    D(158) --> V(  3) amplitude =  0.6529
    D(158) --> V(  6) amplitude =  0.6336
    D(158) --> V(  7) amplitude = -0.2272
 
 ---------------------------------------------------
 Calculating Relaxed Density
 ---------------------------------------------------
 Iter    Rts Conv    Rts Left    Ttl Dev     Max Dev
 ---------------------------------------------------
   1         0           6      0.000649    0.000323
   2         0           6      0.000221    0.000095
   3         0           6      0.000061    0.000025
   4         0           6      0.000020    0.000008
   5         5           1      0.000003    0.000003
   6         6           0      0.000000    0.000000    Roots Converged
 ---------------------------------------------------
 Triplets done- using as guess for singlets
 ---------------------------------------------------
 Iter    Rts Conv    Rts Left    Ttl Dev     Max Dev
 ---------------------------------------------------
   1         0           6      0.001492    0.000329
   2         0           6      0.000478    0.000105
   3         0           6      0.000123    0.000026
   4         0           6      0.000046    0.000009
   5         0           6      0.000016    0.000003
   6         6           0      0.000000    0.000000    Roots Converged
 ---------------------------------------------------
  SETman timing summary (seconds)
  CPU time             26337.97s
  System time              0.05s
  Wall time             3882.82s



*********SPIN-ORBIT COUPLING JOB BEGINS HERE*********


=======================================================================================
    SPIN-ORBIT COUPLING BETWEEN THE SINGLET GROUND STATE AND EXCITED TRIPLET STATE
=======================================================================================

SOC between the singlet ground state and excited triplet states (ms=0):
T1(ms=0)      0.000000  +  0.034685i    cm-1
T2(ms=0)      0.000000  +  0.051540i    cm-1
T3(ms=0)      0.000000  +  -0.496382i    cm-1
T4(ms=0)      0.000000  +  -0.153111i    cm-1
T5(ms=0)      0.000000  +  0.361221i    cm-1
T6(ms=0)      0.000000  +  1.133173i    cm-1
SOC between the singlet ground state and excited triplet states (ms=1):
T1(ms=1)      -0.314894  + (-0.394538i)    cm-1
T2(ms=1)      0.657110  + (0.316490i)    cm-1
T3(ms=1)      0.364892  + (-0.668550i)    cm-1
T4(ms=1)      0.607207  + (0.405985i)    cm-1
T5(ms=1)      0.878390  + (-0.034543i)    cm-1
T6(ms=1)      -0.179399  + (-0.013243i)    cm-1
SOC between the singlet ground state and excited triplet states (ms=-1):
T1(ms=-1)     -0.314894  - (-0.394538i)    cm-1
T2(ms=-1)     0.657110  - (0.316490i)    cm-1
T3(ms=-1)     0.364892  - (-0.668550i)    cm-1
T4(ms=-1)     0.607207  - (0.405985i)    cm-1
T5(ms=-1)     0.878390  - (-0.034543i)    cm-1
T6(ms=-1)     -0.179399  - (-0.013243i)    cm-1
Total SOC between the singlet ground state and excited triplet states:
T1      0.714731    cm-1
T2      1.032752    cm-1
T3      1.186005    cm-1
T4      1.044266    cm-1
T5      1.294606    cm-1
T6      1.161378    cm-1




=======================================================================================
                     SPIN-ORBIT COUPLING BETWEEN EXCITED TRIPLET STATES
=======================================================================================

SOC between the T1 (ms=0) state and excited triplet states (ms=1):
T2(ms=1)      -0.041394  + (-0.035256i)    cm-1
T3(ms=1)      0.058284  + (0.181298i)    cm-1
T4(ms=1)      -0.011659  + (-0.015172i)    cm-1
T5(ms=1)      0.014669  + (-0.077305i)    cm-1
T6(ms=1)      0.211144  + (-0.159200i)    cm-1
SOC between the T1 (ms=0) state and excited triplet states (ms=-1):
T2(ms=-1)     0.041394  + (-0.035256i)    cm-1
T3(ms=-1)     -0.058284  + (0.181298i)    cm-1
T4(ms=-1)     0.011659  + (-0.015172i)    cm-1
T5(ms=-1)     -0.014669  + (-0.077305i)    cm-1
T6(ms=-1)     -0.211144  + (-0.159200i)    cm-1
SOC between the T1 (ms=1) state and excited triplet states (ms=0):
T2(ms=0)      0.041394  + (-0.035256i)    cm-1
T3(ms=0)      -0.058284  + (0.181298i)    cm-1
T4(ms=0)      0.011659  + (-0.015172i)    cm-1
T5(ms=0)      -0.014669  + (-0.077305i)    cm-1
T6(ms=0)      -0.211144  + (-0.159200i)    cm-1
SOC between the T1 (ms=1) state and excited triplet states (ms=1):
T2(ms=1)      0.000000  + (-0.147582i)    cm-1
T3(ms=1)      0.000000  + (-0.352970i)    cm-1
T4(ms=1)      0.000000  + (0.009425i)    cm-1
T5(ms=1)      0.000000  + (-0.113230i)    cm-1
T6(ms=1)      0.000000  + (-0.184200i)    cm-1
SOC between the T1 (ms=-1) state and excited triplet states (ms=0):
T2(ms=0)      -0.041394  + (-0.035256i)    cm-1
T3(ms=0)      0.058284  + (0.181298i)    cm-1
T4(ms=0)      -0.011659  + (-0.015172i)    cm-1
T5(ms=0)      0.014669  + (-0.077305i)    cm-1
T6(ms=0)      0.211144  + (-0.159200i)    cm-1
SOC between the T1 (ms=-1) state and excited triplet states (ms=-1):
T2(ms=-1)     0.000000  + (0.147582i)    cm-1
T3(ms=-1)     0.000000  + (0.352970i)    cm-1
T4(ms=-1)     0.000000  + (-0.009425i)    cm-1
T5(ms=-1)     0.000000  + (0.113230i)    cm-1
T6(ms=-1)     0.000000  + (0.184200i)    cm-1
Total SOC between the T1 state and excited triplet states:
T2      0.235343    cm-1
T3      0.627885    cm-1
T4      0.040524    cm-1
T5      0.224515    cm-1
T6      0.589547    cm-1



SOC between the T2 (ms=0) state and excited triplet states (ms=1):
T3(ms=1)      0.011454  + (-0.037515i)    cm-1
T4(ms=1)      -0.100765  + (-0.138842i)    cm-1
T5(ms=1)      0.281491  + (-0.251831i)    cm-1
T6(ms=1)      0.232812  + (0.225928i)    cm-1
SOC between the T2 (ms=0) state and excited triplet states (ms=-1):
T3(ms=-1)     -0.011454  + (-0.037515i)    cm-1
T4(ms=-1)     0.100765  + (-0.138842i)    cm-1
T5(ms=-1)     -0.281491  + (-0.251831i)    cm-1
T6(ms=-1)     -0.232812  + (0.225928i)    cm-1
SOC between the T2 (ms=1) state and excited triplet states (ms=0):
T3(ms=0)      -0.011454  + (-0.037515i)    cm-1
T4(ms=0)      0.100765  + (-0.138842i)    cm-1
T5(ms=0)      -0.281491  + (-0.251831i)    cm-1
T6(ms=0)      -0.232812  + (0.225928i)    cm-1
SOC between the T2 (ms=1) state and excited triplet states (ms=1):
T3(ms=1)      0.000000  + (-0.028560i)    cm-1
T4(ms=1)      0.000000  + (0.029493i)    cm-1
T5(ms=1)      0.000000  + (-0.371952i)    cm-1
T6(ms=1)      0.000000  + (-0.178256i)    cm-1
SOC between the T2 (ms=-1) state and excited triplet states (ms=0):
T3(ms=0)      0.011454  + (-0.037515i)    cm-1
T4(ms=0)      -0.100765  + (-0.138842i)    cm-1
T5(ms=0)      0.281491  + (-0.251831i)    cm-1
T6(ms=0)      0.232812  + (0.225928i)    cm-1
SOC between the T2 (ms=-1) state and excited triplet states (ms=-1):
T3(ms=-1)     0.000000  + (0.028560i)    cm-1
T4(ms=-1)     0.000000  + (-0.029493i)    cm-1
T5(ms=-1)     0.000000  + (0.371952i)    cm-1
T6(ms=-1)     0.000000  + (0.178256i)    cm-1
Total SOC between the T2 state and excited triplet states:
T3      0.088235    cm-1
T4      0.345633    cm-1
T5      0.920501    cm-1
T6      0.696082    cm-1



SOC between the T3 (ms=0) state and excited triplet states (ms=1):
T4(ms=1)      0.003080  + (0.014210i)    cm-1
T5(ms=1)      -0.221171  + (-0.354000i)    cm-1
T6(ms=1)      -0.185844  + (-0.502970i)    cm-1
SOC between the T3 (ms=0) state and excited triplet states (ms=-1):
T4(ms=-1)     -0.003080  + (0.014210i)    cm-1
T5(ms=-1)     0.221171  + (-0.354000i)    cm-1
T6(ms=-1)     0.185844  + (-0.502970i)    cm-1
SOC between the T3 (ms=1) state and excited triplet states (ms=0):
T4(ms=0)      -0.003080  + (0.014210i)    cm-1
T5(ms=0)      0.221171  + (-0.354000i)    cm-1
T6(ms=0)      0.185844  + (-0.502970i)    cm-1
SOC between the T3 (ms=1) state and excited triplet states (ms=1):
T4(ms=1)      0.000000  + (0.001819i)    cm-1
T5(ms=1)      0.000000  + (0.068042i)    cm-1
T6(ms=1)      0.000000  + (0.615496i)    cm-1
SOC between the T3 (ms=-1) state and excited triplet states (ms=0):
T4(ms=0)      0.003080  + (0.014210i)    cm-1
T5(ms=0)      -0.221171  + (-0.354000i)    cm-1
T6(ms=0)      -0.185844  + (-0.502970i)    cm-1
SOC between the T3 (ms=-1) state and excited triplet states (ms=-1):
T4(ms=-1)     0.000000  + (-0.001819i)    cm-1
T5(ms=-1)     0.000000  + (-0.068042i)    cm-1
T6(ms=-1)     0.000000  + (-0.615496i)    cm-1
Total SOC between the T3 state and excited triplet states:
T4      0.029193    cm-1
T5      0.840351    cm-1
T6      1.381209    cm-1



SOC between the T4 (ms=0) state and excited triplet states (ms=1):
T5(ms=1)      -0.073366  + (-0.228069i)    cm-1
T6(ms=1)      0.153147  + (-0.003736i)    cm-1
SOC between the T4 (ms=0) state and excited triplet states (ms=-1):
T5(ms=-1)     0.073366  + (-0.228069i)    cm-1
T6(ms=-1)     -0.153147  + (-0.003736i)    cm-1
SOC between the T4 (ms=1) state and excited triplet states (ms=0):
T5(ms=0)      0.073366  + (-0.228069i)    cm-1
T6(ms=0)      -0.153147  + (-0.003736i)    cm-1
SOC between the T4 (ms=1) state and excited triplet states (ms=1):
T5(ms=1)      0.000000  + (0.430368i)    cm-1
T6(ms=1)      0.000000  + (0.111464i)    cm-1
SOC between the T4 (ms=-1) state and excited triplet states (ms=0):
T5(ms=0)      -0.073366  + (-0.228069i)    cm-1
T6(ms=0)      0.153147  + (-0.003736i)    cm-1
SOC between the T4 (ms=-1) state and excited triplet states (ms=-1):
T5(ms=-1)     0.000000  + (-0.430368i)    cm-1
T6(ms=-1)     0.000000  + (-0.111464i)    cm-1
Total SOC between the T4 state and excited triplet states:
T5      0.774613    cm-1
T6      0.344557    cm-1



SOC between the T5 (ms=0) state and excited triplet states (ms=1):
T6(ms=1)      0.244464  + (0.031986i)    cm-1
SOC between the T5 (ms=0) state and excited triplet states (ms=-1):
T6(ms=-1)     -0.244464  + (0.031986i)    cm-1
SOC between the T5 (ms=1) state and excited triplet states (ms=0):
T6(ms=0)      -0.244464  + (0.031986i)    cm-1
SOC between the T5 (ms=1) state and excited triplet states (ms=1):
T6(ms=1)      0.000000  + (0.101899i)    cm-1
SOC between the T5 (ms=-1) state and excited triplet states (ms=0):
T6(ms=0)      0.244464  + (0.031986i)    cm-1
SOC between the T5 (ms=-1) state and excited triplet states (ms=-1):
T6(ms=-1)     0.000000  + (-0.101899i)    cm-1
Total SOC between the T5 state and excited triplet states:
T6      0.513721    cm-1







=======================================================================================
         SPIN-ORBIT COUPLING BETWEEN EXCITED SINGLET STATES AND TRIPLET STATES
=======================================================================================

SOC between the S1 state and excited triplet states (ms=0):
T1(ms=0)      0.000000  +  0.144074i    cm-1
T2(ms=0)      0.000000  +  -0.016846i    cm-1
T3(ms=0)      0.000000  +  -0.090366i    cm-1
T4(ms=0)      0.000000  +  -0.017124i    cm-1
T5(ms=0)      0.000000  +  0.293324i    cm-1
T6(ms=0)      0.000000  +  -0.274974i    cm-1
SOC between the S1 state and excited triplet states (ms=1):
T1(ms=1)      (-0.038024)  + (-0.030152i)    cm-1
T2(ms=1)      (-0.007520)  + (-0.006794i)    cm-1
T3(ms=1)      (-0.029473)  + (-0.002541i)    cm-1
T4(ms=1)      (-0.101383)  + (-0.129287i)    cm-1
T5(ms=1)      (0.181271)  + (-0.245051i)    cm-1
T6(ms=1)      (-0.063101)  + (0.247217i)    cm-1
SOC between the S1 state and excited triplet states (ms=-1):
T1(ms=-1)    -(-0.038024)  + (-0.030152i)    cm-1
T2(ms=-1)    -(-0.007520)  + (-0.006794i)    cm-1
T3(ms=-1)    -(-0.029473)  + (-0.002541i)    cm-1
T4(ms=-1)    -(-0.101383)  + (-0.129287i)    cm-1
T5(ms=-1)    -(0.181271)  + (-0.245051i)    cm-1
T6(ms=-1)    -(-0.063101)  + (0.247217i)    cm-1
Total SOC between the S1 state and excited triplet states:
T1      0.159585    cm-1
T2      0.022118    cm-1
T3      0.099581    cm-1
T4      0.232982    cm-1
T5      0.521400    cm-1
T6      0.453659    cm-1



SOC between the S2 state and excited triplet states (ms=0):
T1(ms=0)      0.000000  +  0.091207i    cm-1
T2(ms=0)      0.000000  +  0.574259i    cm-1
T3(ms=0)      0.000000  +  0.226152i    cm-1
T4(ms=0)      0.000000  +  0.095958i    cm-1
T5(ms=0)      0.000000  +  0.020170i    cm-1
T6(ms=0)      0.000000  +  0.017182i    cm-1
SOC between the S2 state and excited triplet states (ms=1):
T1(ms=1)      (0.042667)  + (0.013158i)    cm-1
T2(ms=1)      (0.186683)  + (0.136889i)    cm-1
T3(ms=1)      (0.071640)  + (-0.032777i)    cm-1
T4(ms=1)      (-0.089160)  + (0.268151i)    cm-1
T5(ms=1)      (-0.094891)  + (-0.114934i)    cm-1
T6(ms=1)      (0.041079)  + (0.001027i)    cm-1
SOC between the S2 state and excited triplet states (ms=-1):
T1(ms=-1)    -(0.042667)  + (0.013158i)    cm-1
T2(ms=-1)    -(0.186683)  + (0.136889i)    cm-1
T3(ms=-1)    -(0.071640)  + (-0.032777i)    cm-1
T4(ms=-1)    -(-0.089160)  + (0.268151i)    cm-1
T5(ms=-1)    -(-0.094891)  + (-0.114934i)    cm-1
T6(ms=-1)    -(0.041079)  + (0.001027i)    cm-1
Total SOC between the S2 state and excited triplet states:
T1      0.110933    cm-1
T2      0.661023    cm-1
T3      0.252107    cm-1
T4      0.410995    cm-1
T5      0.211743    cm-1
T6      0.060599    cm-1



SOC between the S3 state and excited triplet states (ms=0):
T1(ms=0)      0.000000  +  0.436321i    cm-1
T2(ms=0)      0.000000  +  0.219144i    cm-1
T3(ms=0)      0.000000  +  1.033890i    cm-1
T4(ms=0)      0.000000  +  0.006477i    cm-1
T5(ms=0)      0.000000  +  0.044115i    cm-1
T6(ms=0)      0.000000  +  0.129173i    cm-1
SOC between the S3 state and excited triplet states (ms=1):
T1(ms=1)      (-0.025197)  + (-0.081187i)    cm-1
T2(ms=1)      (0.176014)  + (0.017467i)    cm-1
T3(ms=1)      (0.246123)  + (0.761297i)    cm-1
T4(ms=1)      (-0.000551)  + (0.028856i)    cm-1
T5(ms=1)      (-0.179820)  + (-0.393679i)    cm-1
T6(ms=1)      (-0.109920)  + (0.214337i)    cm-1
SOC between the S3 state and excited triplet states (ms=-1):
T1(ms=-1)    -(-0.025197)  + (-0.081187i)    cm-1
T2(ms=-1)    -(0.176014)  + (0.017467i)    cm-1
T3(ms=-1)    -(0.246123)  + (0.761297i)    cm-1
T4(ms=-1)    -(-0.000551)  + (0.028856i)    cm-1
T5(ms=-1)    -(-0.179820)  + (-0.393679i)    cm-1
T6(ms=-1)    -(-0.109920)  + (0.214337i)    cm-1
Total SOC between the S3 state and excited triplet states:
T1      0.452580    cm-1
T2      0.332560    cm-1
T3      1.532719    cm-1
T4      0.041327    cm-1
T5      0.613664    cm-1
T6      0.364323    cm-1



SOC between the S4 state and excited triplet states (ms=0):
T1(ms=0)      0.000000  +  -0.059924i    cm-1
T2(ms=0)      0.000000  +  -0.418998i    cm-1
T3(ms=0)      0.000000  +  0.031535i    cm-1
T4(ms=0)      0.000000  +  0.075469i    cm-1
T5(ms=0)      0.000000  +  -0.192965i    cm-1
T6(ms=0)      0.000000  +  -0.225854i    cm-1
SOC between the S4 state and excited triplet states (ms=1):
T1(ms=1)      (0.028709)  + (0.151695i)    cm-1
T2(ms=1)      (0.263577)  + (1.236066i)    cm-1
T3(ms=1)      (-0.012776)  + (-0.026476i)    cm-1
T4(ms=1)      (-0.027665)  + (0.120952i)    cm-1
T5(ms=1)      (0.482077)  + (-0.621385i)    cm-1
T6(ms=1)      (-0.033432)  + (-0.025785i)    cm-1
SOC between the S4 state and excited triplet states (ms=-1):
T1(ms=-1)    -(0.028709)  + (0.151695i)    cm-1
T2(ms=-1)    -(0.263577)  + (1.236066i)    cm-1
T3(ms=-1)    -(-0.012776)  + (-0.026476i)    cm-1
T4(ms=-1)    -(-0.027665)  + (0.120952i)    cm-1
T5(ms=-1)    -(0.482077)  + (-0.621385i)    cm-1
T6(ms=-1)    -(-0.033432)  + (-0.025785i)    cm-1
Total SOC between the S4 state and excited triplet states:
T1      0.226412    cm-1
T2      1.835817    cm-1
T3      0.052181    cm-1
T4      0.191011    cm-1
T5      1.128836    cm-1
T6      0.233614    cm-1



SOC between the S5 state and excited triplet states (ms=0):
T1(ms=0)      0.000000  +  -0.107199i    cm-1
T2(ms=0)      0.000000  +  -0.943143i    cm-1
T3(ms=0)      0.000000  +  -0.073029i    cm-1
T4(ms=0)      0.000000  +  0.926476i    cm-1
T5(ms=0)      0.000000  +  0.212844i    cm-1
T6(ms=0)      0.000000  +  0.055552i    cm-1
SOC between the S5 state and excited triplet states (ms=1):
T1(ms=1)      (-0.076116)  + (-0.064814i)    cm-1
T2(ms=1)      (-0.758730)  + (-0.568217i)    cm-1
T3(ms=1)      (-0.044625)  + (0.016045i)    cm-1
T4(ms=1)      (-0.127790)  + (0.534192i)    cm-1
T5(ms=1)      (-0.223964)  + (0.504239i)    cm-1
T6(ms=1)      (0.179605)  + (-0.339926i)    cm-1
SOC between the S5 state and excited triplet states (ms=-1):
T1(ms=-1)    -(-0.076116)  + (-0.064814i)    cm-1
T2(ms=-1)    -(-0.758730)  + (-0.568217i)    cm-1
T3(ms=-1)    -(-0.044625)  + (0.016045i)    cm-1
T4(ms=-1)    -(-0.127790)  + (0.534192i)    cm-1
T5(ms=-1)    -(-0.223964)  + (0.504239i)    cm-1
T6(ms=-1)    -(0.179605)  + (-0.339926i)    cm-1
Total SOC between the S5 state and excited triplet states:
T1      0.177428    cm-1
T2      1.639086    cm-1
T3      0.099151    cm-1
T4      1.209024    cm-1
T5      0.808787    cm-1
T6      0.546535    cm-1



SOC between the S6 state and excited triplet states (ms=0):
T1(ms=0)      0.000000  +  -0.158720i    cm-1
T2(ms=0)      0.000000  +  -1.138053i    cm-1
T3(ms=0)      0.000000  +  -0.085229i    cm-1
T4(ms=0)      0.000000  +  -0.412395i    cm-1
T5(ms=0)      0.000000  +  0.054788i    cm-1
T6(ms=0)      0.000000  +  -0.175374i    cm-1
SOC between the S6 state and excited triplet states (ms=1):
T1(ms=1)      (0.084197)  + (-0.061904i)    cm-1
T2(ms=1)      (0.425423)  + (-0.436753i)    cm-1
T3(ms=1)      (-0.033351)  + (0.008373i)    cm-1
T4(ms=1)      (-0.074742)  + (-0.536391i)    cm-1
T5(ms=1)      (-0.559395)  + (-0.637422i)    cm-1
T6(ms=1)      (0.087155)  + (0.446310i)    cm-1
SOC between the S6 state and excited triplet states (ms=-1):
T1(ms=-1)    -(0.084197)  + (-0.061904i)    cm-1
T2(ms=-1)    -(0.425423)  + (-0.436753i)    cm-1
T3(ms=-1)    -(-0.033351)  + (0.008373i)    cm-1
T4(ms=-1)    -(-0.074742)  + (-0.536391i)    cm-1
T5(ms=-1)    -(-0.559395)  + (-0.637422i)    cm-1
T6(ms=-1)    -(0.087155)  + (0.446310i)    cm-1
Total SOC between the S6 state and excited triplet states:
T1      0.216875    cm-1
T2      1.427809    cm-1
T3      0.098126    cm-1
T4      0.869870    cm-1
T5      1.200608    cm-1
T6      0.666583    cm-1






            *********SOC CODE ENDS HERE*********



 
 --------------------------------------------------------------
 
                    Orbital Energies (a.u.)
 --------------------------------------------------------------
 
 Alpha MOs
 -- Occupied --
-14.680 -14.663 -14.660 -10.530 -10.528 -10.514 -10.511 -10.505
-10.505 -10.502 -10.499 -10.496 -10.493 -10.491 -10.491 -10.488
-10.481 -10.479 -10.477 -10.477 -10.475 -10.474 -10.470 -10.469
-10.468 -10.468 -10.468 -10.467 -10.467 -10.466 -10.465 -10.465
-10.465 -10.464 -10.463 -10.450 -10.449 -10.442 -10.442 -10.441
-10.440 -10.440 -10.436 -10.435 -10.433 -10.429 -10.426  -1.097
 -1.041  -1.030  -1.020  -1.002  -0.988  -0.969  -0.959  -0.955
 -0.938  -0.935  -0.909  -0.902  -0.892  -0.885  -0.860  -0.857
 -0.848  -0.847  -0.835  -0.826  -0.818  -0.808  -0.795  -0.777
 -0.771  -0.747  -0.732  -0.728  -0.714  -0.713  -0.706  -0.690
 -0.683  -0.679  -0.673  -0.668  -0.666  -0.646  -0.617  -0.615
 -0.614  -0.611  -0.600  -0.588  -0.582  -0.572  -0.566  -0.562
 -0.541  -0.539  -0.536  -0.533  -0.531  -0.527  -0.524  -0.521
 -0.518  -0.512  -0.509  -0.504  -0.503  -0.500  -0.497  -0.492
 -0.490  -0.488  -0.485  -0.485  -0.473  -0.468  -0.461  -0.452
 -0.449  -0.445  -0.442  -0.441  -0.439  -0.438  -0.436  -0.434
 -0.429  -0.428  -0.427  -0.421  -0.421  -0.418  -0.415  -0.412
 -0.410  -0.403  -0.400  -0.399  -0.398  -0.396  -0.393  -0.375
 -0.374  -0.366  -0.350  -0.336  -0.326  -0.313  -0.306  -0.303
 -0.300  -0.289  -0.285  -0.282  -0.271  -0.219
 -- Virtual --
 -0.079  -0.041  -0.029  -0.016  -0.012  -0.005   0.013   0.016
  0.019   0.034   0.044   0.048   0.057   0.057   0.075   0.108
  0.113   0.119   0.128   0.130   0.132   0.138   0.148   0.149
  0.153   0.156   0.161   0.163   0.167   0.177   0.177   0.181
  0.186   0.190   0.192   0.197   0.198   0.201   0.203   0.207
  0.210   0.213   0.216   0.222   0.223   0.227   0.228   0.231
  0.236   0.236   0.241   0.242   0.245   0.250   0.252   0.253
  0.256   0.260   0.265   0.266   0.269   0.272   0.276   0.279
  0.287   0.291   0.293   0.296   0.298   0.303   0.305   0.307
  0.314   0.318   0.328   0.331   0.337   0.339   0.347   0.358
  0.359   0.369   0.373   0.377   0.381   0.384   0.393   0.399
  0.400   0.410   0.415   0.423   0.426   0.440   0.446   0.453
  0.457   0.464   0.468   0.474   0.477   0.479   0.485   0.490
  0.500   0.502   0.504   0.511   0.514   0.518   0.519   0.521
  0.522   0.527   0.531   0.533   0.538   0.539   0.546   0.547
  0.553   0.554   0.559   0.564   0.565   0.568   0.569   0.573
  0.573   0.579   0.582   0.582   0.584   0.590   0.595   0.595
  0.597   0.600   0.604   0.607   0.613   0.615   0.618   0.619
  0.622   0.624   0.625   0.630   0.632   0.634   0.634   0.642
  0.644   0.646   0.649   0.654   0.657   0.664   0.666   0.668
  0.671   0.675   0.678   0.681   0.687   0.690   0.693   0.697
  0.701   0.703   0.707   0.711   0.714   0.716   0.718   0.723
  0.726   0.732   0.736   0.742   0.746   0.747   0.753   0.756
  0.760   0.763   0.765   0.774   0.778   0.783   0.789   0.797
  0.804   0.810   0.813   0.820   0.826   0.830   0.833   0.842
  0.844   0.850   0.860   0.871   0.875   0.882   0.888   0.900
  0.907   0.908   0.919   0.921   0.926   0.934   0.940   0.941
  0.944   0.948   0.950   0.953   0.960   0.964   0.967   0.967
  0.969   0.973   0.979   0.981   0.987   0.992   0.994   1.000
  1.003   1.007   1.010   1.011   1.012   1.013   1.023   1.025
  1.030   1.035   1.041   1.043   1.047   1.051   1.053   1.056
  1.061   1.066   1.068   1.071   1.075   1.080   1.083   1.092
  1.093   1.098   1.103   1.105   1.109   1.115   1.122   1.124
  1.126   1.130   1.137   1.138   1.144   1.147   1.149   1.154
  1.160   1.167   1.176   1.178   1.187   1.189   1.199   1.206
  1.212   1.214   1.221   1.223   1.232   1.235   1.255   1.270
  1.274   1.275   1.281   1.285   1.296   1.302   1.306   1.310
  1.313   1.319   1.321   1.330   1.335   1.338   1.343   1.349
  1.354   1.362   1.364   1.373   1.378   1.386   1.392   1.399
  1.410   1.416   1.420   1.427   1.432   1.451   1.468   1.474
  1.479   1.493   1.499   1.502   1.505   1.515   1.517   1.525
  1.530   1.535   1.538   1.541   1.546   1.552   1.553   1.554
  1.560   1.564   1.571   1.572   1.576   1.583   1.591   1.594
  1.600   1.602   1.605   1.616   1.618   1.627   1.633   1.643
  1.651   1.666   1.669   1.676   1.695   1.703   1.710   1.733
  1.736   1.737   1.753   1.763   1.775   1.778   1.780   1.790
  1.800   1.807   1.812   1.822   1.827   1.832   1.834   1.839
  1.841   1.850   1.855   1.862   1.868   1.871   1.883   1.885
  1.893   1.901   1.909   1.922   1.924   1.929   1.938   1.944
  1.950   1.953   1.956   1.968   1.972   1.980   1.984   1.992
  1.997   2.003   2.011   2.015   2.020   2.021   2.028   2.037
  2.043   2.048   2.054   2.055   2.059   2.071   2.075   2.078
  2.087   2.094   2.102   2.112   2.128   2.135   2.140   2.143
  2.148   2.153   2.155   2.164   2.170   2.173   2.173   2.177
  2.185   2.191   2.198   2.200   2.211   2.218   2.222   2.229
  2.234   2.243   2.250   2.260   2.262   2.265   2.267   2.273
  2.277   2.286   2.289   2.296   2.301   2.306   2.308   2.314
  2.318   2.332   2.332   2.340   2.345   2.352   2.357   2.364
  2.369   2.371   2.375   2.378   2.386   2.390   2.399   2.407
  2.408   2.414   2.433   2.438   2.450   2.465   2.470   2.488
  2.491   2.508   2.511   2.521   2.531   2.537   2.550   2.571
  2.580   2.588   2.594   2.611   2.613   2.630   2.643   2.649
  2.655   2.669   2.680   2.685   2.689   2.696   2.705   2.711
  2.718   2.724   2.729   2.735   2.737   2.740   2.749   2.755
  2.764   2.767   2.772   2.775   2.776   2.793   2.798   2.814
  2.820   2.824   2.827   2.831   2.840   2.847   2.857   2.863
  2.872   2.880   2.892   2.894   2.898   2.917   2.922   2.942
  2.947   2.970   2.976   2.979   2.984   3.014   3.018   3.031
  3.033   3.054   3.061   3.078   3.141   3.214   3.274   3.310
  3.361   3.369   3.377   3.394   3.405   3.491   3.558   3.566
  3.588   3.644  13.198  13.251  13.263  13.336  13.363  13.419
 13.623  13.659  13.670  13.690  13.720  13.732  13.759  13.770
 13.778  13.809  13.817  13.836  13.887  13.910  13.918  13.979
 14.064  14.122  14.131  14.166  14.176  14.194  14.196  14.213
 14.222  14.246  14.254  14.270  14.272  14.283  14.319  14.389
 14.545  14.571  14.577  14.585  14.600  14.606  19.484  19.543
 19.632
 --------------------------------------------------------------
 
          Ground-State Mulliken Net Atomic Charges

     Atom                 Charge (a.u.)
  ----------------------------------------
      1 N                    -0.697049
      2 C                     0.311718
      3 C                     0.316950
      4 C                    -0.292114
      5 H                     0.245640
      6 C                    -0.230095
      7 H                     0.213851
      8 C                    -0.227712
      9 H                     0.209948
     10 C                    -0.313928
     11 H                     0.208860
     12 C                     0.163926
     13 C                    -0.307471
     14 H                     0.267011
     15 C                    -0.225165
     16 H                     0.211197
     17 C                    -0.229850
     18 H                     0.207205
     19 C                    -0.311469
     20 H                     0.209343
     21 C                     0.149862
     22 C                     0.180904
     23 C                    -0.269722
     24 H                     0.285338
     25 C                    -0.211393
     26 H                     0.239890
     27 C                    -0.303422
     28 H                     0.219457
     29 C                     0.230157
     30 C                     0.059282
     31 C                    -0.515044
     32 H                     0.248679
     33 H                     0.254244
     34 C                    -0.237253
     35 C                    -0.648471
     36 H                     0.224456
     37 H                     0.224530
     38 H                     0.241754
     39 C                    -0.547494
     40 H                     0.253037
     41 H                     0.256838
     42 C                     0.142488
     43 C                    -0.314385
     44 H                     0.246718
     45 C                     0.075754
     46 C                    -0.005553
     47 N                    -0.158302
     48 C                     0.082618
     49 C                    -0.290742
     50 H                     0.281113
     51 C                     0.153984
     52 C                    -0.005983
     53 N                    -0.158577
     54 C                    -0.411400
     55 C                     0.022241
     56 C                    -0.256422
     57 H                     0.231544
     58 C                    -0.240317
     59 H                     0.232310
     60 C                    -0.208382
     61 H                     0.231386
     62 C                    -0.325984
     63 H                     0.215246
     64 C                     0.162809
     65 C                     0.129916
     66 C                    -0.320295
     67 H                     0.214635
     68 C                    -0.216380
     69 H                     0.230192
     70 C                    -0.220482
     71 H                     0.227471
     72 C                    -0.283286
     73 H                     0.215062
     74 C                     0.176147
     75 C                    -0.588619
     76 H                     0.221264
     77 H                     0.219066
     78 H                     0.226720
  ----------------------------------------
  Sum of atomic charges =    -0.000000

 -----------------------------------------------------------------
                    Cartesian Multipole Moments
 -----------------------------------------------------------------
    Charge (ESU x 10^10)
                -0.0000
    Dipole Moment (Debye)
         X       2.3336      Y      -3.4343      Z       5.4265
       Tot       6.8328
    Quadrupole Moments (Debye-Ang)
        XX    -286.4609     XY      37.5611     YY    -287.5038
        XZ     -53.0840     YZ      44.8996     ZZ    -323.8558
    Octopole Moments (Debye-Ang^2)
       XXX    1737.7929    XXY    -794.0941    XYY     689.1952
       YYY   -1568.3886    XXZ     899.1302    XYZ    -375.3652
       YYZ     772.1863    XZZ     955.4462    YZZ    -888.4097
       ZZZ    2000.6513
    Hexadecapole Moments (Debye-Ang^3)
      XXXX  -24208.5745   XXXY    8337.4646   XXYY   -7478.1756
      XYYY    7085.6822   YYYY  -14052.6377   XXXZ  -10107.6745
      XXYZ    4408.7126   XYYZ   -4170.6982   YYYZ    7402.0774
      XXZZ   -9854.3391   XYZZ    4611.7391   YYZZ   -7693.2452
      XZZZ  -10324.8816   YZZZ    8998.6182   ZZZZ  -22493.3312
 -----------------------------------------------------------------
 -----------------------------------------------------------------
               TDA Excited-State Multipoles, State  1
 -----------------------------------------------------------------
    Charge (ESU x 10^10)
                -0.0000
    Dipole Moment (Debye)
         X       2.9288      Y      -3.6530      Z       5.8486
       Tot       7.4919
    Quadrupole Moments (Debye-Ang)
        XX    -290.4604     XY      39.5275     YY    -287.9890
        XZ     -55.8991     YZ      46.5960     ZZ    -325.7462
    Octopole Moments (Debye-Ang^2)
       XXX    1775.0722    XXY    -810.2717    XYY     695.9688
       YYY   -1569.5956    XXZ     919.0540    XYZ    -386.6297
       YYZ     779.5233    XZZ     970.5148    YZZ    -899.2736
       ZZZ    2016.1726
    Hexadecapole Moments (Debye-Ang^3)
      XXXX  -24502.6388   XXXY    8469.4160   XXYY   -7533.3289
      XYYY    7108.1004   YYYY  -14049.0752   XXXZ  -10271.2270
      XXYZ    4487.1175   XYYZ   -4216.0350   YYYZ    7433.7293
      XXZZ   -9953.7746   XYZZ    4676.1961   YYZZ   -7742.6059
      XZZZ  -10412.0757   YZZZ    9070.1382   ZZZZ  -22581.8855
 -----------------------------------------------------------------
 -----------------------------------------------------------------
               TDA Excited-State Multipoles, State  2
 -----------------------------------------------------------------
    Charge (ESU x 10^10)
                 0.0000
    Dipole Moment (Debye)
         X      25.6218      Y     -17.6739      Z      24.9177
       Tot      39.8715
    Quadrupole Moments (Debye-Ang)
        XX    -390.3667     XY     110.3123     YY    -345.0902
        XZ    -157.1508     YZ     115.0597     ZZ    -397.5819
    Octopole Moments (Debye-Ang^2)
       XXX    2678.7014    XXY   -1290.5089    XYY    1024.3943
       YYY   -1875.7231    XXZ    1545.9588    XYZ    -790.9745
       YYZ    1096.4432    XZZ    1557.1586    YZZ   -1325.0816
       ZZZ    2699.3550
    Hexadecapole Moments (Debye-Ang^3)
      XXXX  -30455.4560   XXXY   11825.0218   XXYY   -9594.9521
      XYYY    8599.5943   YYYY  -15568.7219   XXXZ  -14882.4241
      XXYZ    7157.0501   XYYZ   -6019.5239   YYYZ    8922.4272
      XXZZ  -13608.0761   XYZZ    7141.4615   YYZZ   -9704.5252
      XZZZ  -14055.6387   YZZZ   11870.1191   ZZZZ  -26354.8241
 -----------------------------------------------------------------
 -----------------------------------------------------------------
               TDA Excited-State Multipoles, State  3
 -----------------------------------------------------------------
    Charge (ESU x 10^10)
                 0.0000
    Dipole Moment (Debye)
         X      26.0043      Y     -17.9196      Z      25.2457
       Tot      40.4312
    Quadrupole Moments (Debye-Ang)
        XX    -392.0424     XY     111.5510     YY    -346.1029
        XZ    -158.9130     YZ     116.2919     ZZ    -398.9143
    Octopole Moments (Debye-Ang^2)
       XXX    2693.8041    XXY   -1298.7322    XYY    1030.1612
       YYY   -1881.1858    XXZ    1556.6505    XYZ    -798.1395
       YYZ    1102.2025    XZZ    1567.5341    YZZ   -1332.9051
       ZZZ    2711.7605
    Hexadecapole Moments (Debye-Ang^3)
      XXXX  -30554.0010   XXXY   11881.5231   XXYY   -9630.4220
      XYYY    8626.1440   YYYY  -15596.0211   XXXZ  -14959.8547
      XXYZ    7203.1550   XYYZ   -6051.8307   YYYZ    8949.8874
      XXZZ  -13671.1722   XYZZ    7185.8416   YYZZ   -9741.0763
      XZZZ  -14121.1949   YZZZ   11922.4743   ZZZZ  -26426.4108
 -----------------------------------------------------------------
 -----------------------------------------------------------------
               TDA Excited-State Multipoles, State  4
 -----------------------------------------------------------------
    Charge (ESU x 10^10)
                -0.0000
    Dipole Moment (Debye)
         X       2.5946      Y      -3.5527      Z       5.7254
       Tot       7.2204
    Quadrupole Moments (Debye-Ang)
        XX    -289.0636     XY      38.1322     YY    -287.9985
        XZ     -55.0960     YZ      46.1866     ZZ    -325.4551
    Octopole Moments (Debye-Ang^2)
       XXX    1759.1550    XXY    -803.7392    XYY     689.3851
       YYY   -1572.8551    XXZ     914.6098    XYZ    -382.6852
       YYZ     778.6683    XZZ     967.3382    YZZ    -895.9008
       ZZZ    2011.5897
    Hexadecapole Moments (Debye-Ang^3)
      XXXX  -24367.2408   XXXY    8415.9542   XXYY   -7509.8147
      XYYY    7080.4510   YYYY  -14086.7658   XXXZ  -10219.0876
      XXYZ    4469.8149   XYYZ   -4199.0143   YYYZ    7438.4502
      XXZZ   -9941.0597   XYZZ    4658.5128   YYZZ   -7731.0103
      XZZZ  -10396.4800   YZZZ    9045.2958   ZZZZ  -22560.9422
 -----------------------------------------------------------------
 -----------------------------------------------------------------
               TDA Excited-State Multipoles, State  5
 -----------------------------------------------------------------
    Charge (ESU x 10^10)
                 0.0000
    Dipole Moment (Debye)
         X       2.0096      Y      -3.5000      Z       5.0925
       Tot       6.4979
    Quadrupole Moments (Debye-Ang)
        XX    -286.5377     XY      37.2768     YY    -286.6058
        XZ     -51.9022     YZ      44.5449     ZZ    -325.7261
    Octopole Moments (Debye-Ang^2)
       XXX    1730.2255    XXY    -793.4796    XYY     688.4214
       YYY   -1566.7782    XXZ     895.8971    XYZ    -374.2824
       YYZ     771.0626    XZZ     952.9504    YZZ    -887.4998
       ZZZ    1994.0456
    Hexadecapole Moments (Debye-Ang^3)
      XXXX  -24188.6228   XXXY    8327.0175   XXYY   -7468.0446
      XYYY    7076.3620   YYYY  -14031.1656   XXXZ  -10083.5012
      XXYZ    4401.5881   XYYZ   -4164.5445   YYYZ    7394.5756
      XXZZ   -9849.9660   XYZZ    4606.1376   YYZZ   -7686.0431
      XZZZ  -10307.5393   YZZZ    8986.7124   ZZZZ  -22514.2768
 -----------------------------------------------------------------
 -----------------------------------------------------------------
               TDA Excited-State Multipoles, State  6
 -----------------------------------------------------------------
    Charge (ESU x 10^10)
                -0.0000
    Dipole Moment (Debye)
         X       4.8008      Y      -4.1947      Z       7.2442
       Tot       9.6500
    Quadrupole Moments (Debye-Ang)
        XX    -292.8619     XY      39.5304     YY    -291.6610
        XZ     -59.4786     YZ      48.1457     ZZ    -325.3798
    Octopole Moments (Debye-Ang^2)
       XXX    1796.4849    XXY    -810.5900    XYY     705.2618
       YYY   -1590.2175    XXZ     926.0102    XYZ    -388.4746
       YYZ     788.7483    XZZ     981.5015    YZZ    -907.5091
       ZZZ    2044.2246
    Hexadecapole Moments (Debye-Ang^3)
      XXXX  -24500.1480   XXXY    8454.2037   XXYY   -7559.9890
      XYYY    7144.8192   YYYY  -14170.3000   XXXZ  -10319.8120
      XXYZ    4497.4932   XYYZ   -4232.3040   YYYZ    7470.6144
      XXZZ   -9988.9167   XYZZ    4692.3038   YYZZ   -7779.5582
      XZZZ  -10470.8201   YZZZ    9121.9966   ZZZZ  -22616.7016
 -----------------------------------------------------------------
 -----------------------------------------------------------------
               TDA Excited-State Multipoles, State  7
 -----------------------------------------------------------------
    Charge (ESU x 10^10)
                -0.0000
    Dipole Moment (Debye)
         X       6.9070      Y      -3.9445      Z       8.2865
       Tot      11.4862
    Quadrupole Moments (Debye-Ang)
        XX    -319.8078     XY      54.5193     YY    -287.8682
        XZ     -84.1248     YZ      60.3527     ZZ    -344.5834
    Octopole Moments (Debye-Ang^2)
       XXX    2010.4703    XXY    -936.8026    XYY     759.9553
       YYY   -1563.8905    XXZ    1116.1365    XYZ    -511.5703
       YYZ     850.5562    XZZ    1148.6055    YZZ    -999.9823
       ZZZ    2155.8266
    Hexadecapole Moments (Debye-Ang^3)
      XXXX  -26308.6634   XXXY    9482.2480   XXYY   -8100.9442
      XYYY    7388.1507   YYYY  -13972.4766   XXXZ  -11762.2789
      XXYZ    5375.8357   XYYZ   -4801.8529   YYYZ    7802.7290
      XXZZ  -11204.1499   XYZZ    5478.0464   YYZZ   -8255.6398
      XZZZ  -11577.2942   YZZZ    9794.8357   ZZZZ  -23589.2371
 -----------------------------------------------------------------
 -----------------------------------------------------------------
               TDA Excited-State Multipoles, State  8
 -----------------------------------------------------------------
    Charge (ESU x 10^10)
                -0.0000
    Dipole Moment (Debye)
         X      14.6831      Y     -17.5381      Z      18.5398
       Tot      29.4432
    Quadrupole Moments (Debye-Ang)
        XX    -308.6587     XY      69.2748     YY    -350.3003
        XZ     -83.3464     YZ      82.0004     ZZ    -353.9230
    Octopole Moments (Debye-Ang^2)
       XXX    2053.7666    XXY    -968.4023    XYY     860.8824
       YYY   -1923.9764    XXZ    1043.3791    XYZ    -472.1756
       YYZ     930.9500    XZZ    1110.4341    YZZ   -1077.5065
       ZZZ    2363.6500
    Hexadecapole Moments (Debye-Ang^3)
      XXXX  -25661.4136   XXXY    9319.6343   XXYY   -8248.1106
      XYYY    7920.8339   YYYY  -15973.9587   XXXZ  -11239.1346
      XXYZ    5018.3869   XYYZ   -4574.2640   YYYZ    8095.6649
      XXZZ  -10619.6951   XYZZ    5158.8659   YYZZ   -8446.9724
      XZZZ  -11201.0595   YZZZ   10063.6064   ZZZZ  -23938.7868
 -----------------------------------------------------------------
 -----------------------------------------------------------------
               TDA Excited-State Multipoles, State  9
 -----------------------------------------------------------------
    Charge (ESU x 10^10)
                -0.0000
    Dipole Moment (Debye)
         X      14.8262      Y      -4.5466      Z      13.5434
       Tot      20.5891
    Quadrupole Moments (Debye-Ang)
        XX    -378.1864     XY      83.8390     YY    -284.7424
        XZ    -136.9886     YZ      85.8886     ZZ    -377.9996
    Octopole Moments (Debye-Ang^2)
       XXX    2449.0987    XXY   -1158.7229    XYY     866.8891
       YYY   -1531.4943    XXZ    1461.1549    XYZ    -733.1367
       YYZ     973.8699    XZZ    1460.5491    YZZ   -1181.4523
       ZZZ    2405.4648
    Hexadecapole Moments (Debye-Ang^3)
      XXXX  -29567.5570   XXXY   11139.4886   XXYY   -8968.5240
      XYYY    7805.1028   YYYY  -13677.0547   XXXZ  -14154.1770
      XXYZ    6782.8511   XYYZ   -5774.9105   YYYZ    8415.9958
      XXZZ  -13163.8452   XYZZ    6823.6642   YYZZ   -9158.1076
      XZZZ  -13526.2204   YZZZ   11086.9528   ZZZZ  -25340.6506
 -----------------------------------------------------------------
 -----------------------------------------------------------------
               TDA Excited-State Multipoles, State 10
 -----------------------------------------------------------------
    Charge (ESU x 10^10)
                -0.0000
    Dipole Moment (Debye)
         X      12.7372      Y      -7.1326      Z      12.4184
       Tot      19.1658
    Quadrupole Moments (Debye-Ang)
        XX    -303.0495     XY      44.5705     YY    -307.9861
        XZ     -73.5009     YZ      56.4320     ZZ    -327.3675
    Octopole Moments (Debye-Ang^2)
       XXX    1941.2877    XXY    -850.7722    XYY     755.5718
       YYY   -1680.9785    XXZ     979.2091    XYZ    -413.9990
       YYZ     834.0527    XZZ    1037.4595    YZZ    -955.8269
       ZZZ    2153.7898
    Hexadecapole Moments (Debye-Ang^3)
      XXXX  -25012.1936   XXXY    8696.8236   XXYY   -7768.0790
      XYYY    7342.2813   YYYY  -14680.1488   XXXZ  -10729.6333
      XXYZ    4668.2443   XYYZ   -4354.0208   YYYZ    7651.3767
      XXZZ  -10216.2751   XYZZ    4843.2311   YYZZ   -7989.5229
      XZZZ  -10756.0500   YZZZ    9414.6297   ZZZZ  -22900.4748
 -----------------------------------------------------------------
 -----------------------------------------------------------------
               TDA Excited-State Multipoles, State 11
 -----------------------------------------------------------------
    Charge (ESU x 10^10)
                -0.0000
    Dipole Moment (Debye)
         X      13.8754      Y      -9.1088      Z      14.7600
       Tot      22.2116
    Quadrupole Moments (Debye-Ang)
        XX    -312.6644     XY      51.7278     YY    -312.4261
        XZ     -82.4578     YZ      64.9072     ZZ    -338.0915
    Octopole Moments (Debye-Ang^2)
       XXX    2022.9337    XXY    -894.3808    XYY     779.8746
       YYY   -1705.9811    XXZ    1038.4113    XYZ    -449.5200
       YYZ     867.3352    XZZ    1089.3834    YZZ   -1003.8319
       ZZZ    2232.2545
    Hexadecapole Moments (Debye-Ang^3)
      XXXX  -25595.6049   XXXY    8985.0714   XXYY   -7933.9490
      XYYY    7457.7821   YYYY  -14773.6482   XXXZ  -11128.4338
      XXYZ    4891.1696   XYYZ   -4503.7359   YYYZ    7802.0692
      XXZZ  -10531.4388   XYZZ    5052.2847   YYZZ   -8191.1176
      XZZZ  -11069.1310   YZZZ    9711.2208   ZZZZ  -23344.3512
 -----------------------------------------------------------------
 -----------------------------------------------------------------
               TDA Excited-State Multipoles, State 12
 -----------------------------------------------------------------
    Charge (ESU x 10^10)
                 0.0000
    Dipole Moment (Debye)
         X      17.5262      Y     -13.6134      Z      18.4404
       Tot      28.8539
    Quadrupole Moments (Debye-Ang)
        XX    -340.8734     XY      76.2134     YY    -328.8798
        XZ    -106.8270     YZ      83.5199     ZZ    -358.8908
    Octopole Moments (Debye-Ang^2)
       XXX    2261.0794    XXY   -1047.3141    XYY     872.5747
       YYY   -1791.9599    XXZ    1209.8157    XYZ    -563.4303
       YYZ     942.1126    XZZ    1235.6372    YZZ   -1107.1706
       ZZZ    2380.7923
    Hexadecapole Moments (Debye-Ang^3)
      XXXX  -27385.8778   XXXY   10028.7682   XXYY   -8519.2488
      XYYY    7890.3525   YYYY  -15186.7863   XXXZ  -12392.3833
      XXYZ    5631.9644   XYYZ   -4965.7859   YYYZ    8147.2541
      XXZZ  -11497.6720   XYZZ    5683.6179   YYZZ   -8634.5132
      XZZZ  -11944.1401   YZZZ   10339.8422   ZZZZ  -24224.1433
 -----------------------------------------------------------------
Archival summary:
1\1\ctcp003\SP\ProcedureUnspecified\BasisUnspecified\34431\mewes\MonApr3018:39:552018MonApr3018:39:552018\0\\#,ProcedureUnspecified,BasisUnspecified,\\0,1\N\C,1,1.37384\C,1,1.37384,2,122.136\C,2,1.40906,1,119.332,3,163.32,0\H,4,1.07904,2,120.152,1,-0.016775,0\C,4,1.37266,2,119.855,1,-178.437,0\H,6,1.08031,4,119.665,2,179.212,0\C,6,1.39084,4,119.861,2,0.049043,0\H,8,1.08095,6,120.155,4,179.554,0\C,8,1.3887,6,120.256,4,-0.389228,0\H,10,1.0798,8,118.264,6,-179.303,0\C,10,1.38256,8,121.585,6,0.255864,0\C,3,1.40947,1,120.186,2,-165.723,0\H,13,1.07859,3,121.134,1,-3.27052,0\C,13,1.37206,3,119.756,1,174.578,0\H,15,1.07979,13,119.06,3,-177.723,0\C,15,1.39082,13,120.018,3,1.36994,0\H,17,1.0809,15,120.195,13,-179.205,0\C,17,1.38996,15,120.218,13,1.68141,0\H,19,1.07964,17,118.413,15,177.589,0\C,19,1.38086,17,121.505,15,-1.80931,0\C,1,1.43809,2,117.887,3,-177.295,0\C,22,1.37276,1,119.865,2,104.292,0\H,23,1.08224,22,118.557,1,-0.838526,0\C,22,1.38469,1,118.912,2,-75.4274,0\H,25,1.08245,22,121.573,1,-0.728182,0\C,25,1.3767,22,117.089,1,177.876,0\H,27,1.08279,25,118.69,22,-177.321,0\C,23,1.39733,22,122.003,1,177.609,0\C,29,1.39935,23,117.302,22,6.47204,0\C,30,1.50096,29,124.017,23,170.171,0\H,31,1.09233,30,107.855,29,-160.332,0\H,31,1.09287,30,110.885,29,83.6144,0\C,12,1.50734,10,122.696,8,-172.937,0\C,34,1.52779,12,112.159,10,-30.6133,0\H,35,1.08805,34,111.064,12,175.546,0\H,35,1.08809,34,111.135,12,58.5662,0\H,35,1.08948,34,111.948,12,-62.8489,0\C,31,1.5287,30,112.122,29,-38.6791,0\H,39,1.09109,31,109.172,30,-152.981,0\H,39,1.09781,31,108.695,30,-38.2778,0\C,39,1.49669,31,110.323,30,87.2014,0\C,42,1.36854,39,118.43,31,118.143,0\H,43,1.08421,42,118.586,39,8.94142,0\C,43,1.40565,42,123.854,39,-168.647,0\C,45,1.3998,43,119.905,42,-179.472,0\N,46,1.16174,45,178.371,43,-10.3381,0\C,45,1.44111,43,116.672,42,2.64308,0\C,48,1.39623,45,118.808,43,-4.10246,0\H,49,1.08098,48,116.023,45,-176.58,0\C,49,1.38077,48,123.914,45,2.60597,0\C,48,1.40632,45,122.408,43,175.815,0\N,52,1.15935,48,178.774,45,178.446,0\C,51,1.52676,49,118.767,48,-167.429,0\C,54,1.52852,51,111.26,49,-24.1375,0\C,55,1.38151,54,127.123,51,-64.8185,0\H,56,1.08338,55,120.385,54,2.84789,0\C,56,1.38975,55,118.759,54,-179.627,0\H,58,1.08268,56,119.735,55,-177.693,0\C,58,1.39174,56,120.392,55,0.533485,0\H,60,1.08237,58,119.641,56,-178.955,0\C,60,1.38754,58,120.705,56,-0.319842,0\H,62,1.08271,60,120.231,58,-179.109,0\C,62,1.38788,60,118.89,58,-0.121995,0\C,64,1.46,62,131.482,60,-179.849,0\C,65,1.3856,64,130.812,62,2.31182,0\H,66,1.0829,65,120.908,64,-0.061734,0\C,66,1.38755,65,118.788,64,179.005,0\H,68,1.08186,66,119.841,65,-179.233,0\C,68,1.39051,66,120.424,65,-0.179799,0\H,70,1.08226,68,119.622,66,-178.837,0\C,70,1.38849,68,120.791,66,0.219989,0\H,72,1.08189,70,120.202,68,-178.076,0\C,72,1.38213,70,118.866,68,0.026029,0\C,34,1.55307,12,106.69,10,87.9378,0\H,75,1.09,34,110.095,12,178.706,0\H,75,1.0902,34,109.999,12,-61.6181,0\H,75,1.0903,34,112.294,12,58.5175,0\\\@

 Total job time:  6046.23s(wall), 32532.28s(cpu) 
 Mon Apr 30 18:39:55 2018

        *************************************************************
        *                                                           *
        *  Thank you very much for using Q-Chem.  Have a nice day.  *
        *                                                           *
        *************************************************************


0 sent ACK to 0 
now end server 0 ... 
