mFile = /cm/shared/apps/q-chem/intel/QCHEM_5.0.1_Trunk/bin/mpi/machines
Process 0 of 1 is on ctcp042 - thread support 0
initial socket setup ...start
initial socket setup ...done 
now start server 0 ... 
ctcp042.cm.cluster 10.141.0
Q-Chem Developer Version! Running on 10.141.0.*
                  Welcome to Q-Chem
     A Quantum Leap Into The Future Of Chemistry


 Q-Chem 5.0, Q-Chem, Inc., Pleasanton, CA (2017)

 Yihan Shao,  Zhengting Gan,  E. Epifanovsky,  A. T. B. Gilbert,  M. Wormit,  
 J. Kussmann,  A. W. Lange,  A. Behn,  Jia Deng,  Xintian Feng,  D. Ghosh,  
 M. Goldey,  P. R. Horn,  L. D. Jacobson,  I. Kaliman,  T. Kus,  A. Landau,  
 Jie Liu,  E. I. Proynov,  R. M. Richard,  R. P. Steele,  E. J. Sundstrom,  
 H. L. Woodcock III,  P. M. Zimmerman,  D. Zuev,  B. Albrecht,  E. Alguire,  
 S. A. Baeppler,  Z. Benda,  Y. A. Bernard,  E. J. Berquist,  K. B. Bravaya,  
 D. Casanova,  Chun-Min Chang,  Yunqing Chen,  A. Chien,  K. D. Closser,  
 M. P. Coons,  S. Dasgupta,  M. Diedenhofen,  Hainam Do,  R. G. Edgar,  
 Po-Tung Fang,  S. Fatehi,  Qingguo Feng,  Qinghui Ge,  A. Ghysels,  
 J. Gomes,  J. Gonthier,  A. Gunina,  M. W. D. Hanson-Heine,  
 P. H. P. Harbach,  A. W. Hauser,  J. E. Herr,  E. G. Hohenstein,  
 Z. C. Holden,  Kerwin Hui,  T.-C. Jagau,  Hyunjun Ji,  B. Kaduk,  
 K. Khistyaev,  Jaehoon Kim,  P. Klunzinger,  K. Koh,  D. Kosenkov,  
 T. Kowalczyk,  C. M. Krauter,  A. Kunitsa,  Ka Un Lao,  A. Laurent,  
 K. V. Lawler,  Joonho Lee,  D. Lefrancois,  S. Lehtola,  D. S. Levine,  
 Yi-Pei Li,  You-Sheng Lin,  Fenglai Liu,  E. Livshits,  A. Luenser,  
 P. Manohar,  E. Mansoor,  S. F. Manzer,  Shan-Ping Mao,  Yuezhi Mao,  
 N. Mardirossian,  A. V. Marenich,  L. A. Martinez-Martinez,  S. A. Maurer,  
 N. J. Mayhall,  S. C. McKenzie,  J.-M. Mewes,  A. F. Morrison,  K. Nanda,  
 T. S. Nguyen-Beck,  R. Olivares-Amaya,  J. A. Parkhill,  T. M. Perrine,  
 F. Plasser,  S. Prager,  A. Prociuk,  D. R. Rehn,  F. Rob,  M. Schneider,  
 N. Sergueev,  S. M. Sharada,  S. Sharma,  D. W. Small,  T. Stauch,  
 T. Stein,  Yu-Chuan Su,  A. J. W. Thom,  T. Tsuchimochi,  L. Vogt,  
 O. Vydrov,  M. A. Watson,  J. Wenzel,  M. de Wergifosse,  T. A. Wesolowski,  
 A. White,  J. Witte,  A. Yamada,  Jun Yang,  K. Yao,  S. Yeganeh,  
 S. R. Yost,  Zhi-Qiang You,  A. Zech,  Igor Ying Zhang,  Xing Zhang,  
 Yan Zhao,  Ying Zhu,  B. R. Brooks,  G. K. L. Chan,  C. J. Cramer,  
 M. S. Gordon,  W. J. Hehre,  A. Klamt,  M. W. Schmidt,  C. D. Sherrill,  
 D. G. Truhlar,  A. Aspuru-Guzik,  R. Baer,  A. T. Bell,  N. A. Besley,  
 Jeng-Da Chai,  A. Dreuw,  B. D. Dunietz,  T. R. Furlani,  Chao-Ping Hsu,  
 Yousung Jung,  Jing Kong,  D. S. Lambrecht,  WanZhen Liang,  C. Ochsenfeld,  
 V. A. Rassolov,  L. V. Slipchenko,  J. E. Subotnik,  T. Van Voorhis,  
 J. M. Herbert,  A. I. Krylov,  P. M. W. Gill,  M. Head-Gordon

 Contributors to earlier versions of Q-Chem not listed above: 
 R. D. Adamson,  B. Austin,  J. Baker,  G. J. O. Beran,  K. Brandhorst,  
 S. T. Brown,  E. F. C. Byrd,  A. K. Chakraborty,  C.-L. Cheng,  
 Siu Hung Chien,  D. M. Chipman,  D. L. Crittenden,  H. Dachsel,  
 R. A. DiStasio Jr.,  R. J. Doerksen,  A. D. Dutoi,  L. Fusti-Molnar,  
 W. A. Goddard III,  A. Golubeva-Zadorozhnaya,  S. R. Gwaltney,  G. Hawkins,  
 A. Heyden,  S. Hirata,  G. Kedziora,  F. J. Keil,  C. Kelley,  Jihan Kim,  
 R. A. King,  R. Z. Khaliullin,  P. P. Korambath,  W. Kurlancheek,  
 A. M. Lee,  M. S. Lee,  S. V. Levchenko,  Ching Yeh Lin,  D. Liotard,  
 R. C. Lochan,  I. Lotan,  P. E. Maslen,  N. Nair,  D. P. O'Neill,  
 D. Neuhauser,  E. Neuscamman,  C. M. Oana,  R. Olson,  B. Peters,  
 R. Peverati,  P. A. Pieniazek,  Y. M. Rhee,  J. Ritchie,  M. A. Rohrdanz,  
 E. Rosta,  N. J. Russ,  H. F. Schaefer III,  N. E. Schultz,  N. Shenvi,  
 A. C. Simmonett,  A. Sodt,  D. Stuck,  K. S. Thanthiriwatte,  V. Vanovschi,  
 Tao Wang,  A. Warshel,  C. F. Williams,  Q. Wu,  X. Xu,  W. Zhang

 Please cite Q-Chem as follows:
 Y. Shao et al., Mol. Phys. 113, 184-215 (2015)
 DOI: 10.1080/00268976.2014.952696

 Q-Chem 5.0.1 for Intel X86 EM64T Linux

 Parts of Q-Chem use Armadillo 5.200.1 (Boston Tea Smuggler).
 http://arma.sourceforge.net/

 Q-Chem begins on Tue Jan  8 14:23:11 2019  

Host: 32512

     Scratch files written to /scratch/mewes/142943/qchem15106//
 Parallel job on  1  processors
The previous job contains 0 fragments, simply inherited here

Checking the input file for inconsistencies... 	...done.

--------------------------------------------------------------
User input:
--------------------------------------------------------------
$rem
threads 8
jobtype	opt
method PBEh-3c
basis def2-mSVP
mem_static	1024
mem_total	14000
sym_ignore	true
cis_n_roots             2
cis_singlets            true
cis_triplets		false
rpa                     false
cis_state_deriv         1
$end


$molecule
read gsopt_2.mol
$end

--------------------------------------------------------------
 Adding empirical dispersion correction 
 ----------------------------------------------------------------
 Doing -D3(BJ) with
 s6 =   1.00000
 s8 =   0.00000
 a1 =   0.48600
 a2 =   4.50000
 -D3 energy including 3body term =     -0.0779760724 hartrees
 ----------------------------------------------------------------
 Adding gCP correction 
 ----------------------------------------------------------------
 gCP energy =      0.1091757794 hartrees
 ----------------------------------------------------------------
             Standard Nuclear Orientation (Angstroms)
    I     Atom           X                Y                Z
 ----------------------------------------------------------------
    1      N       0.0000000000     0.0000000000     0.0000000000
    2      C       0.0000000000     0.0000000000     1.3985970000
    3      C       1.1916130225     0.0000000000     2.1212958594
    4      H       2.1442172964     0.0151363726     1.6094181373
    5      C       1.1622384054    -0.0347984997     3.5043823611
    6      H       2.0947019852    -0.0351302971     4.0535864350
    7      C      -0.0463425393    -0.0887650340     4.1768196448
    8      H      -0.0735580252    -0.1286430459     5.2573375617
    9      C      -1.2283883129    -0.0756045930     3.4517674654
   10      H      -2.1669156222    -0.0967676246     3.9885826380
   11      C      -1.2296047228    -0.0070705469     2.0662830075
   12      C      -1.0669429696    -0.6028541916    -0.6773034480
   13      C      -0.9205233037    -1.1633585179    -1.9449870274
   14      H       0.0234485340    -1.1125075966    -2.4685482217
   15      C      -1.9862184259    -1.8092750091    -2.5476598045
   16      H      -1.8492965274    -2.2467577538    -3.5279165930
   17      C      -3.2029254819    -1.9100540037    -1.8965310207
   18      H      -4.0334638729    -2.4289071858    -2.3557474315
   19      C      -3.3551921149    -1.3160675263    -0.6529411206
   20      H      -4.3190083958    -1.3719012701    -0.1660067866
   21      C      -2.3144486014    -0.6345422730    -0.0390781615
   22      C       1.1984701548     0.3271705296    -0.6777737948
   23      C       2.0696256612    -0.6572575208    -1.0954587789
   24      H       1.8033565626    -1.6823563612    -0.8745559611
   25      C       1.5217512476     1.6573145993    -0.9024883606
   26      H       0.8570246651     2.4442310200    -0.5707352567
   27      C       2.6954967072     1.9505719483    -1.5604917881
   28      H       2.9455784358     2.9869205742    -1.7533886918
   29      C       3.2534148854    -0.3797787165    -1.7830811605
   30      C       3.5680433697     0.9595991906    -2.0192887389
   31      C       4.7472311140     1.4157898909    -2.8255737379
   32      H       4.6306894965     2.4800121520    -3.0353021880
   33      H       5.6831034157     1.3219662165    -2.2670109680
   34      C      -2.4789068376     0.1817658776     1.2303833596
   35      C      -3.7478605005    -0.1761082523     1.9944145271
   36      H      -4.6339065185     0.0089102625     1.3874958473
   37      H      -3.8554060864     0.4490860831     2.8807802474
   38      H      -3.7587513312    -1.2203483188     2.3089197064
   39      C       4.8516934888     0.6474432980    -4.1398126846
   40      H       5.3398908444     1.2652018338    -4.8950635257
   41      H       3.8481482628     0.4425047226    -4.5217931335
   42      C       5.6470041689    -0.6076609811    -3.9546933680
   43      C       6.7869324524    -0.7512863844    -4.7392779905
   44      H       7.0081614718     0.0021487043    -5.4840725645
   45      C       7.6588866186    -1.8150331326    -4.5927530653
   46      C       7.3796844467    -2.7684171299    -3.6123673413
   47      C       6.2428143412    -2.6319767934    -2.8322704698
   48      H       6.0573693432    -3.3936477663    -2.0894275238
   49      C       5.3519714310    -1.5683456036    -2.9778024655
   50      C       8.8157462420    -1.9046577504    -5.4206229153
   51      N       9.7418737678    -1.9517247607    -6.1022518414
   52      C       8.2496178693    -3.8780188376    -3.4003908176
   53      N       8.9452513840    -4.7764624404    -3.2183928191
   54      C       4.0611920396    -1.6413404196    -2.1443105483
   55      C       4.3091259897    -2.4011347719    -0.8429315691
   56      C       5.0420624055    -1.9778510795     0.2466727488
   57      H       5.5270044531    -1.0092210065     0.2471445479
   58      C       5.1429130646    -2.8208630191     1.3455600377
   59      H       5.7134269770    -2.5107113826     2.2107281611
   60      C       4.5143279652    -4.0613398627     1.3432371782
   61      H       4.6020762535    -4.7056310560     2.2076126766
   62      C       3.7725650815    -4.4803061791     0.2485270634
   63      H       3.2812689011    -5.4447381649     0.2582873108
   64      C       3.6710847026    -3.6396202656    -0.8490923149
   65      C       2.9536475324    -3.7880096760    -2.1125890719
   66      C       2.1514201179    -4.8104208362    -2.5958360761
   67      H       1.9843041995    -5.7082056160    -2.0148536229
   68      C       1.5546736984    -4.6610457356    -3.8391880178
   69      H       0.9235352639    -5.4486122735    -4.2283482214
   70      C       1.7547415232    -3.5080427064    -4.5900706030
   71      H       1.2801836143    -3.4071675796    -5.5571202569
   72      C       2.5610674452    -2.4854091650    -4.1081073804
   73      H       2.7136591559    -1.5873424093    -4.6938587766
   74      C       3.1526631171    -2.6361845220    -2.8711753355
   75      C      -2.5695647189     1.6726041998     0.8367075115
   76      H      -1.6925258820     2.0029067101     0.2808994749
   77      H      -3.4453631140     1.8491401586     0.2097102738
   78      H      -2.6532124216     2.2964623806     1.7285723969
 ----------------------------------------------------------------
 Nuclear Repulsion Energy =  5553.4447395325 hartrees
 There are      158 alpha and      158 beta electrons
 Requested basis set is def2-mSVP
 There are 391 shells and 767 basis functions

 Total QAlloc Memory Limit  14000 MB
 Mega-Array Size      1001 MB
 MEM_STATIC part      1024 MB
 A cutoff of  1.0D-11 yielded  35206 shell pairs
 There are    141312 function pairs (    155946 Cartesian)
 
 -------------------------------------------------------
 OpenMP Integral Computing Module                       
 Release: version 1.0, May 2013, Q-Chem Inc. Pittsburgh 
 -------------------------------------------------------
 Integral Job Info:
 Integral job number is                      11
 Integral operator is                         1
 short-range coefficients                     0
 long-range coefficients              100000000
 Omega coefficients                           0
 if combine SR and LR in K                    0
 Integral screening is                        0
 Integral computing path is                   2
 max size of driver memory is            800000
 size of driver memory is                593474
 size of scratch memory is              1809772
 max col of scratch BK array               1296
 max len of scratch array in speh3          155
 max len of scratch index in speh4           18
 max int batch size is                      520
 min int batch size is                       52
 fixed nKL is                                52
 max L of basis functions is                  2
 order of int derivative is                   0
 number of shells is                        391
 number of basis is                         814
 number of cartesian basis is               814
 number of contracted shell pairs         35206
 number of primitive shell pairs          73595
 maxK2 (contraction) of shell pair           25
 max number of K2 of shell pair               1
 max number of CS2 of shell pair           8385
 max number of PS2 of shell pair          13120
 mem total for path MDJ                  386664
 -------------------------------------------------------
 Smallest overlap matrix eigenvalue = 2.50E-04

 Scale SEOQF with 1.000000e-02/1.000000e-02/1.000000e-02

 Standard Electronic Orientation quadrupole field applied
 Nucleus-field energy     =     0.0000000062 hartrees
 Guess from superposition of atomic densities
 Warning:  Energy on first SCF cycle will be non-variational
 A restricted hybrid HF-DFT SCF calculation will be
 performed using Pulay DIIS extrapolation
 Exchange:     0.4200 Hartree-Fock + 0.5800 PBEh-3c
 Correlation:  1.0000 PBEh-3c
 Using SG-1 standard quadrature grid
 Dispersion:   Grimme D3
 SCF converges when DIIS error is below 1.0E-08
 using 8 threads for integral computing
 -------------------------------------------------------
 OpenMP Integral computing Module                
 Release: version 1.0, May 2013, Q-Chem Inc. Pittsburgh 
 -------------------------------------------------------
 ---------------------------------------
  Cycle       Energy         DIIS Error
 ---------------------------------------
    1   -1871.4495959793      3.06E-02
    2   -1855.1154857144      2.27E-03
    3   -1855.0349388065      2.69E-03
    4   -1855.4766911170      8.81E-04
    5   -1855.5274445244      2.18E-04
    6   -1855.5301480207      9.00E-05
    7   -1855.5306824395      2.34E-05
    8   -1855.5307215578      8.62E-06
    9   -1855.5307271237      2.26E-06
   10   -1855.5307274466      1.02E-06
   11   -1855.5307275195      3.74E-07
   12   -1855.5307275374      1.36E-07
   13   -1855.5307275384      5.77E-08
   14   -1855.5307275436      1.95E-08
   15   -1855.5307275287      7.36E-09 Convergence criterion met
 ---------------------------------------
 SCF time:  CPU 2230.78 s  wall 612.37 s
 SCF   energy in the final basis set = -1855.53072753
 Total energy in the final basis set = -1855.53072753
 
 Direct TDDFT/TDA calculation will be performed
 Exchange:     0.4200 Hartree-Fock + 0.5800 PBEh-3c
 Correlation:  1.0000 PBEh-3c
 Using SG-1 standard quadrature grid
 Dispersion:   Grimme D3
 Singlet excitation energies requested
 CIS energy converged when residual is below 10e- 6
 ---------------------------------------------------
 Iter    Rts Conv    Rts Left    Ttl Dev     Max Dev
 ---------------------------------------------------
   1         0           2      0.000036    0.000020
   2         0           2      0.000033    0.000025
   3         0           2      0.000016    0.000011
   4         0           2      0.000010    0.000007
   5         0           2      0.000006    0.000004
   6         1           1      0.000006    0.000005
   7         1           1      0.000004    0.000003
   8         1           1      0.000003    0.000002
   9         2           0      0.000001    0.000001    Roots Converged
 ---------------------------------------------------
 
 ---------------------------------------------------
         TDDFT/TDA Excitation Energies              
 ---------------------------------------------------

 Excited state   1: excitation energy (eV) =    3.8527
 Total energy for state  1:                 -1855.38914224 au
    Multiplicity: Singlet
    Trans. Mom.:  0.0467 X  -0.0158 Y  -0.0186 Z
    Strength   :     0.0002623782
    D(158) --> V(  1) amplitude =  0.9952

 Excited state   2: excitation energy (eV) =    4.2469
 Total energy for state  2:                 -1855.37465552 au
    Multiplicity: Singlet
    Trans. Mom.:  0.0665 X  -0.0186 Y  -0.0760 Z
    Strength   :     0.0010970709
    D(158) --> V(  2) amplitude =  0.9441
    D(158) --> V(  3) amplitude = -0.2216
 
 ---------------------------------------------------
 Calculating Relaxed Density
 ---------------------------------------------------
 Iter    Rts Conv    Rts Left    Ttl Dev     Max Dev
 ---------------------------------------------------
   1         0           2      0.000607    0.000338
   2         0           2      0.000186    0.000101
   3         0           2      0.000061    0.000032
   4         0           2      0.000025    0.000014
   5         0           2      0.000009    0.000005
   6         0           2      0.000003    0.000002
   7         2           0      0.000000    0.000000    Roots Converged
 ---------------------------------------------------
  SETman timing summary (seconds)
  CPU time              5790.52s
  System time              0.01s
  Wall time              830.14s
 
 --------------------------------------------------------------
 
                    Orbital Energies (a.u.)
 --------------------------------------------------------------
 
 Alpha MOs
 -- Occupied --
-14.678 -14.657 -14.654 -10.522 -10.520 -10.512 -10.508 -10.501
-10.500 -10.498 -10.498 -10.493 -10.491 -10.491 -10.490 -10.487
-10.480 -10.478 -10.476 -10.474 -10.474 -10.474 -10.469 -10.469
-10.468 -10.467 -10.467 -10.467 -10.466 -10.465 -10.465 -10.465
-10.464 -10.463 -10.462 -10.451 -10.451 -10.444 -10.444 -10.443
-10.443 -10.441 -10.441 -10.437 -10.437 -10.431 -10.427  -1.091
 -1.042  -1.030  -1.019  -1.004  -0.988  -0.969  -0.961  -0.958
 -0.939  -0.934  -0.911  -0.899  -0.890  -0.885  -0.858  -0.857
 -0.848  -0.846  -0.834  -0.826  -0.819  -0.808  -0.795  -0.773
 -0.772  -0.747  -0.732  -0.725  -0.715  -0.711  -0.702  -0.692
 -0.682  -0.679  -0.673  -0.671  -0.667  -0.646  -0.619  -0.613
 -0.612  -0.611  -0.599  -0.584  -0.582  -0.573  -0.567  -0.562
 -0.540  -0.539  -0.537  -0.533  -0.530  -0.526  -0.524  -0.520
 -0.516  -0.510  -0.507  -0.503  -0.502  -0.501  -0.498  -0.493
 -0.492  -0.490  -0.487  -0.484  -0.474  -0.470  -0.461  -0.451
 -0.447  -0.444  -0.440  -0.439  -0.438  -0.436  -0.434  -0.431
 -0.429  -0.426  -0.424  -0.421  -0.420  -0.417  -0.415  -0.414
 -0.411  -0.404  -0.402  -0.399  -0.397  -0.396  -0.393  -0.380
 -0.374  -0.362  -0.350  -0.338  -0.322  -0.314  -0.307  -0.305
 -0.298  -0.291  -0.288  -0.280  -0.271  -0.231
 -- Virtual --
 -0.064  -0.042  -0.028  -0.014  -0.010  -0.005   0.014   0.017
  0.020   0.034   0.046   0.048   0.050   0.070   0.083   0.110
  0.112   0.119   0.126   0.131   0.133   0.137   0.146   0.151
  0.155   0.157   0.158   0.163   0.166   0.176   0.180   0.183
  0.188   0.193   0.194   0.194   0.198   0.199   0.203   0.206
  0.212   0.217   0.219   0.222   0.224   0.227   0.229   0.231
  0.235   0.237   0.238   0.240   0.243   0.246   0.252   0.253
  0.257   0.257   0.260   0.262   0.269   0.270   0.278   0.279
  0.284   0.289   0.292   0.297   0.299   0.303   0.306   0.310
  0.315   0.319   0.328   0.332   0.337   0.347   0.352   0.358
  0.365   0.366   0.372   0.378   0.382   0.385   0.388   0.397
  0.400   0.415   0.417   0.420   0.430   0.434   0.448   0.459
  0.461   0.467   0.469   0.475   0.480   0.482   0.492   0.494
  0.502   0.503   0.508   0.516   0.516   0.520   0.522   0.526
  0.531   0.533   0.538   0.539   0.541   0.544   0.546   0.550
  0.552   0.552   0.557   0.563   0.566   0.567   0.568   0.572
  0.576   0.577   0.584   0.588   0.589   0.592   0.594   0.597
  0.598   0.605   0.607   0.608   0.611   0.615   0.617   0.620
  0.622   0.625   0.626   0.629   0.633   0.635   0.641   0.642
  0.645   0.645   0.648   0.651   0.653   0.657   0.661   0.665
  0.669   0.673   0.676   0.679   0.683   0.687   0.688   0.695
  0.699   0.700   0.703   0.706   0.715   0.716   0.719   0.721
  0.726   0.728   0.732   0.736   0.742   0.744   0.745   0.749
  0.757   0.759   0.763   0.767   0.779   0.781   0.787   0.794
  0.802   0.805   0.814   0.820   0.821   0.825   0.836   0.839
  0.843   0.861   0.867   0.870   0.885   0.889   0.891   0.904
  0.908   0.914   0.914   0.923   0.929   0.933   0.935   0.939
  0.943   0.946   0.950   0.954   0.958   0.964   0.968   0.969
  0.973   0.975   0.977   0.983   0.987   0.989   0.995   0.996
  1.001   1.002   1.005   1.007   1.017   1.019   1.024   1.026
  1.029   1.037   1.039   1.042   1.046   1.049   1.051   1.054
  1.057   1.060   1.066   1.067   1.074   1.077   1.085   1.086
  1.091   1.095   1.097   1.105   1.106   1.111   1.115   1.120
  1.123   1.125   1.133   1.135   1.145   1.146   1.152   1.160
  1.165   1.166   1.170   1.177   1.182   1.188   1.201   1.208
  1.212   1.217   1.228   1.239   1.244   1.249   1.251   1.259
  1.267   1.273   1.279   1.288   1.292   1.295   1.297   1.305
  1.310   1.312   1.320   1.326   1.331   1.334   1.340   1.346
  1.355   1.361   1.364   1.376   1.379   1.383   1.397   1.399
  1.409   1.417   1.418   1.432   1.438   1.453   1.462   1.475
  1.493   1.499   1.502   1.506   1.513   1.515   1.518   1.522
  1.525   1.535   1.537   1.540   1.545   1.546   1.552   1.556
  1.564   1.567   1.570   1.572   1.578   1.581   1.591   1.592
  1.597   1.603   1.609   1.616   1.628   1.637   1.645   1.648
  1.663   1.665   1.684   1.688   1.697   1.707   1.722   1.733
  1.736   1.741   1.760   1.768   1.774   1.778   1.784   1.788
  1.804   1.806   1.818   1.823   1.826   1.836   1.838   1.842
  1.851   1.852   1.858   1.864   1.867   1.871   1.882   1.888
  1.892   1.900   1.905   1.922   1.927   1.929   1.941   1.944
  1.947   1.959   1.966   1.970   1.973   1.986   1.987   1.995
  2.004   2.004   2.007   2.018   2.021   2.025   2.031   2.034
  2.039   2.043   2.050   2.059   2.062   2.068   2.077   2.083
  2.091   2.098   2.107   2.113   2.131   2.133   2.141   2.144
  2.145   2.157   2.162   2.164   2.164   2.169   2.171   2.187
  2.192   2.195   2.204   2.212   2.215   2.218   2.223   2.233
  2.237   2.243   2.249   2.257   2.259   2.264   2.271   2.276
  2.282   2.288   2.292   2.296   2.306   2.312   2.313   2.316
  2.324   2.331   2.337   2.341   2.350   2.355   2.357   2.363
  2.364   2.369   2.377   2.383   2.388   2.390   2.394   2.397
  2.410   2.425   2.433   2.439   2.457   2.459   2.475   2.482
  2.499   2.510   2.518   2.530   2.534   2.547   2.553   2.579
  2.589   2.594   2.600   2.605   2.621   2.625   2.634   2.652
  2.662   2.676   2.689   2.692   2.699   2.703   2.713   2.715
  2.717   2.731   2.731   2.737   2.739   2.744   2.754   2.758
  2.763   2.767   2.773   2.776   2.779   2.788   2.798   2.811
  2.816   2.821   2.829   2.835   2.844   2.848   2.860   2.863
  2.870   2.884   2.886   2.897   2.902   2.910   2.917   2.930
  2.947   2.974   2.979   2.986   2.996   3.012   3.018   3.032
  3.034   3.043   3.076   3.092   3.143   3.228   3.282   3.329
  3.358   3.369   3.381   3.385   3.409   3.500   3.546   3.561
  3.590   3.678  13.193  13.246  13.263  13.324  13.355  13.404
 13.631  13.659  13.665  13.717  13.726  13.736  13.756  13.766
 13.777  13.799  13.814  13.823  13.892  13.911  13.923  14.025
 14.063  14.091  14.124  14.172  14.180  14.186  14.195  14.216
 14.224  14.243  14.250  14.258  14.266  14.277  14.319  14.399
 14.573  14.581  14.587  14.592  14.601  14.624  19.495  19.564
 19.623
 --------------------------------------------------------------
 
          Ground-State Mulliken Net Atomic Charges

     Atom                 Charge (a.u.)
  ----------------------------------------
      1 N                    -0.713134
      2 C                     0.309028
      3 C                    -0.280342
      4 H                     0.244258
      5 C                    -0.236377
      6 H                     0.214510
      7 C                    -0.217509
      8 H                     0.212174
      9 C                    -0.328697
     10 H                     0.213062
     11 C                     0.172509
     12 C                     0.315170
     13 C                    -0.293704
     14 H                     0.253997
     15 C                    -0.232807
     16 H                     0.213928
     17 C                    -0.219191
     18 H                     0.211321
     19 C                    -0.326290
     20 H                     0.213687
     21 C                     0.158189
     22 C                     0.229679
     23 C                    -0.290336
     24 H                     0.282620
     25 C                    -0.234860
     26 H                     0.234520
     27 C                    -0.298971
     28 H                     0.218724
     29 C                     0.234196
     30 C                     0.054960
     31 C                    -0.521144
     32 H                     0.248416
     33 H                     0.251749
     34 C                    -0.227858
     35 C                    -0.665952
     36 H                     0.228281
     37 H                     0.227968
     38 H                     0.238551
     39 C                    -0.541542
     40 H                     0.252181
     41 H                     0.257853
     42 C                     0.103600
     43 C                    -0.319009
     44 H                     0.246582
     45 C                     0.079307
     46 C                     0.092491
     47 C                    -0.299562
     48 H                     0.281648
     49 C                     0.215371
     50 C                    -0.007192
     51 N                    -0.153613
     52 C                    -0.009098
     53 N                    -0.154522
     54 C                    -0.437055
     55 C                     0.053676
     56 C                    -0.262684
     57 H                     0.223386
     58 C                    -0.230950
     59 H                     0.229194
     60 C                    -0.210427
     61 H                     0.230654
     62 C                    -0.327162
     63 H                     0.215588
     64 C                     0.158251
     65 C                     0.145889
     66 C                    -0.321201
     67 H                     0.214280
     68 C                    -0.213215
     69 H                     0.229447
     70 C                    -0.229077
     71 H                     0.227777
     72 C                    -0.271627
     73 H                     0.218496
     74 C                     0.141371
     75 C                    -0.597099
     76 H                     0.232299
     77 H                     0.221268
     78 H                     0.220100
  ----------------------------------------
  Sum of atomic charges =    -0.000000

 -----------------------------------------------------------------
                    Cartesian Multipole Moments
 -----------------------------------------------------------------
    Charge (ESU x 10^10)
                -0.0000
    Dipole Moment (Debye)
         X      -6.1970      Y       3.7298      Z       2.0341
       Tot       7.5135
    Quadrupole Moments (Debye-Ang)
        XX    -357.9991     XY      50.2463     YY    -273.5747
        XZ      46.2282     YZ     -21.2665     ZZ    -272.8327
    Octopole Moments (Debye-Ang^2)
       XXX   -3224.6942    XXY     866.8901    XYY    -862.4672
       YYY    1123.9465    XXZ     962.4321    XYZ    -266.3594
       YYZ     405.6000    XZZ    -936.9310    YZZ     437.8029
       ZZZ    1182.6454
    Hexadecapole Moments (Debye-Ang^3)
      XXXX  -43746.9611   XXXY    9821.9131   XXYY   -8777.3064
      XYYY    5765.6883   YYYY   -8801.7751   XXXZ   13491.6871
      XXYZ   -3211.2848   XYYZ    3238.5395   YYYZ   -2982.5282
      XXZZ  -10574.8308   XYZZ    2703.1327   YYZZ   -3883.6743
      XZZZ    8786.4554   YZZZ   -3101.8453   ZZZZ  -13693.3641
 -----------------------------------------------------------------
 Calculating analytic gradient of the CIS energy
 -1.298172847575436E-003 -1.298158386487766E-003
 -1.298158191890184E-003 -1.298173059141079E-003
 -1.298155331191772E-003 -1.298175907802094E-003
 -1.298204862496968E-003 -1.298126359466054E-003
 -1.298152044562064E-003 -1.298179241809080E-003
 -1.298158703014665E-003 -1.298172534011299E-003
 -1.298162026926034E-003 -1.298169203220382E-003
 -1.298165314489710E-003 -1.298165968341134E-003
 -1.298137339611473E-003 -1.298193886199088E-003
 -1.298175491257123E-003 -1.298155737967631E-003
 -1.298178317949089E-003 -1.298152942945514E-003
 -1.298159120956991E-003 -1.298172119463422E-003
 -1.298183010647215E-003 -1.298148202137264E-003
 -1.298160391468473E-003 -1.298170890961805E-003
 -1.298159620227638E-003 -1.298171635237934E-003
 -1.298166208344853E-003 -1.298165025872592E-003
 -1.298163591008606E-003 -1.298167654416256E-003
 -1.298139283026957E-003 -1.298191955602870E-003
 -1.298147260845973E-003 -1.298183992290386E-003
 -1.298154691007583E-003 -1.298176601845810E-003
 -1.298129826155116E-003 -1.298201403180212E-003
 -1.298168790751027E-003 -1.298162462089508E-003
 -1.298155629317795E-003 -1.298175645191856E-003
 -1.298159671420421E-003 -1.298171585144831E-003
 -1.298195926615450E-003 -1.298135292143863E-003
 -1.298150809893429E-003 -1.298180488939275E-003
 -1.298161441570020E-003 -1.298169811299027E-003
 -1.298151487706408E-003 -1.298179738903362E-003
 -1.298153173406823E-003 -1.298178104924529E-003
 -1.298157570029740E-003 -1.298173691716425E-003
 -1.298158241245883E-003 -1.298173012023325E-003
 -1.298149854692105E-003 -1.298181442878735E-003
 -1.298166680464923E-003 -1.298164546578068E-003
 -1.298199243814650E-003 -1.298131989086882E-003
 -1.298155567540942E-003 -1.298175697410408E-003
 -1.298142977306073E-003 -1.298188266918405E-003
 -1.298177692629354E-003 -1.298153553510144E-003
 -1.298184531418517E-003 -1.298146735594768E-003
 -1.298174246921760E-003 -1.298156992026106E-003
 -1.298174559239910E-003 -1.298156687055536E-003
 -1.298188289645721E-003 -1.298142973142318E-003
 -1.298154124509543E-003 -1.298177112693430E-003
 -1.298186330339268E-003 -1.298144909027303E-003
 -1.298169022376004E-003 -1.298162247176084E-003
 -1.298154135318230E-003 -1.298177108242158E-003
 -1.298183709676246E-003 -1.298147505648675E-003
 -1.298176844608989E-003 -1.298154403376519E-003
 -1.298174731280917E-003 -1.298156516420102E-003
 -1.298183355885281E-003 -1.298147916980639E-003
 -1.298174422272150E-003 -1.298156839862927E-003
 -1.298198008780669E-003 -1.298133235457121E-003
 -1.298176185656233E-003 -1.298155093188889E-003
 -1.298156609058887E-003 -1.298174639607198E-003
 -1.298169964273353E-003 -1.298161288883606E-003
 -1.298196818207466E-003 -1.298134444725000E-003
 -1.298151118877840E-003 -1.298180166356938E-003
 -1.298152533838102E-003 -1.298178712083383E-003
 -1.298165514591983E-003 -1.298165749946978E-003
 -1.298158189341660E-003 -1.298173084475557E-003
 -1.298185437536006E-003 -1.298145809546582E-003
 -1.298164163172154E-003 -1.298167108828184E-003
 -1.298149720241643E-003 -1.298181551073612E-003
 -1.298169791208112E-003 -1.298161449930776E-003
 -1.298161237188521E-003 -1.298170015607573E-003
 -1.298181563582452E-003 -1.298149657582908E-003
 -1.298160795430244E-003 -1.298170468608898E-003
 -1.298158186889992E-003 -1.298173052290542E-003
 -1.298149958027171E-003 -1.298181274394304E-003
 -1.298173712231627E-003 -1.298157541560688E-003
 -1.298161558393690E-003 -1.298169661658635E-003
 -1.298152544838928E-003 -1.298178664636827E-003
 -1.298172874712704E-003 -1.298158353141071E-003
 -1.298157954453919E-003 -1.298173288231530E-003
 -1.298147130286219E-003 -1.298184099370009E-003
 -1.298168203454127E-003 -1.298163074176735E-003
 -1.298157614736577E-003 -1.298173633482603E-003
 -1.298158308891881E-003 -1.298172931174661E-003
 -1.298166695075086E-003 -1.298164569786236E-003
 -1.298157989182680E-003 -1.298173274741541E-003
 -1.298154823624804E-003 -1.298176406035738E-003
 -1.298174290414245E-003 -1.298156991741953E-003
 -1.298158945498601E-003 -1.298172300186303E-003
 -1.298145612203603E-003 -1.298185635639056E-003
 -1.298171165171318E-003 -1.298160087677608E-003
 -1.298169224425015E-003 -1.298162039064975E-003
 -1.298165845897295E-003 -1.298165386301844E-003
 -1.298172304979162E-003 -1.298158964467479E-003
 -1.298155563182778E-003 -1.298175696219592E-003
 -1.298151144370381E-003 -1.298180090378937E-003
 -1.298183076371517E-003 -1.298148196398306E-003
 -1.298183925790248E-003 -1.298147323645469E-003
 -1.298163818969916E-003 -1.298167407761461E-003
 -1.298160262895628E-003 -1.298170979190034E-003
 -1.298161347287154E-003 -1.298169881396074E-003
 -1.298140974213299E-003 -1.298190284010058E-003
 -1.298170938599667E-003 -1.298160302840111E-003
 -1.298169925942840E-003 -1.298161298492771E-003
 -1.298150349426128E-003 -1.298180874956002E-003
 -1.298186229945377E-003 -1.298144990428599E-003
 -1.298175679123639E-003 -1.298155564311161E-003
 -1.298175112997899E-003 -1.298156156330578E-003
 -1.298161661337606E-003 -1.298169569197106E-003
 -1.298152906180261E-003 -1.298178331778715E-003
 -1.298145518212612E-003 -1.298185747259737E-003
 -1.298175777148817E-003 -1.298155419628040E-003
 -1.298180397888452E-003 -1.298150849336632E-003
 -1.298165040116955E-003 -1.298166200554955E-003
 -1.298155651892144E-003 -1.298175554570157E-003
 -1.298182535038694E-003 -1.298148692815871E-003
 -1.298167525442094E-003 -1.298163712616211E-003
 -1.298161299406177E-003 -1.298169930791461E-003
 -1.298178407664060E-003 -1.298152799523545E-003
 -1.298160626156416E-003 -1.298170602938469E-003
 -1.298160661314079E-003 -1.298170552044530E-003
 -1.298148296617355E-003 -1.298182980639656E-003
 -1.298150923811185E-003 -1.298180302622746E-003
 -1.298175559324970E-003 -1.298155668962261E-003
 -1.298154488324820E-003 -1.298176775079968E-003
 -1.298157534548626E-003 -1.298173704108420E-003
 -1.298169709711696E-003 -1.298161547194638E-003
 -1.298149874426576E-003 -1.298181360096952E-003
 -1.298150360937879E-003 -1.298180873194125E-003
 -1.298156395558231E-003 -1.298174802441945E-003
 -1.298133612871887E-003 -1.298197634269576E-003
 -1.298176296764629E-003 -1.298154952462828E-003
 -1.298175012722860E-003 -1.298156252246899E-003
 -1.298174460581644E-003 -1.298156811682162E-003
 -1.298158133479016E-003 -1.298173097515131E-003
 -1.298157210151082E-003 -1.298174063046998E-003
 -1.298146953987621E-003 -1.298184298399277E-003
 -1.298163077241065E-003 -1.298168152183788E-003
 -1.298170900489550E-003 -1.298160354228229E-003
 -1.298131900319809E-003 -1.298199346173374E-003
 -1.298162991561887E-003 -1.298168263298060E-003
 -1.298189208882184E-003 -1.298142047895904E-003
 -1.298171835546101E-003 -1.298159427846516E-003
 -1.298167795899852E-003 -1.298163435804822E-003
 -1.298156974589704E-003 -1.298174279252562E-003
 -1.298143564454323E-003 -1.298187673683853E-003
 -1.298151097504925E-003 -1.298180148087546E-003
 -1.298197607488186E-003 -1.298133643127600E-003
 -1.298160862332467E-003 -1.298170346352048E-003
 -1.298170693173421E-003 -1.298160526838683E-003
 -1.298162866259073E-003 -1.298168358089757E-003
 -1.298165162700793E-003 -1.298166113602868E-003
 -1.298166204243040E-003 -1.298165030143163E-003
 -1.298168687017344E-003 -1.298162585506288E-003
 -1.298147030485596E-003 -1.298184265209981E-003
 -1.298162572576769E-003 -1.298168753410388E-003
 -1.298179766753036E-003 -1.298151538097195E-003
 -1.298178822588888E-003 -1.298152453916349E-003
 -1.298164341184697E-003 -1.298166956609055E-003
 -1.298150180136033E-003 -1.298181100964602E-003
 -1.298155583985773E-003 -1.298175715331038E-003
 -1.298178089816951E-003 -1.298153135406148E-003
 -1.298160128676125E-003 -1.298171138034176E-003
 -1.298135003699674E-003 -1.298196284212528E-003
 -1.298153740194007E-003 -1.298177489166262E-003
 -1.298190199147190E-003 -1.298141055181074E-003
 -1.298148250869183E-003 -1.298182975843910E-003
 -1.298146071567527E-003 -1.298185162085466E-003
 -1.298181742831683E-003 -1.298149513236670E-003
 -1.298160257345617E-003 -1.298170958275347E-003
 -1.298161482056057E-003 -1.298169744359720E-003
 -1.298172316701286E-003 -1.298158892705099E-003
 -1.298165925867137E-003 -1.298165288103095E-003
 -1.298179332495595E-003 -1.298151877795852E-003
 -1.298156406048890E-003 -1.298174801472474E-003
 -1.298152340962974E-003 -1.298178875728419E-003
 -1.298175744795523E-003 -1.298155455118582E-003
 -1.298155944183316E-003 -1.298175273473677E-003
 -1.298147109852742E-003 -1.298184107907474E-003
 -1.298164179459365E-003 -1.298167045647746E-003
 -1.298142818522464E-003 -1.298188423076483E-003
 -1.298147563560034E-003 -1.298183683992638E-003
 -1.298183047256788E-003 -1.298148180967885E-003
 -1.298143551291412E-003 -1.298187687952977E-003
 -1.298151400642307E-003 -1.298179837448474E-003
 -1.298196506607602E-003 -1.298134725424341E-003
 -1.298134716483639E-003 -1.298196511585141E-003
 -1.298146504230339E-003 -1.298184748730305E-003
 -1.298182523154125E-003 -1.298148740767949E-003
 -1.298152993321074E-003 -1.298178262777617E-003
 -1.298153235657961E-003 -1.298177969234073E-003
 -1.298182918796857E-003 -1.298148302011458E-003
 -1.298160031569744E-003 -1.298171201829345E-003
 -1.298150803047862E-003 -1.298180410134048E-003
 -1.298196183213439E-003 -1.298135048074399E-003
 -1.298150798491446E-003 -1.298180433824083E-003
 -1.298152950825489E-003 -1.298178255679872E-003
 -1.298169074532739E-003 -1.298162136779865E-003
 -1.298155859171417E-003 -1.298175349429385E-003
 -1.298168674476439E-003 -1.298162516870272E-003
 -1.298168989622534E-003 -1.298162223888469E-003
 -1.298175647798758E-003 -1.298155580395084E-003
 -1.298168448458815E-003 -1.298162761296309E-003
 -1.298182072260726E-003 -1.298149160103320E-003
 -1.298171194394150E-003 -1.298160021671511E-003
 -1.298169650599544E-003 -1.298161577345505E-003
 -1.298201100822469E-003 -1.298130136076987E-003
 -1.298177913014351E-003 -1.298153306685264E-003
 -1.298192737511655E-003 -1.298138472984303E-003
 -1.298198461593906E-003 -1.298132770674962E-003
 -1.298185718737366E-003 -1.298145536206225E-003
 -1.298169466467131E-003 -1.298161782050638E-003
 -1.298185112346264E-003 -1.298146155992078E-003
 -1.298183702124424E-003 -1.298147558206352E-003
 -1.298181619246949E-003 -1.298149592966918E-003
 -1.298169402036234E-003 -1.298161834971481E-003
 -1.298187027808956E-003 -1.298144196297645E-003
 -1.298178472366614E-003 -1.298152756033011E-003
 -1.298188414111720E-003 -1.298142820475946E-003
 -1.298189820766250E-003 -1.298141430061137E-003
 -1.298172188269900E-003 -1.298159002522318E-003
 -1.298174533234733E-003 -1.298156673213405E-003
 -1.298162779776392E-003 -1.298168450483533E-003
 -1.298161613646739E-003 -1.298169598779828E-003
 -1.298174608076140E-003 -1.298156595965957E-003
 -1.298180129894373E-003 -1.298151082483025E-003
 -1.298162445746664E-003 -1.298168748335323E-003
 -1.298153773032483E-003 -1.298177445836052E-003
 -1.298164982484883E-003 -1.298166254942630E-003
 -1.298160204732676E-003 -1.298171062696400E-003
 -1.298169131193977E-003 -1.298162094898375E-003
 -1.298160921608390E-003 -1.298170284019340E-003
 -1.298168120773769E-003 -1.298163121529629E-003
 -1.298183853320341E-003 -1.298147341459049E-003
 -1.298157642111058E-003 -1.298173599128205E-003
 -1.298186097094781E-003 -1.298145153485548E-003
 -1.298156018312383E-003 -1.298175208067702E-003
 -1.298153770144022E-003 -1.298177439952098E-003
 -1.298187696113058E-003 -1.298143539913993E-003
 -1.298159917685014E-003 -1.298171314097222E-003
 -1.298163444293517E-003 -1.298167778666428E-003
 CIS relaxed dipole moment
            1
    1 -13.6320505
    2   4.2652794
    3   7.3059368
	Magnitude:	16.044 au	40.779 Debye
 CIS 1 State Energy is -1855.3891422424
 Gradient of the state energy (including CIS Excitation Energy)
            1           2           3           4           5           6
    1   0.0145292   0.0024327  -0.0128964   0.0008922  -0.0075025   0.0009335
    2   0.0229093  -0.0063622  -0.0034457   0.0008091   0.0005968   0.0005893
    3  -0.0129261   0.0159398  -0.0073027   0.0000590   0.0076242   0.0012600
            7           8           9          10          11          12
    1   0.0003877   0.0000505   0.0078300  -0.0007778   0.0109052  -0.0112482
    2  -0.0002044   0.0004603  -0.0017477   0.0000349  -0.0006926  -0.0131123
    3   0.0001161   0.0007363   0.0070004   0.0005716  -0.0078809  -0.0102906
           13          14          15          16          17          18
    1  -0.0016103   0.0003002  -0.0104223  -0.0007016  -0.0000049  -0.0006291
    2   0.0026209   0.0003340  -0.0013627  -0.0002871  -0.0001395  -0.0000451
    3   0.0146150  -0.0003179   0.0019376  -0.0015739   0.0000159  -0.0004445
           19          20          21          22          23          24
    1  -0.0001665  -0.0007137   0.0124674  -0.0194913   0.0054792  -0.0013555
    2  -0.0069376  -0.0003194   0.0006389  -0.0042576   0.0009428   0.0020095
    3  -0.0091543   0.0003325  -0.0065707   0.0107206  -0.0011333   0.0007354
           25          26          27          28          29          30
    1   0.0049937  -0.0000498   0.0028052   0.0010238  -0.0010958  -0.0016642
    2  -0.0030491  -0.0012165   0.0011568   0.0007904   0.0042667  -0.0013844
    3  -0.0044803   0.0005233  -0.0011611  -0.0003717  -0.0017801   0.0010463
           31          32          33          34          35          36
    1   0.0005930   0.0008816   0.0012374   0.0011290   0.0010118  -0.0004552
    2  -0.0020926  -0.0011264   0.0018206   0.0079102   0.0012956  -0.0001320
    3   0.0023715  -0.0013127   0.0002135  -0.0017773  -0.0005978  -0.0001632
           37          38          39          40          41          42
    1   0.0003891   0.0002402  -0.0038061   0.0004194   0.0037353  -0.0171252
    2   0.0001979  -0.0000711   0.0058085  -0.0004721  -0.0013670  -0.0176475
    3   0.0007359   0.0000379  -0.0034155  -0.0009778   0.0008638   0.0332883
           43          44          45          46          47          48
    1   0.0240935  -0.0000827  -0.0353898  -0.0026881   0.0047777  -0.0008372
    2  -0.0106062  -0.0005840  -0.0113155   0.0358526  -0.0063642   0.0010558
    3  -0.0095557  -0.0002220   0.0373357  -0.0262048   0.0000109   0.0004079
           49          50          51          52          53          54
    1   0.0001449   0.0342947  -0.0205160   0.0203109  -0.0112533  -0.0047493
    2   0.0161546  -0.0036560   0.0010586  -0.0225017   0.0152627   0.0066902
    3  -0.0290355  -0.0227366   0.0149785   0.0015230  -0.0029797   0.0088136
           55          56          57          58          59          60
    1   0.0020912   0.0020285  -0.0008841   0.0009325  -0.0007360   0.0006044
    2  -0.0060217   0.0002572   0.0008872  -0.0004543   0.0004263   0.0005908
    3   0.0014040  -0.0008027   0.0012993  -0.0000614   0.0000155  -0.0004469
           61          62          63          64          65          66
    1  -0.0004135   0.0004741  -0.0003330   0.0012216   0.0015400  -0.0014069
    2   0.0004687   0.0001004   0.0006797  -0.0004789   0.0026918  -0.0004663
    3  -0.0000563  -0.0006284   0.0002660  -0.0003258   0.0002547  -0.0012980
           67          68          69          70          71          72
    1  -0.0001962   0.0027411  -0.0002478  -0.0006509  -0.0003016   0.0041145
    2   0.0009602   0.0023489   0.0006718  -0.0009651   0.0004110   0.0001938
    3   0.0000703   0.0010413   0.0002811  -0.0006045   0.0007441   0.0031445
           73          74          75          76          77          78
    1  -0.0010991  -0.0001236  -0.0006425   0.0006820  -0.0005542   0.0001034
    2   0.0003655  -0.0098270  -0.0029917  -0.0008774   0.0009587   0.0013040
    3   0.0003156  -0.0062144   0.0019215   0.0002584  -0.0007012   0.0006758
 Gradient time:  CPU 2061.96 s  wall 823.10 s
 Geometry Optimization Parameters
   NAtoms,    NIC,     NZ,  NCons,   NDum,   NFix, NCnnct, MaxDiis
       78     630      78       0       0       0       0       0


** GEOMETRY OPTIMIZATION IN DELOCALIZED INTERNAL COORDINATES **
   Searching for a Minimum

   Optimization Cycle:   1

                       Coordinates (Angstroms)
     ATOM                X               Y               Z
      1  N         0.0000000000    0.0000000000    0.0000000000
      2  C         0.0000000000    0.0000000000    1.3985970000
      3  C         1.1916130225    0.0000000000    2.1212958594
      4  H         2.1442172964    0.0151363726    1.6094181373
      5  C         1.1622384054   -0.0347984997    3.5043823611
      6  H         2.0947019852   -0.0351302971    4.0535864350
      7  C        -0.0463425393   -0.0887650340    4.1768196448
      8  H        -0.0735580252   -0.1286430459    5.2573375617
      9  C        -1.2283883129   -0.0756045930    3.4517674654
     10  H        -2.1669156222   -0.0967676246    3.9885826380
     11  C        -1.2296047228   -0.0070705469    2.0662830075
     12  C        -1.0669429696   -0.6028541916   -0.6773034480
     13  C        -0.9205233037   -1.1633585179   -1.9449870274
     14  H         0.0234485340   -1.1125075966   -2.4685482217
     15  C        -1.9862184259   -1.8092750091   -2.5476598045
     16  H        -1.8492965274   -2.2467577538   -3.5279165930
     17  C        -3.2029254819   -1.9100540037   -1.8965310207
     18  H        -4.0334638729   -2.4289071858   -2.3557474315
     19  C        -3.3551921149   -1.3160675263   -0.6529411206
     20  H        -4.3190083958   -1.3719012701   -0.1660067866
     21  C        -2.3144486014   -0.6345422730   -0.0390781615
     22  C         1.1984701548    0.3271705296   -0.6777737948
     23  C         2.0696256612   -0.6572575208   -1.0954587789
     24  H         1.8033565626   -1.6823563612   -0.8745559611
     25  C         1.5217512476    1.6573145993   -0.9024883606
     26  H         0.8570246651    2.4442310200   -0.5707352567
     27  C         2.6954967072    1.9505719483   -1.5604917881
     28  H         2.9455784358    2.9869205742   -1.7533886918
     29  C         3.2534148854   -0.3797787165   -1.7830811605
     30  C         3.5680433697    0.9595991906   -2.0192887389
     31  C         4.7472311140    1.4157898909   -2.8255737379
     32  H         4.6306894965    2.4800121520   -3.0353021880
     33  H         5.6831034157    1.3219662165   -2.2670109680
     34  C        -2.4789068376    0.1817658776    1.2303833596
     35  C        -3.7478605005   -0.1761082523    1.9944145271
     36  H        -4.6339065185    0.0089102625    1.3874958473
     37  H        -3.8554060864    0.4490860831    2.8807802474
     38  H        -3.7587513312   -1.2203483188    2.3089197064
     39  C         4.8516934888    0.6474432980   -4.1398126846
     40  H         5.3398908444    1.2652018338   -4.8950635257
     41  H         3.8481482628    0.4425047226   -4.5217931335
     42  C         5.6470041689   -0.6076609811   -3.9546933680
     43  C         6.7869324524   -0.7512863844   -4.7392779905
     44  H         7.0081614718    0.0021487043   -5.4840725645
     45  C         7.6588866186   -1.8150331326   -4.5927530653
     46  C         7.3796844467   -2.7684171299   -3.6123673413
     47  C         6.2428143412   -2.6319767934   -2.8322704698
     48  H         6.0573693432   -3.3936477663   -2.0894275238
     49  C         5.3519714310   -1.5683456036   -2.9778024655
     50  C         8.8157462420   -1.9046577504   -5.4206229153
     51  N         9.7418737678   -1.9517247607   -6.1022518414
     52  C         8.2496178693   -3.8780188376   -3.4003908176
     53  N         8.9452513840   -4.7764624404   -3.2183928191
     54  C         4.0611920396   -1.6413404196   -2.1443105483
     55  C         4.3091259897   -2.4011347719   -0.8429315691
     56  C         5.0420624055   -1.9778510795    0.2466727488
     57  H         5.5270044531   -1.0092210065    0.2471445479
     58  C         5.1429130646   -2.8208630191    1.3455600377
     59  H         5.7134269770   -2.5107113826    2.2107281611
     60  C         4.5143279652   -4.0613398627    1.3432371782
     61  H         4.6020762535   -4.7056310560    2.2076126766
     62  C         3.7725650815   -4.4803061791    0.2485270634
     63  H         3.2812689011   -5.4447381649    0.2582873108
     64  C         3.6710847026   -3.6396202656   -0.8490923149
     65  C         2.9536475324   -3.7880096760   -2.1125890719
     66  C         2.1514201179   -4.8104208362   -2.5958360761
     67  H         1.9843041995   -5.7082056160   -2.0148536229
     68  C         1.5546736984   -4.6610457356   -3.8391880178
     69  H         0.9235352639   -5.4486122735   -4.2283482214
     70  C         1.7547415232   -3.5080427064   -4.5900706030
     71  H         1.2801836143   -3.4071675796   -5.5571202569
     72  C         2.5610674452   -2.4854091650   -4.1081073804
     73  H         2.7136591559   -1.5873424093   -4.6938587766
     74  C         3.1526631171   -2.6361845220   -2.8711753355
     75  C        -2.5695647189    1.6726041998    0.8367075115
     76  H        -1.6925258820    2.0029067101    0.2808994749
     77  H        -3.4453631140    1.8491401586    0.2097102738
     78  H        -2.6532124216    2.2964623806    1.7285723969
   Point Group: c1    Number of degrees of freedom:   228


   Energy is  -1855.389142242


 Attempting to Generate Delocalized Internal Coordinates

228 Hessian modes will be used to form the next step
  Hessian Eigenvalues:
     0.003279    0.005589    0.006026    0.009495    0.011560    0.012373
     0.012894    0.013637    0.013836    0.014978    0.015563    0.016197
     0.016261    0.017157    0.017425    0.017460    0.018498    0.018557
     0.019109    0.019429    0.020037    0.020660    0.020903    0.021211
     0.021854    0.022545    0.023387    0.023545    0.023704    0.023763
     0.023783    0.023799    0.023815    0.023832    0.023876    0.023886
     0.023893    0.023902    0.023904    0.023911    0.023988    0.024002
     0.024007    0.024041    0.024137    0.024145    0.024147    0.024166
     0.024177    0.024338    0.024364    0.024374    0.024378    0.024379
     0.024401    0.024530    0.024534    0.024552    0.024583    0.024629
     0.024868    0.037166    0.044616    0.051628    0.053583    0.054011
     0.054279    0.054880    0.055818    0.056369    0.057519    0.067750
     0.078029    0.085265    0.087682    0.092042    0.093142    0.113333
     0.117818    0.125063    0.125134    0.159950    0.159951    0.159953
     0.159973    0.159976    0.159983    0.159987    0.159989    0.159991
     0.159991    0.159995    0.159996    0.159997    0.159998    0.159998
     0.159999    0.159999    0.159999    0.160000    0.160000    0.160000
     0.160000    0.160000    0.160000    0.160000    0.160000    0.160000
     0.165167    0.175921    0.191155    0.200000    0.200000    0.200000
     0.200000    0.219852    0.219974    0.219981    0.219999    0.220000
     0.224515    0.224768    0.225847    0.226010    0.226333    0.229642
     0.230672    0.235071    0.235274    0.239725    0.241994    0.244912
     0.245003    0.245832    0.245920    0.246138    0.247475    0.249542
     0.249858    0.249921    0.249971    0.249999    0.273106    0.281150
     0.283666    0.284707    0.285762    0.290387    0.294265    0.297236
     0.300006    0.317186    0.319876    0.343640    0.344493    0.346269
     0.346430    0.346928    0.347049    0.347402    0.348138    0.348360
     0.348594    0.354172    0.355859    0.356054    0.356330    0.357055
     0.357116    0.357205    0.357297    0.357322    0.357362    0.357625
     0.357648    0.357830    0.357915    0.357963    0.358004    0.358022
     0.358103    0.358243    0.358402    0.359170    0.359972    0.382174
     0.394874    0.404940    0.415973    0.416595    0.421167    0.422325
     0.422606    0.425122    0.426105    0.428727    0.430452    0.431938
     0.434462    0.435677    0.435792    0.447713    0.454111    0.459078
     0.459333    0.461280    0.465365    0.466414    0.467305    0.471270
     0.473218    0.473529    0.475425    0.475546    0.476540    0.477943
     0.478170    0.480058    0.480095    0.480921    0.481752    0.482716
     0.482770    0.487226    0.487650    0.491798    1.339464    1.340419

 Minimum Search - Taking Simple RFO Step
 Searching for Lamda that Minimizes Along All modes
 Value Taken    Lamda =  -0.02014021
 Calculated Step too Large.  Step scaled by  0.737962
 Step Taken.  Stepsize is  0.300000

                             Maximum     Tolerance    Cnvgd?
         Gradient           0.019446      0.000300      NO
         Displacement       0.095400      0.001200      NO
         Energy change     *********      0.000001      NO


 New Cartesian Coordinates Obtained by Inverse Iteration

 Displacement from previous Coordinates is:  2.397885
 Adding empirical dispersion correction 
 ----------------------------------------------------------------
 Doing -D3(BJ) with
 s6 =   1.00000
 s8 =   0.00000
 a1 =   0.48600
 a2 =   4.50000
 -D3 energy including 3body term =     -0.0783310332 hartrees
 ----------------------------------------------------------------
 Adding gCP correction 
 ----------------------------------------------------------------
 gCP energy =      0.1095786981 hartrees
 ----------------------------------------------------------------
             Standard Nuclear Orientation (Angstroms)
    I     Atom           X                Y                Z
 ----------------------------------------------------------------
    1      N       0.0443340501     0.0332189553     0.0169142064
    2      C       0.0472919897     0.0816136129     1.4015909507
    3      C       1.2601697313     0.1660877882     2.0960182457
    4      H       2.1988998733     0.2156952311     1.5628238884
    5      C       1.2533286629     0.1456741510     3.4726429480
    6      H       2.1915774218     0.1968180373     4.0064438377
    7      C       0.0516238848     0.0350794185     4.1610740155
    8      H       0.0459685201     0.0031519655     5.2414435167
    9      C      -1.1515863910    -0.0298873929     3.4651646688
   10      H      -2.0742758907    -0.1020458180     4.0226279395
   11      C      -1.1823217103     0.0117532386     2.0853885846
   12      C      -0.9946467753    -0.5919274514    -0.6506783802
   13      C      -0.8008472277    -1.1304415587    -1.9289182753
   14      H       0.1434119551    -1.0260930333    -2.4430306970
   15      C      -1.8186881558    -1.8367897519    -2.5299309895
   16      H      -1.6516581745    -2.2679301336    -3.5066759835
   17      C      -3.0312267830    -2.0065973844    -1.8744871629
   18      H      -3.8252244743    -2.5755349147    -2.3373382394
   19      C      -3.2351877962    -1.4291022180    -0.6249425144
   20      H      -4.1961963465    -1.5468682396    -0.1453936552
   21      C      -2.2422781267    -0.6981931221    -0.0037287095
   22      C       1.2351068886     0.3745292982    -0.6825276463
   23      C       2.0852345032    -0.6191443897    -1.1102519666
   24      H       1.8203315798    -1.6456494049    -0.8870513133
   25      C       1.5462497978     1.7058946638    -0.9105511109
   26      H       0.8882237111     2.4979786699    -0.5753922811
   27      C       2.7139585780     1.9853135102    -1.5846682537
   28      H       2.9646217228     3.0192827312    -1.7833193750
   29      C       3.2615828511    -0.3506532173    -1.8070950519
   30      C       3.5829895563     0.9871821709    -2.0464171127
   31      C       4.7657873012     1.4262408658    -2.8569218294
   32      H       4.6562917005     2.4914362382    -3.0707441684
   33      H       5.6952824336     1.3243685730    -2.2913051677
   34      C      -2.4559902189     0.0901480985     1.2691788380
   35      C      -3.6856316580    -0.3728054619     2.0441906395
   36      H      -4.5871546042    -0.2608051894     1.4430560510
   37      H      -3.8404087972     0.2411468173     2.9305256643
   38      H      -3.6093735832    -1.4145577013     2.3576981552
   39      C       4.8806889499     0.6353739997    -4.1592688463
   40      H       5.3751137227     1.2464686432    -4.9149773196
   41      H       3.8731904095     0.4380512840    -4.5455002378
   42      C       5.6747509890    -0.6195486338    -3.9590369827
   43      C       6.8095632666    -0.7874979890    -4.7267819641
   44      H       7.0403943112    -0.0444088591    -5.4794434112
   45      C       7.6819691337    -1.8676305145    -4.5681506761
   46      C       7.3731889589    -2.8209644380    -3.5501859763
   47      C       6.2296028521    -2.6456319231    -2.7844180149
   48      H       6.0240883281    -3.3985911523    -2.0375283075
   49      C       5.3586338435    -1.5734874900    -2.9518736598
   50      C       8.8231160202    -1.9742697575    -5.3915173192
   51      N       9.7520900783    -2.0363213884    -6.0804040101
   52      C       8.1980035655    -3.9441945399    -3.2990862784
   53      N       8.8633656652    -4.8648861221    -3.0833359212
   54      C       4.0440646367    -1.6230319408    -2.1606301132
   55      C       4.2176862216    -2.3832476509    -0.8506436311
   56      C       4.9324947761    -1.9900375310     0.2610820930
   57      H       5.4669899049    -1.0483314492     0.2679406296
   58      C       4.9672397230    -2.8352918193     1.3632148055
   59      H       5.5333021677    -2.5520274617     2.2407740382
   60      C       4.2907249439    -4.0506037924     1.3443661864
   61      H       4.3345053596    -4.7006920566     2.2082022581
   62      C       3.5653729250    -4.4401266564     0.2283951399
   63      H       3.0418714785    -5.3880006602     0.2202401797
   64      C       3.5296868295    -3.5961272294    -0.8716319925
   65      C       2.8482036406    -3.7242869235    -2.1561850662
   66      C       2.0326489798    -4.7259361862    -2.6616643725
   67      H       1.8271885043    -5.6202944479    -2.0863263007
   68      C       1.4783670300    -4.5663344352    -3.9243436748
   69      H       0.8448251967    -5.3415435682    -4.3350685843
   70      C       1.7366120402    -3.4189712943    -4.6685641549
   71      H       1.3043168204    -3.3121598959    -5.6551639552
   72      C       2.5552258416    -2.4157604956    -4.1636911465
   73      H       2.7627601372    -1.5311953540    -4.7531409684
   74      C       3.1098890237    -2.5773543602    -2.9071018175
   75      C      -2.6765461523     1.5686308501     0.8701190736
   76      H      -1.8431284542     1.9773294638     0.2998451041
   77      H      -3.5737390164     1.6606906397     0.2572827659
   78      H      -2.8042243852     2.1822587626     1.7621699810
 ----------------------------------------------------------------
 Nuclear Repulsion Energy =  5570.4753545993 hartrees
 There are      158 alpha and      158 beta electrons
 Nucleus-field energy     =     0.0000000058 hartrees
 Requested basis set is def2-mSVP
 There are 391 shells and 767 basis functions
 A cutoff of  1.0D-11 yielded  35518 shell pairs
 There are    142558 function pairs (    157317 Cartesian)
 Smallest overlap matrix eigenvalue = 2.60E-04
 Guess MOs from SCF MO coefficient file
 Reading MOs from coefficient file
 Reading MOs from coefficient file
 A restricted hybrid HF-DFT SCF calculation will be
 performed using Pulay DIIS extrapolation
 Exchange:     0.4200 Hartree-Fock + 0.5800 PBEh-3c
 Correlation:  1.0000 PBEh-3c
 Using SG-1 standard quadrature grid
 Dispersion:   Grimme D3
 SCF converges when DIIS error is below 1.0E-08
 Geometry optimization detected.  Setting ReadMinima to 0
 Setting SaveMinima to 0
 using 8 threads for integral computing
 -------------------------------------------------------
 OpenMP Integral computing Module                
 Release: version 1.0, May 2013, Q-Chem Inc. Pittsburgh 
 -------------------------------------------------------
 ---------------------------------------
  Cycle       Energy         DIIS Error
 ---------------------------------------
    1   -1855.4316976648      1.03E-03
    2   -1855.5242180610      1.38E-04
    3   -1855.5243346819      1.61E-04
    4   -1855.5262628516      4.45E-05
    5   -1855.5263994261      1.88E-05
    6   -1855.5264250394      7.29E-06
    7   -1855.5264291344      2.05E-06
    8   -1855.5264294499      7.82E-07
    9   -1855.5264294969      3.46E-07
   10   -1855.5264295078      1.14E-07
   11   -1855.5264295052      3.01E-08
   12   -1855.5264294828      1.70E-08
   13   -1855.5264294489      6.66E-09 Convergence criterion met
 ---------------------------------------
 SCF time:  CPU 1927.08 s  wall 517.49 s
 SCF   energy in the final basis set = -1855.52642945
 Total energy in the final basis set = -1855.52642945
 
 Direct TDDFT/TDA calculation will be performed
 Exchange:     0.4200 Hartree-Fock + 0.5800 PBEh-3c
 Correlation:  1.0000 PBEh-3c
 Using SG-1 standard quadrature grid
 Dispersion:   Grimme D3
 Singlet excitation energies requested
 CIS energy converged when residual is below 10e- 6
 ---------------------------------------------------
 Iter    Rts Conv    Rts Left    Ttl Dev     Max Dev
 ---------------------------------------------------
   1         0           2      0.000035    0.000020
   2         0           2      0.000030    0.000023
   3         0           2      0.000014    0.000010
   4         0           2      0.000007    0.000005
   5         1           1      0.000003    0.000002
   6         1           1      0.000003    0.000002
   7         1           1      0.000003    0.000002
   8         1           1      0.000002    0.000001
   9         2           0      0.000002    0.000001    Roots Converged
 ---------------------------------------------------
 
 ---------------------------------------------------
         TDDFT/TDA Excitation Energies              
 ---------------------------------------------------

 Excited state   1: excitation energy (eV) =    3.4903
 Total energy for state  1:                 -1855.39816376 au
    Multiplicity: Singlet
    Trans. Mom.:  0.0486 X  -0.0158 Y  -0.0218 Z
    Strength   :     0.0002639515
    D(158) --> V(  1) amplitude =  0.9969

 Excited state   2: excitation energy (eV) =    4.0855
 Total energy for state  2:                 -1855.37629097 au
    Multiplicity: Singlet
    Trans. Mom.:  0.0353 X  -0.0030 Y  -0.0331 Z
    Strength   :     0.0002351918
    D(158) --> V(  2) amplitude =  0.9503
    D(158) --> V(  3) amplitude = -0.2665
 
 ---------------------------------------------------
 Calculating Relaxed Density
 ---------------------------------------------------
 Iter    Rts Conv    Rts Left    Ttl Dev     Max Dev
 ---------------------------------------------------
   1         0           2      0.000622    0.000345
   2         0           2      0.000190    0.000103
   3         0           2      0.000065    0.000034
   4         0           2      0.000026    0.000015
   5         0           2      0.000010    0.000005
   6         0           2      0.000003    0.000002
   7         2           0      0.000000    0.000000    Roots Converged
 ---------------------------------------------------
  SETman timing summary (seconds)
  CPU time              5722.96s
  System time              0.01s
  Wall time              828.91s
 
 --------------------------------------------------------------
 
                    Orbital Energies (a.u.)
 --------------------------------------------------------------
 
 Alpha MOs
 -- Occupied --
-14.678 -14.660 -14.657 -10.526 -10.524 -10.513 -10.511 -10.503
-10.503 -10.500 -10.498 -10.495 -10.492 -10.490 -10.490 -10.487
-10.480 -10.479 -10.476 -10.476 -10.474 -10.474 -10.469 -10.469
-10.469 -10.468 -10.467 -10.467 -10.466 -10.465 -10.465 -10.465
-10.465 -10.464 -10.461 -10.451 -10.450 -10.443 -10.443 -10.442
-10.441 -10.440 -10.438 -10.437 -10.435 -10.431 -10.426  -1.096
 -1.041  -1.030  -1.019  -1.002  -0.988  -0.969  -0.960  -0.956
 -0.937  -0.935  -0.910  -0.900  -0.891  -0.885  -0.859  -0.857
 -0.848  -0.846  -0.834  -0.826  -0.820  -0.808  -0.795  -0.774
 -0.772  -0.747  -0.731  -0.726  -0.714  -0.711  -0.703  -0.692
 -0.682  -0.679  -0.673  -0.670  -0.666  -0.646  -0.618  -0.614
 -0.613  -0.611  -0.599  -0.585  -0.582  -0.573  -0.567  -0.562
 -0.540  -0.539  -0.536  -0.532  -0.531  -0.526  -0.524  -0.520
 -0.517  -0.511  -0.508  -0.505  -0.502  -0.501  -0.498  -0.493
 -0.491  -0.489  -0.487  -0.484  -0.473  -0.469  -0.460  -0.451
 -0.448  -0.444  -0.440  -0.440  -0.438  -0.437  -0.435  -0.431
 -0.429  -0.428  -0.426  -0.421  -0.420  -0.417  -0.414  -0.414
 -0.411  -0.404  -0.401  -0.398  -0.396  -0.396  -0.393  -0.378
 -0.373  -0.363  -0.350  -0.338  -0.324  -0.313  -0.306  -0.304
 -0.298  -0.291  -0.288  -0.280  -0.271  -0.225
 -- Virtual --
 -0.071  -0.041  -0.028  -0.015  -0.010  -0.006   0.015   0.017
  0.018   0.035   0.047   0.048   0.050   0.062   0.080   0.110
  0.112   0.119   0.128   0.132   0.133   0.138   0.146   0.151
  0.154   0.157   0.159   0.163   0.166   0.176   0.179   0.182
  0.188   0.192   0.193   0.195   0.198   0.199   0.202   0.206
  0.211   0.216   0.218   0.222   0.224   0.226   0.229   0.232
  0.235   0.237   0.239   0.241   0.243   0.247   0.252   0.254
  0.256   0.258   0.260   0.261   0.269   0.270   0.277   0.279
  0.286   0.289   0.293   0.296   0.299   0.301   0.305   0.312
  0.313   0.318   0.327   0.333   0.336   0.345   0.350   0.357
  0.363   0.366   0.372   0.377   0.381   0.385   0.390   0.398
  0.400   0.414   0.416   0.420   0.426   0.438   0.448   0.456
  0.460   0.466   0.469   0.475   0.478   0.480   0.487   0.494
  0.500   0.502   0.505   0.512   0.514   0.520   0.521   0.526
  0.527   0.530   0.533   0.536   0.541   0.543   0.546   0.550
  0.552   0.552   0.559   0.563   0.565   0.567   0.568   0.571
  0.575   0.577   0.585   0.586   0.587   0.591   0.594   0.596
  0.597   0.605   0.606   0.608   0.613   0.613   0.616   0.618
  0.622   0.626   0.627   0.629   0.632   0.635   0.640   0.642
  0.643   0.648   0.649   0.652   0.654   0.658   0.663   0.666
  0.670   0.673   0.675   0.680   0.686   0.688   0.690   0.693
  0.698   0.701   0.705   0.707   0.715   0.715   0.717   0.721
  0.726   0.729   0.732   0.736   0.741   0.745   0.746   0.750
  0.757   0.761   0.765   0.772   0.778   0.781   0.787   0.794
  0.803   0.806   0.814   0.822   0.823   0.826   0.837   0.842
  0.847   0.861   0.866   0.868   0.884   0.887   0.890   0.902
  0.905   0.915   0.916   0.925   0.929   0.934   0.937   0.938
  0.941   0.946   0.951   0.953   0.959   0.962   0.966   0.970
  0.972   0.974   0.980   0.981   0.985   0.988   0.995   0.998
  1.001   1.004   1.005   1.011   1.018   1.019   1.022   1.024
  1.029   1.037   1.039   1.042   1.047   1.048   1.050   1.055
  1.057   1.061   1.065   1.067   1.074   1.080   1.085   1.086
  1.093   1.094   1.097   1.103   1.108   1.110   1.117   1.121
  1.123   1.125   1.131   1.134   1.145   1.150   1.152   1.157
  1.161   1.168   1.169   1.179   1.184   1.193   1.200   1.205
  1.216   1.218   1.228   1.237   1.238   1.246   1.251   1.256
  1.264   1.267   1.279   1.291   1.293   1.296   1.297   1.307
  1.308   1.312   1.318   1.325   1.330   1.335   1.339   1.346
  1.355   1.363   1.367   1.372   1.377   1.385   1.396   1.404
  1.407   1.414   1.421   1.431   1.444   1.446   1.462   1.474
  1.493   1.493   1.502   1.504   1.513   1.516   1.518   1.524
  1.526   1.535   1.538   1.543   1.544   1.549   1.553   1.556
  1.563   1.567   1.568   1.573   1.579   1.582   1.589   1.593
  1.600   1.601   1.609   1.614   1.623   1.633   1.641   1.648
  1.664   1.666   1.682   1.688   1.698   1.708   1.720   1.725
  1.735   1.736   1.757   1.765   1.772   1.772   1.783   1.787
  1.801   1.806   1.816   1.824   1.826   1.835   1.839   1.842
  1.849   1.854   1.856   1.866   1.869   1.873   1.879   1.888
  1.893   1.900   1.903   1.924   1.927   1.930   1.939   1.943
  1.948   1.959   1.965   1.968   1.974   1.986   1.990   1.997
  1.999   2.004   2.005   2.019   2.020   2.025   2.034   2.036
  2.041   2.051   2.051   2.055   2.059   2.072   2.076   2.082
  2.087   2.097   2.105   2.112   2.131   2.136   2.140   2.143
  2.146   2.154   2.160   2.163   2.165   2.167   2.170   2.183
  2.186   2.194   2.203   2.207   2.216   2.221   2.222   2.232
  2.235   2.244   2.248   2.258   2.259   2.266   2.269   2.272
  2.280   2.287   2.290   2.296   2.304   2.308   2.310   2.315
  2.317   2.329   2.333   2.339   2.352   2.353   2.358   2.360
  2.366   2.370   2.376   2.381   2.389   2.391   2.393   2.400
  2.408   2.424   2.434   2.438   2.454   2.457   2.474   2.485
  2.495   2.508   2.516   2.529   2.533   2.545   2.553   2.577
  2.589   2.596   2.598   2.600   2.618   2.629   2.635   2.650
  2.659   2.673   2.686   2.687   2.690   2.701   2.711   2.712
  2.714   2.725   2.730   2.733   2.740   2.743   2.753   2.755
  2.763   2.767   2.771   2.774   2.778   2.788   2.798   2.813
  2.816   2.822   2.830   2.835   2.842   2.846   2.857   2.861
  2.868   2.884   2.887   2.897   2.902   2.914   2.920   2.931
  2.944   2.972   2.979   2.985   2.991   3.012   3.014   3.030
  3.040   3.042   3.073   3.089   3.143   3.225   3.286   3.313
  3.368   3.372   3.376   3.380   3.406   3.500   3.550   3.562
  3.587   3.654  13.196  13.250  13.263  13.328  13.364  13.406
 13.627  13.661  13.670  13.706  13.722  13.731  13.760  13.766
 13.776  13.798  13.814  13.829  13.889  13.910  13.923  14.005
 14.059  14.101  14.126  14.170  14.181  14.190  14.198  14.212
 14.226  14.245  14.258  14.263  14.266  14.277  14.314  14.398
 14.557  14.570  14.581  14.589  14.600  14.619  19.488  19.552
 19.627
 --------------------------------------------------------------
 
          Ground-State Mulliken Net Atomic Charges

     Atom                 Charge (a.u.)
  ----------------------------------------
      1 N                    -0.700081
      2 C                     0.306797
      3 C                    -0.281048
      4 H                     0.245815
      5 C                    -0.233732
      6 H                     0.213988
      7 C                    -0.223348
      8 H                     0.210348
      9 C                    -0.327817
     10 H                     0.212632
     11 C                     0.172191
     12 C                     0.311808
     13 C                    -0.300378
     14 H                     0.262040
     15 C                    -0.230131
     16 H                     0.214029
     17 C                    -0.225919
     18 H                     0.208765
     19 C                    -0.324878
     20 H                     0.212794
     21 C                     0.160620
     22 C                     0.207968
     23 C                    -0.281832
     24 H                     0.293663
     25 C                    -0.227770
     26 H                     0.235707
     27 C                    -0.303967
     28 H                     0.218316
     29 C                     0.242187
     30 C                     0.050206
     31 C                    -0.518913
     32 H                     0.248181
     33 H                     0.251562
     34 C                    -0.230165
     35 C                    -0.663397
     36 H                     0.227877
     37 H                     0.227875
     38 H                     0.239545
     39 C                    -0.542667
     40 H                     0.252523
     41 H                     0.257679
     42 C                     0.118838
     43 C                    -0.314813
     44 H                     0.246467
     45 C                     0.071365
     46 C                     0.086853
     47 C                    -0.293082
     48 H                     0.281551
     49 C                     0.198014
     50 C                    -0.005755
     51 N                    -0.157800
     52 C                    -0.006525
     53 N                    -0.157459
     54 C                    -0.432842
     55 C                     0.047251
     56 C                    -0.261807
     57 H                     0.223119
     58 C                    -0.230169
     59 H                     0.229094
     60 C                    -0.209688
     61 H                     0.230874
     62 C                    -0.326877
     63 H                     0.215595
     64 C                     0.156470
     65 C                     0.143480
     66 C                    -0.320021
     67 H                     0.214316
     68 C                    -0.213731
     69 H                     0.230134
     70 C                    -0.228693
     71 H                     0.228079
     72 C                    -0.274331
     73 H                     0.218225
     74 C                     0.147508
     75 C                    -0.593757
     76 H                     0.230359
     77 H                     0.220993
     78 H                     0.219692
  ----------------------------------------
  Sum of atomic charges =    -0.000000

 -----------------------------------------------------------------
                    Cartesian Multipole Moments
 -----------------------------------------------------------------
    Charge (ESU x 10^10)
                -0.0000
    Dipole Moment (Debye)
         X      -5.9651      Y       3.7553      Z       1.8013
       Tot       7.2752
    Quadrupole Moments (Debye-Ang)
        XX    -356.1740     XY      51.6973     YY    -274.6184
        XZ      43.2767     YZ     -21.2963     ZZ    -271.8962
    Octopole Moments (Debye-Ang^2)
       XXX   -3193.7601    XXY     869.6689    XYY    -874.6071
       YYY    1130.3616    XXZ     939.6300    XYZ    -260.6792
       YYZ     404.5889    XZZ    -922.6868    YZZ     434.4611
       ZZZ    1168.8473
    Hexadecapole Moments (Debye-Ang^3)
      XXXX  -43002.9102   XXXY    9735.9722   XXYY   -8762.0833
      XYYY    5771.8171   YYYY   -8859.5668   XXXZ   13217.1994
      XXYZ   -3182.5280   XYYZ    3223.0261   YYYZ   -3014.3033
      XXZZ  -10387.4610   XYZZ    2663.0043   YYZZ   -3872.3215
      XZZZ    8682.7054   YZZZ   -3110.0600   ZZZZ  -13656.2742
 -----------------------------------------------------------------
 Calculating analytic gradient of the CIS energy
 -1.350553828121352E-003 -1.350541063489462E-003
 -1.350541835837808E-003 -1.350553074181714E-003
 -1.350536055356828E-003 -1.350558843631686E-003
 -1.350585901006544E-003 -1.350508978811253E-003
 -1.350537442819418E-003 -1.350557499189576E-003
 -1.350541067519802E-003 -1.350553828909451E-003
 -1.350543235984784E-003 -1.350551654949127E-003
 -1.350547474149246E-003 -1.350547462886027E-003
 -1.350519426330038E-003 -1.350575459083200E-003
 -1.350556593730686E-003 -1.350538296571248E-003
 -1.350560043104894E-003 -1.350534871695746E-003
 -1.350540121361551E-003 -1.350554777982140E-003
 -1.350563269126090E-003 -1.350531603358393E-003
 -1.350542054847115E-003 -1.350552882979325E-003
 -1.350540704489106E-003 -1.350554210233238E-003
 -1.350547813148274E-003 -1.350547080843156E-003
 -1.350543027461917E-003 -1.350551876909741E-003
 -1.350520587345139E-003 -1.350574310458627E-003
 -1.350530152206450E-003 -1.350564758687685E-003
 -1.350534531811550E-003 -1.350560416529614E-003
 -1.350511079626275E-003 -1.350583809256562E-003
 -1.350550949333684E-003 -1.350543962448954E-003
 -1.350535393477848E-003 -1.350559539839376E-003
 -1.350540495298716E-003 -1.350554422290383E-003
 -1.350578375341370E-003 -1.350516507826774E-003
 -1.350533912835230E-003 -1.350561039548361E-003
 -1.350542641116220E-003 -1.350552273415832E-003
 -1.350535691183471E-003 -1.350559202260343E-003
 -1.350532172043318E-003 -1.350562761567630E-003
 -1.350538873595782E-003 -1.350556048511053E-003
 -1.350541955719867E-003 -1.350552956069214E-003
 -1.350530977991122E-003 -1.350563974193732E-003
 -1.350548256706887E-003 -1.350546629426973E-003
 -1.350579977228451E-003 -1.350514914873780E-003
 -1.350540806606332E-003 -1.350554114665280E-003
 -1.350524660514028E-003 -1.350570243285099E-003
 -1.350556319194580E-003 -1.350538589961854E-003
 -1.350567432983859E-003 -1.350527488902968E-003
 -1.350552517187130E-003 -1.350542381968286E-003
 -1.350555126574829E-003 -1.350539780810051E-003
 -1.350572287662483E-003 -1.350522630225561E-003
 -1.350536022843290E-003 -1.350558875224288E-003
 -1.350568776391400E-003 -1.350526122151002E-003
 -1.350553975057414E-003 -1.350540950780817E-003
 -1.350536766605177E-003 -1.350558135028055E-003
 -1.350564840971420E-003 -1.350530035348171E-003
 -1.350559498279708E-003 -1.350535408708111E-003
 -1.350556366635452E-003 -1.350538538691563E-003
 -1.350565285608974E-003 -1.350529647733856E-003
 -1.350555910431818E-003 -1.350539006143627E-003
 -1.350577869223634E-003 -1.350517033752788E-003
 -1.350561163663375E-003 -1.350533777534478E-003
 -1.350538113634507E-003 -1.350556791218774E-003
 -1.350553187233241E-003 -1.350541726053724E-003
 -1.350581121749642E-003 -1.350513804919243E-003
 -1.350534836262165E-003 -1.350560103942623E-003
 -1.350535161807000E-003 -1.350559745513326E-003
 -1.350550283450069E-003 -1.350544649194442E-003
 -1.350537692582981E-003 -1.350557236599989E-003
 -1.350566620876742E-003 -1.350528286503020E-003
 -1.350547783707955E-003 -1.350547148588464E-003
 -1.350529011329815E-003 -1.350565913644967E-003
 -1.350549358518974E-003 -1.350545541472618E-003
 -1.350541740428239E-003 -1.350553172934994E-003
 -1.350563066961618E-003 -1.350531813815978E-003
 -1.350541625341373E-003 -1.350553297493815E-003
 -1.350540000455193E-003 -1.350554899944878E-003
 -1.350532136096187E-003 -1.350562755601080E-003
 -1.350555792526036E-003 -1.350539120096951E-003
 -1.350544629221896E-003 -1.350550251244246E-003
 -1.350534853046335E-003 -1.350560015924585E-003
 -1.350554556122990E-003 -1.350540331490324E-003
 -1.350538700276535E-003 -1.350556201721265E-003
 -1.350528273124757E-003 -1.350566615716420E-003
 -1.350549674561688E-003 -1.350545261156850E-003
 -1.350538588437582E-003 -1.350556318632857E-003
 -1.350538448142798E-003 -1.350556452009035E-003
 -1.350548468739232E-003 -1.350546454441138E-003
 -1.350538738319861E-003 -1.350556187457850E-003
 -1.350534844385252E-003 -1.350560045260680E-003
 -1.350555693041531E-003 -1.350539248391964E-003
 -1.350540742031507E-003 -1.350554163961016E-003
 -1.350527075488394E-003 -1.350567832607164E-003
 -1.350552234579343E-003 -1.350542677787798E-003
 -1.350551216856878E-003 -1.350543705832792E-003
 -1.350546241197580E-003 -1.350548651503721E-003
 -1.350554657360760E-003 -1.350540271640475E-003
 -1.350536817658698E-003 -1.350558102031760E-003
 -1.350533004746848E-003 -1.350561890439699E-003
 -1.350564732765034E-003 -1.350530199354178E-003
 -1.350565449149457E-003 -1.350529458988688E-003
 -1.350544782018791E-003 -1.350550103656219E-003
 -1.350542796364630E-003 -1.350552105575024E-003
 -1.350541973870669E-003 -1.350552915383654E-003
 -1.350522680522863E-003 -1.350572238144535E-003
 -1.350553154874808E-003 -1.350541747156545E-003
 -1.350550895621257E-003 -1.350543988090416E-003
 -1.350531817149293E-003 -1.350563066241774E-003
 -1.350568019057261E-003 -1.350526861271647E-003
 -1.350556495450445E-003 -1.350538415199022E-003
 -1.350555153986877E-003 -1.350539767592264E-003
 -1.350545857674966E-003 -1.350549032762184E-003
 -1.350538691492435E-003 -1.350556215655258E-003
 -1.350524654705728E-003 -1.350570265360381E-003
 -1.350555744816749E-003 -1.350539106014987E-003
 -1.350562840302944E-003 -1.350532069106379E-003
 -1.350546880625415E-003 -1.350548019814463E-003
 -1.350537426709087E-003 -1.350557437378485E-003
 -1.350564955024384E-003 -1.350529937123073E-003
 -1.350550279774607E-003 -1.350544617612010E-003
 -1.350543867140295E-003 -1.350551020885271E-003
 -1.350560545685595E-003 -1.350534323928757E-003
 -1.350542921810867E-003 -1.350551962346331E-003
 -1.350542468820264E-003 -1.350552402203407E-003
 -1.350529616121486E-003 -1.350565320005075E-003
 -1.350532379112439E-003 -1.350562507525200E-003
[...]
           31          32          33          34          35          36
    1  -0.0000010   0.0001290  -0.0000417   0.0002483  -0.0000976  -0.0002138
    2   0.0001758   0.0000405  -0.0002173  -0.0008334   0.0000386   0.0000426
    3   0.0003555   0.0001469  -0.0001230   0.0000018   0.0000522   0.0003325
           37          38          39          40          41          42
    1  -0.0005853   0.0001891  -0.0004900  -0.0000481   0.0000431   0.0004912
    2  -0.0004948   0.0002550  -0.0002468   0.0000890  -0.0002672   0.0002597
    3  -0.0003639  -0.0000145  -0.0000752   0.0000207  -0.0001857  -0.0003818
           43          44          45          46          47          48
    1  -0.0008374   0.0002057   0.0007276   0.0002623  -0.0002269   0.0003870
    2   0.0000015   0.0001446   0.0006913  -0.0014023  -0.0000949   0.0001541
    3   0.0001720   0.0000337  -0.0012472   0.0012599  -0.0001605  -0.0001439
           49          50          51          52          53          54
    1   0.0009182  -0.0008116   0.0005032  -0.0004135   0.0002575  -0.0008909
    2  -0.0002734   0.0000709  -0.0000279   0.0009439  -0.0004267   0.0014896
    3  -0.0003535   0.0004756  -0.0003668  -0.0003620   0.0002371   0.0006574
           55          56          57          58          59          60
    1  -0.0007639  -0.0002128   0.0001421  -0.0000667   0.0000219   0.0002466
    2   0.0006641   0.0000767  -0.0000630  -0.0002370   0.0000014   0.0001145
    3   0.0007397  -0.0000005  -0.0000794   0.0000986   0.0000322   0.0000518
           61          62          63          64          65          66
    1   0.0000206  -0.0000184  -0.0000051  -0.0001678  -0.0000986   0.0002354
    2   0.0000501   0.0000944   0.0000089   0.0003551  -0.0004592   0.0001254
    3   0.0000399  -0.0002727   0.0000015   0.0000760   0.0000081  -0.0000315
           67          68          69          70          71          72
    1   0.0000139   0.0000137   0.0000741   0.0000680  -0.0000032  -0.0002059
    2  -0.0000342   0.0000089  -0.0000463   0.0000167  -0.0001095   0.0003098
    3  -0.0000419   0.0001236   0.0000570  -0.0000148  -0.0000681  -0.0004702
           73          74          75          76          77          78
    1   0.0001917   0.0002065   0.0002322   0.0006223   0.0000952   0.0001141
    2   0.0001617  -0.0006747   0.0006114  -0.0000320  -0.0004463  -0.0001943
    3   0.0001971  -0.0000797  -0.0007738  -0.0002329  -0.0000260   0.0003067
 Gradient time:  CPU 2104.65 s  wall 355.63 s
 Geometry Optimization Parameters
   NAtoms,    NIC,     NZ,  NCons,   NDum,   NFix, NCnnct, MaxDiis
       78     630      78       0       0       0       0       0

 Cartesian Hessian Update
 Hessian Updated using BFGS Update


** GEOMETRY OPTIMIZATION IN DELOCALIZED INTERNAL COORDINATES **
   Searching for a Minimum

   Optimization Cycle:  12

                       Coordinates (Angstroms)
     ATOM                X               Y               Z
      1  N         0.1677978398    0.1762818926    0.1086548430
      2  C         0.0571878196    0.4770011148    1.4460880763
      3  C         1.1821448117    0.9715748558    2.1382092405
      4  H         2.1302946813    1.0597440106    1.6319435674
      5  C         1.0755841168    1.3216879716    3.4592817747
      6  H         1.9421200630    1.6935610871    3.9861922891
      7  C        -0.1460612607    1.1891779496    4.1147647673
      8  H        -0.2422194910    1.4771978389    5.1520175902
      9  C        -1.2408483938    0.6705474154    3.4429452685
     10  H        -2.1731987102    0.5720214327    3.9805015662
     11  C        -1.1680753161    0.2828116121    2.1158376568
     12  C        -0.8173328283   -0.4742878482   -0.5920899747
     13  C        -0.6006457781   -0.8368439113   -1.9422993175
     14  H         0.3099940977   -0.5639787201   -2.4481290819
     15  C        -1.5359899543   -1.5747359910   -2.6186368180
     16  H        -1.3360255527   -1.8774218737   -3.6356529037
     17  C        -2.7243770098   -1.9327133948   -1.9875411126
     18  H        -3.4678108918   -2.5154766230   -2.5128617346
     19  C        -2.9660919473   -1.5258826947   -0.6846937005
     20  H        -3.9139688232   -1.7857642321   -0.2362050724
     21  C        -2.0391786883   -0.7966948037    0.0394054770
     22  C         1.3952879683    0.4901335453   -0.5743374115
     23  C         2.2164705008   -0.5481456176   -0.9397150603
     24  H         1.9258014606   -1.5534233078   -0.6629638574
     25  C         1.7015189118    1.7982943861   -0.9038898504
     26  H         1.0508404505    2.6194021120   -0.6328866152
     27  C         2.8682930604    2.0082002144   -1.6076271018
     28  H         3.1327355081    3.0211919426   -1.8824455298
     29  C         3.3697573671   -0.3507524173   -1.7000645698
     30  C         3.7100995743    0.9668997537   -2.0201709937
     31  C         4.9028529005    1.3301931057   -2.8516730467
     32  H         4.8589768730    2.3989996490   -3.0694015949
     33  H         5.8223962138    1.1667420030   -2.2847586573
     34  C        -2.3867393691   -0.2552320576    1.4031806571
     35  C        -3.0738124831   -1.3348376619    2.2541846597
     36  H        -3.9923023342   -1.6841271784    1.7867343821
     37  H        -3.3647462800   -0.9530727386    3.2301751238
     38  H        -2.4193814294   -2.1920042685    2.4038818280
     39  C         4.9717796804    0.5237876603   -4.1486461383
     40  H         5.4926879919    1.1131255951   -4.9048533630
     41  H         3.9538527258    0.3918735478   -4.5371360419
     42  C         5.7087640814   -0.7642489791   -3.9494996888
     43  C         6.7917019853   -1.0250928473   -4.7447942363
     44  H         7.0185723744   -0.3397920336   -5.5538868436
     45  C         7.6601311588   -2.1148937943   -4.5557504515
     46  C         7.3978532844   -2.9625886040   -3.4184491379
     47  C         6.2765823910   -2.6998416056   -2.6307759523
     48  H         6.0941103736   -3.3975547729   -1.8264485318
     49  C         5.4116165237   -1.6431799628   -2.8440815288
     50  C         8.7272104340   -2.3208018137   -5.4372742774
     51  N         9.6071528515   -2.4663163082   -6.1821090687
     52  C         8.2181868199   -4.0544547931   -3.0838261129
     53  N         8.8743412238   -4.9638470508   -2.7887915558
     54  C         4.0603949948   -1.6602105670   -2.1259096488
     55  C         4.1175611327   -2.5428983253   -0.8849585432
     56  C         4.8483480306   -2.3345787539    0.2674125575
     57  H         5.4938017879   -1.4699791598    0.3576183255
     58  C         4.7756362173   -3.2774051720    1.2849014910
     59  H         5.3585124128   -3.1408845531    2.1862025926
     60  C         3.9783812382   -4.4086871249    1.1467015968
     61  H         3.9434562795   -5.1391662186    1.9442604752
     62  C         3.2429122342   -4.6167804624   -0.0100247374
     63  H         2.6350902230   -5.5066791830   -0.1186590871
     64  C         3.3187335874   -3.6758349495   -1.0259787427
     65  C         2.6692423780   -3.6293544514   -2.3299595719
     66  C         1.8028656144   -4.5252239633   -2.9364267177
     67  H         1.5150220710   -5.4436790943   -2.4398420205
     68  C         1.3201146672   -4.2368613891   -4.2052363577
     69  H         0.6589523526   -4.9350199465   -4.7018666135
     70  C         1.7045281899   -3.0677054033   -4.8521498927
     71  H         1.3418867676   -2.8652590735   -5.8520137435
     72  C         2.5738833801   -2.1691725952   -4.2433526276
     73  H         2.8852194494   -1.2789243098   -4.7716763534
     74  C         3.0596033972   -2.4541739621   -2.9783180423
     75  C        -3.3583014845    0.9272212531    1.1713428375
     76  H        -2.8997417572    1.7009896085    0.5549844207
     77  H        -4.2589596833    0.5798030632    0.6650610895
     78  H        -3.6493667917    1.3756252219    2.1216352978
   Point Group: c1    Number of degrees of freedom:   228


   Energy is  -1855.402898088

 Hessian Updated using BFGS Update

228 Hessian modes will be used to form the next step
  Hessian Eigenvalues:
     0.000100    0.001643    0.004637    0.007451    0.008289    0.010177
     0.011968    0.014354    0.014687    0.015289    0.015583    0.015767
     0.016552    0.017485    0.017566    0.018573    0.018956    0.019176
     0.019736    0.020101    0.020332    0.020910    0.021751    0.021917
     0.022048    0.022891    0.023184    0.023578    0.023646    0.023739
     0.023770    0.023792    0.023821    0.023884    0.023895    0.023908
     0.023908    0.023914    0.023943    0.023990    0.024003    0.024071
     0.024128    0.024141    0.024164    0.024198    0.024280    0.024325
     0.024344    0.024374    0.024389    0.024442    0.024463    0.024520
     0.024536    0.024573    0.024807    0.024957    0.025386    0.027062
     0.030212    0.040862    0.048152    0.053622    0.054372    0.054952
     0.055722    0.056329    0.057027    0.057478    0.062357    0.068309
     0.080602    0.085745    0.091469    0.092726    0.093225    0.117976
     0.124569    0.130233    0.140073    0.154316    0.159630    0.159871
     0.159958    0.159959    0.159970    0.159982    0.159986    0.159988
     0.159990    0.159996    0.159996    0.159997    0.159998    0.159999
     0.159999    0.159999    0.160000    0.160000    0.160177    0.160433
     0.160926    0.161195    0.161493    0.163256    0.164546    0.169082
     0.171686    0.190911    0.198948    0.199312    0.199995    0.200002
     0.201388    0.216657    0.220006    0.220038    0.220105    0.221282
     0.222007    0.225010    0.225711    0.226295    0.226945    0.230576
     0.232730    0.234013    0.237420    0.240329    0.244492    0.246555
     0.247146    0.247313    0.249512    0.249994    0.251185    0.252240
     0.255007    0.261171    0.269057    0.280679    0.284606    0.288987
     0.290420    0.298806    0.304541    0.308088    0.318047    0.319147
     0.320443    0.338805    0.343641    0.345864    0.346552    0.346660
     0.346928    0.347083    0.347360    0.347719    0.348687    0.351356
     0.353811    0.355270    0.355905    0.356086    0.357061    0.357122
     0.357219    0.357309    0.357423    0.357454    0.357613    0.357814
     0.357835    0.357927    0.357966    0.358011    0.358112    0.358386
     0.359025    0.360748    0.360903    0.364059    0.379838    0.396830
     0.402074    0.413032    0.415901    0.418412    0.420850    0.423521
     0.425534    0.428456    0.432414    0.435336    0.435932    0.437563
     0.441389    0.453175    0.458053    0.458626    0.459733    0.461068
     0.463990    0.468363    0.469892    0.471203    0.474344    0.475302
     0.475577    0.476104    0.477583    0.478257    0.478390    0.480109
     0.481288    0.482521    0.483128    0.485806    0.487289    0.488385
     0.491472    0.518139    0.595564    1.241349    1.340040    1.584504
**WARNING** Magnitude of eigenvalue   1 too small.  Replaced by     0.000100

 Minimum Search - Taking Simple RFO Step
 Searching for Lamda that Minimizes Along All modes
 Value Taken    Lamda =  -0.00079993
 Calculated Step too Large.  Step scaled by  0.400251
 Step Taken.  Stepsize is  0.300000

                             Maximum     Tolerance    Cnvgd?
         Gradient           0.002079      0.000300      NO
         Displacement       0.115969      0.001200      NO
         Energy change     -0.000221      0.000001      NO


 New Cartesian Coordinates Obtained by Inverse Iteration

 Displacement from previous Coordinates is:  1.215811
 Adding empirical dispersion correction 
 ----------------------------------------------------------------
 Doing -D3(BJ) with
 s6 =   1.00000
 s8 =   0.00000
 a1 =   0.48600
 a2 =   4.50000
 -D3 energy including 3body term =     -0.0780275449 hartrees
 ----------------------------------------------------------------
 Adding gCP correction 
 ----------------------------------------------------------------
 gCP energy =      0.1096164306 hartrees
 ----------------------------------------------------------------
             Standard Nuclear Orientation (Angstroms)
    I     Atom           X                Y                Z
 ----------------------------------------------------------------
    1      N       0.1679909329     0.1668027425     0.0982911261
    2      C       0.0629616323     0.4731395739     1.4322098890
    3      C       1.1956426930     0.9533788418     2.1243181035
    4      H       2.1414443035     1.0371770607     1.6127630835
    5      C       1.0965224825     1.2919583459     3.4484484701
    6      H       1.9679092893     1.6487889935     3.9775477164
    7      C      -0.1239391188     1.1663385778     4.1092114609
    8      H      -0.2100189133     1.4453444743     5.1499385961
    9      C      -1.2272395913     0.6660147256     3.4380679921
   10      H      -2.1623991235     0.5740104161     3.9732084312
   11      C      -1.1621493789     0.2889490993     2.1077418592
   12      C      -0.8378723299    -0.4446670013    -0.6089112446
   13      C      -0.6348331830    -0.7985557313    -1.9634384957
   14      H       0.2872978691    -0.5558045107    -2.4638300714
   15      C      -1.6006239018    -1.4863779326    -2.6500242292
   16      H      -1.4152757572    -1.7828838188    -3.6716235368
   17      C      -2.8058821434    -1.8013845687    -2.0263155736
   18      H      -3.5752397514    -2.3380703703    -2.5633858422
   19      C      -3.0263186117    -1.4134537869    -0.7153185989
   20      H      -3.9826624987    -1.6448780830    -0.2663014023
   21      C      -2.0667530644    -0.7386116428     0.0197436525
   22      C       1.3983973183     0.4740315064    -0.5893803147
   23      C       2.2082628369    -0.5665132496    -0.9698987210
   24      H       1.9126928368    -1.5725803942    -0.7008991787
   25      C       1.7095966725     1.7844611534    -0.9041184157
   26      H       1.0676076284     2.6067709806    -0.6172519031
   27      C       2.8719872651     1.9944985184    -1.6154231631
   28      H       3.1427035483     3.0084177738    -1.8807432222
   29      C       3.3626097792    -0.3664847057    -1.7299373850
   30      C       3.7038850569     0.9529296756    -2.0447040247
   31      C       4.8921727851     1.3193896927    -2.8820301521
   32      H       4.8402010793     2.3860176197    -3.1084443727
   33      H       5.8134101695     1.1688335113    -2.3141037329
   34      C      -2.3848006718    -0.2530834985     1.4102525462
   35      C      -2.9938372482    -1.3977574048     2.2386310299
   36      H      -3.9065865927    -1.7778937354     1.7838754975
   37      H      -3.2661310366    -1.0680037959     3.2398875158
   38      H      -2.2937367645    -2.2268150677     2.3314871000
   39      C       4.9688078569     0.5025640854    -4.1728684316
   40      H       5.4791402886     1.0914874326    -4.9368703236
   41      H       3.9522678062     0.3553894628    -4.5574497778
   42      C       5.7208255418    -0.7740253316    -3.9613163755
   43      C       6.8207464464    -1.0209898051    -4.7342039566
   44      H       7.0545372982    -0.3349020425    -5.5407553448
   45      C       7.7039661094    -2.0979461488    -4.5262743700
   46      C       7.4289038229    -2.9481990721    -3.3918645331
   47      C       6.2912545370    -2.6956088864    -2.6243556075
   48      H       6.1060044430    -3.3947883137    -1.8217880836
   49      C       5.4176210317    -1.6500113179    -2.8526991663
   50      C       8.7931709765    -2.2871587353    -5.3815681678
   51      N       9.6919599653    -2.4193091843    -6.1067660775
   52      C       8.2529471622    -4.0324380886    -3.0449609873
   53      N       8.9129438738    -4.9363806254    -2.7415128171
   54      C       4.0591961283    -1.6739373110    -2.1497402222
   55      C       4.1128790592    -2.5376250475    -0.8936650247
   56      C       4.8432067628    -2.3156184775     0.2562838761
   57      H       5.4979025646    -1.4563754396     0.3317573217
   58      C       4.7631711638    -3.2414333870     1.2889668728
   59      H       5.3483607717    -3.0940188630     2.1870788589
   60      C       3.9591728777    -4.3696379009     1.1684959999
   61      H       3.9172582156    -5.0857047688     1.9786874387
   62      C       3.2237848643    -4.5916237213     0.0136756531
   63      H       2.6098677424    -5.4788200782    -0.0820100967
   64      C       3.3073326595    -3.6674010141    -1.0164349233
   65      C       2.6621361932    -3.6411986500    -2.3228789675
   66      C       1.7923511750    -4.5452734591    -2.9124682309
   67      H       1.4971593635    -5.4508101275    -2.3968592020
   68      C       1.3161192749    -4.2824917320    -4.1884869828
   69      H       0.6504478420    -4.9860139464    -4.6711645248
   70      C       1.7132817743    -3.1323557105    -4.8612539774
   71      H       1.3569324684    -2.9514046557    -5.8673698766
   72      C       2.5871440541    -2.2273905658    -4.2704392967
   73      H       2.9104801295    -1.3553156424    -4.8208422990
   74      C       3.0631301994    -2.4835130262    -2.9950504537
   75      C      -3.4065298837     0.9003750015     1.2616746201
   76      H      -3.0064561785     1.7035955125     0.6426225872
   77      H      -4.3199968927     0.5349623827     0.7931960937
   78      H      -3.6667577202     1.3155164925     2.2353181049
 ----------------------------------------------------------------
 Nuclear Repulsion Energy =  5555.9934275657 hartrees
 There are      158 alpha and      158 beta electrons
 Nucleus-field energy     =     0.0000000058 hartrees
 Requested basis set is def2-mSVP
 There are 391 shells and 767 basis functions
 A cutoff of  1.0D-11 yielded  35214 shell pairs
 There are    141466 function pairs (    156136 Cartesian)
 Smallest overlap matrix eigenvalue = 2.72E-04
 Guess MOs from SCF MO coefficient file
 Reading MOs from coefficient file
 Reading MOs from coefficient file
 A restricted hybrid HF-DFT SCF calculation will be
 performed using Pulay DIIS extrapolation
 Exchange:     0.4200 Hartree-Fock + 0.5800 PBEh-3c
 Correlation:  1.0000 PBEh-3c
 Using SG-1 standard quadrature grid
 Dispersion:   Grimme D3
 SCF converges when DIIS error is below 1.0E-08
 Geometry optimization detected.  Setting ReadMinima to 0
 Setting SaveMinima to 0
 using 8 threads for integral computing
 -------------------------------------------------------
 OpenMP Integral computing Module                
 Release: version 1.0, May 2013, Q-Chem Inc. Pittsburgh 
 -------------------------------------------------------
 ---------------------------------------
  Cycle       Energy         DIIS Error
 ---------------------------------------
    1   -1855.4945381684      5.65E-04
    2   -1855.5153803068      5.25E-05
    3   -1855.5157169004      3.84E-05
    4   -1855.5158082963      2.04E-05
    5   -1855.5158374056      9.05E-06
    6   -1855.5158431322      2.65E-06
    7   -1855.5158435753      1.03E-06
    8   -1855.5158436520      3.49E-07
    9   -1855.5158436642      1.68E-07
   10   -1855.5158436687      4.92E-08
   11   -1855.5158436579      1.14E-08
   12   -1855.5158436221      6.60E-09 Convergence criterion met
 ---------------------------------------
 SCF time:  CPU 1774.09 s  wall 493.73 s
 SCF   energy in the final basis set = -1855.51584362
 Total energy in the final basis set = -1855.51584362
 
 Direct TDDFT/TDA calculation will be performed
 Exchange:     0.4200 Hartree-Fock + 0.5800 PBEh-3c
 Correlation:  1.0000 PBEh-3c
 Using SG-1 standard quadrature grid
 Dispersion:   Grimme D3
 Singlet excitation energies requested
 CIS energy converged when residual is below 10e- 6
 ---------------------------------------------------
 Iter    Rts Conv    Rts Left    Ttl Dev     Max Dev
 ---------------------------------------------------
