mFile = /cm/shared/apps/q-chem/intel/QCHEM_5.0.1_Trunk/bin/mpi/machines
Process 0 of 1 is on ctcp012 - thread support 0
initial socket setup ...start
initial socket setup ...done 
now start server 0 ... 
ctcp012.cm.cluster 10.141.0
Q-Chem Developer Version! Running on 10.141.0.*
                  Welcome to Q-Chem
     A Quantum Leap Into The Future Of Chemistry


 Q-Chem 5.0, Q-Chem, Inc., Pleasanton, CA (2017)

 Yihan Shao,  Zhengting Gan,  E. Epifanovsky,  A. T. B. Gilbert,  M. Wormit,  
 J. Kussmann,  A. W. Lange,  A. Behn,  Jia Deng,  Xintian Feng,  D. Ghosh,  
 M. Goldey,  P. R. Horn,  L. D. Jacobson,  I. Kaliman,  T. Kus,  A. Landau,  
 Jie Liu,  E. I. Proynov,  R. M. Richard,  R. P. Steele,  E. J. Sundstrom,  
 H. L. Woodcock III,  P. M. Zimmerman,  D. Zuev,  B. Albrecht,  E. Alguire,  
 S. A. Baeppler,  Z. Benda,  Y. A. Bernard,  E. J. Berquist,  K. B. Bravaya,  
 D. Casanova,  Chun-Min Chang,  Yunqing Chen,  A. Chien,  K. D. Closser,  
 M. P. Coons,  S. Dasgupta,  M. Diedenhofen,  Hainam Do,  R. G. Edgar,  
 Po-Tung Fang,  S. Fatehi,  Qingguo Feng,  Qinghui Ge,  A. Ghysels,  
 J. Gomes,  J. Gonthier,  A. Gunina,  M. W. D. Hanson-Heine,  
 P. H. P. Harbach,  A. W. Hauser,  J. E. Herr,  E. G. Hohenstein,  
 Z. C. Holden,  Kerwin Hui,  T.-C. Jagau,  Hyunjun Ji,  B. Kaduk,  
 K. Khistyaev,  Jaehoon Kim,  P. Klunzinger,  K. Koh,  D. Kosenkov,  
 T. Kowalczyk,  C. M. Krauter,  A. Kunitsa,  Ka Un Lao,  A. Laurent,  
 K. V. Lawler,  Joonho Lee,  D. Lefrancois,  S. Lehtola,  D. S. Levine,  
 Yi-Pei Li,  You-Sheng Lin,  Fenglai Liu,  E. Livshits,  A. Luenser,  
 P. Manohar,  E. Mansoor,  S. F. Manzer,  Shan-Ping Mao,  Yuezhi Mao,  
 N. Mardirossian,  A. V. Marenich,  L. A. Martinez-Martinez,  S. A. Maurer,  
 N. J. Mayhall,  S. C. McKenzie,  J.-M. Mewes,  A. F. Morrison,  K. Nanda,  
 T. S. Nguyen-Beck,  R. Olivares-Amaya,  J. A. Parkhill,  T. M. Perrine,  
 F. Plasser,  S. Prager,  A. Prociuk,  D. R. Rehn,  F. Rob,  M. Schneider,  
 N. Sergueev,  S. M. Sharada,  S. Sharma,  D. W. Small,  T. Stauch,  
 T. Stein,  Yu-Chuan Su,  A. J. W. Thom,  T. Tsuchimochi,  L. Vogt,  
 O. Vydrov,  M. A. Watson,  J. Wenzel,  M. de Wergifosse,  T. A. Wesolowski,  
 A. White,  J. Witte,  A. Yamada,  Jun Yang,  K. Yao,  S. Yeganeh,  
 S. R. Yost,  Zhi-Qiang You,  A. Zech,  Igor Ying Zhang,  Xing Zhang,  
 Yan Zhao,  Ying Zhu,  B. R. Brooks,  G. K. L. Chan,  C. J. Cramer,  
 M. S. Gordon,  W. J. Hehre,  A. Klamt,  M. W. Schmidt,  C. D. Sherrill,  
 D. G. Truhlar,  A. Aspuru-Guzik,  R. Baer,  A. T. Bell,  N. A. Besley,  
 Jeng-Da Chai,  A. Dreuw,  B. D. Dunietz,  T. R. Furlani,  Chao-Ping Hsu,  
 Yousung Jung,  Jing Kong,  D. S. Lambrecht,  WanZhen Liang,  C. Ochsenfeld,  
 V. A. Rassolov,  L. V. Slipchenko,  J. E. Subotnik,  T. Van Voorhis,  
 J. M. Herbert,  A. I. Krylov,  P. M. W. Gill,  M. Head-Gordon

 Contributors to earlier versions of Q-Chem not listed above: 
 R. D. Adamson,  B. Austin,  J. Baker,  G. J. O. Beran,  K. Brandhorst,  
 S. T. Brown,  E. F. C. Byrd,  A. K. Chakraborty,  C.-L. Cheng,  
 Siu Hung Chien,  D. M. Chipman,  D. L. Crittenden,  H. Dachsel,  
 R. A. DiStasio Jr.,  R. J. Doerksen,  A. D. Dutoi,  L. Fusti-Molnar,  
 W. A. Goddard III,  A. Golubeva-Zadorozhnaya,  S. R. Gwaltney,  G. Hawkins,  
 A. Heyden,  S. Hirata,  G. Kedziora,  F. J. Keil,  C. Kelley,  Jihan Kim,  
 R. A. King,  R. Z. Khaliullin,  P. P. Korambath,  W. Kurlancheek,  
 A. M. Lee,  M. S. Lee,  S. V. Levchenko,  Ching Yeh Lin,  D. Liotard,  
 R. C. Lochan,  I. Lotan,  P. E. Maslen,  N. Nair,  D. P. O'Neill,  
 D. Neuhauser,  E. Neuscamman,  C. M. Oana,  R. Olson,  B. Peters,  
 R. Peverati,  P. A. Pieniazek,  Y. M. Rhee,  J. Ritchie,  M. A. Rohrdanz,  
 E. Rosta,  N. J. Russ,  H. F. Schaefer III,  N. E. Schultz,  N. Shenvi,  
 A. C. Simmonett,  A. Sodt,  D. Stuck,  K. S. Thanthiriwatte,  V. Vanovschi,  
 Tao Wang,  A. Warshel,  C. F. Williams,  Q. Wu,  X. Xu,  W. Zhang

 Please cite Q-Chem as follows:
 Y. Shao et al., Mol. Phys. 113, 184-215 (2015)
 DOI: 10.1080/00268976.2014.952696

 Q-Chem 5.0.1 for Intel X86 EM64T Linux

 Parts of Q-Chem use Armadillo 5.200.1 (Boston Tea Smuggler).
 http://arma.sourceforge.net/

 Q-Chem begins on Thu Apr 26 15:05:06 2018  

Host: ctcp012
0

     Scratch files written to /scratch/mewes/95187/qchem11708//
 Parallel job on  1  processors
The previous job contains 0 fragments, simply inherited here

Checking the input file for inconsistencies... 	...done.

--------------------------------------------------------------
User input:
--------------------------------------------------------------
$rem
threads 8
jobtype	opt
method PBEh-3c
basis def2-mSVP
mem_static	1024
mem_total	14000
sym_ignore	true
cis_n_roots             2
cis_singlets            true
cis_triplets		false
rpa                     false
cis_state_deriv         1
$end


$molecule
read incoords.mol
$end

--------------------------------------------------------------
 Adding empirical dispersion correction 
 ----------------------------------------------------------------
 Doing -D3(BJ) with
 s6 =   1.00000
 s8 =   0.00000
 a1 =   0.48600
 a2 =   4.50000
 -D3 energy including 3body term =     -0.0752895479 hartrees
 ----------------------------------------------------------------
 Adding gCP correction 
 ----------------------------------------------------------------
 gCP energy =      0.1041385615 hartrees
 ----------------------------------------------------------------
             Standard Nuclear Orientation (Angstroms)
    I     Atom           X                Y                Z
 ----------------------------------------------------------------
    1      C       0.1804200000    -4.4626400000     1.0434900000
    2      C       0.1600700000    -4.4340500000     2.6056200000
    3      C       1.6208500000    -3.9082800000     0.7880100000
    4      C       2.2509800000    -3.7011200000    -0.4340200000
    5      H       1.7518600000    -3.9292800000    -1.3701900000
    6      C       3.5518200000    -3.1975900000    -0.4237400000
    7      H       4.0725800000    -3.0273700000    -1.3633800000
    8      C       4.2010900000    -2.9112400000     0.7887300000
    9      H       5.2168500000    -2.5219500000     0.7728200000
   10      C       3.5629100000    -3.1232900000     2.0155400000
   11      H       4.0797900000    -2.9007500000     2.9431800000
   12      C       2.2712600000    -3.6228800000     2.0122800000
   13      C      -0.8693000000    -4.8278800000     3.4530300000
   14      H      -1.8026900000    -5.2184600000     3.0615100000
   15      C      -0.6669700000    -4.7139400000     4.8286000000
   16      H      -1.4525600000    -5.0172200000     5.5170400000
   17      C       0.5439900000    -4.2158200000     5.3371700000
   18      H       0.6808100000    -4.1390700000     6.4136700000
   19      C       1.5779200000    -3.8237400000     4.4803100000
   20      H       2.5099000000    -3.4477100000     4.8891500000
   21      C       1.3832300000    -3.9347400000     3.1134900000
   22      C      -2.1355700000    -3.6841000000     0.0018200000
   23      C      -3.0546600000    -2.6389400000    -0.2608600000
   24      H      -4.0236200000    -2.8769000000    -0.7042900000
   25      C      -2.7593500000    -1.3016100000     0.0204500000
   26      C      -3.7365800000    -0.2952500000    -0.2790800000
   27      N      -4.5436300000     0.4981700000    -0.5331100000
   28      C      -0.8817200000    -3.4015200000     0.5734700000
   29      C      -0.6188900000    -2.0264600000     0.8540300000
   30      H       0.3230300000    -1.7400100000     1.3261400000
   31      C      -1.5272700000    -0.9908100000     0.5807000000
   32      C      -1.1598900000     0.3588500000     0.9015000000
   33      N      -0.8521400000     1.4463600000     1.1625500000
   34      H       5.7059000000    -7.5001700000    -1.1134100000
   35      H       7.3271100000    -9.0091600000     0.0076500000
   36      C       5.3784100000    -8.1698600000    -0.3233300000
   37      C       6.2815100000    -9.0100800000     0.3025600000
   38      C       4.0389400000    -8.1855600000     0.0667000000
   39      H       3.3673900000    -7.5066600000    -0.4527600000
   40      C       5.8393700000    -9.8566400000     1.3163200000
   41      H       6.5758300000   -10.5043100000     1.7870700000
   42      C       3.5618900000    -9.0362800000     1.0931600000
   43      C       4.4842400000    -9.8851000000     1.7318000000
   44      N       2.1731300000    -9.0346200000     1.4710600000
   45      C       2.5619300000   -10.7460100000     3.2177700000
   46      C       1.6937000000    -9.8728100000     2.5375800000
   47      H       2.6832700000   -12.2465400000     4.7971500000
   48      C       2.0386700000   -11.5574600000     4.2556900000
   49      C       0.3353000000    -9.8397200000     2.9350500000
   50      C       0.6963600000   -11.5078200000     4.6238200000
   51      C      -0.1583000000   -10.6441700000     3.9626200000
   52      H      -0.3715400000    -9.1738400000     2.4468900000
   53      H       0.3252800000   -12.1405400000     5.4252600000
   54      H      -1.2072100000   -10.5896300000     4.2396100000
   55      C       4.0519000000   -10.8340800000     2.8584000000
   56      C       4.8777400000   -10.4895200000     4.1258000000
   57      C       4.3580300000   -12.2871800000     2.4130900000
   58      C       1.2540600000    -8.1826200000     0.7754500000
   59      C       0.5549900000    -8.6470800000    -0.3310100000
   60      C      -0.3199200000    -7.7935600000    -0.9934900000
   61      C      -0.5220300000    -6.4572500000    -0.5707600000
   62      C       0.1823900000    -5.9451900000     0.5368000000
   63      C       1.0638800000    -6.8556500000     1.1908200000
   64      H       1.6587900000    -6.5341200000     2.0455400000
   65      H       0.6934900000    -9.6685000000    -0.6741800000
   66      H      -0.8594400000    -8.1859200000    -1.8545000000
   67      C      -1.5349200000    -5.6638700000    -1.3442100000
   68      C      -2.5608400000    -5.0686700000    -0.3965300000
   69      H      -2.0681700000    -6.3253100000    -2.0393200000
   70      H      -1.0273400000    -4.9141700000    -1.9639800000
   71      H      -2.7362500000    -5.6796900000     0.4975700000
   72      H      -3.5211500000    -5.0220500000    -0.9260300000
   73      H       3.7836900000   -12.5529200000     1.5166000000
   74      H       4.1116000000   -13.0213800000     3.1879400000
   75      H       5.4175200000   -12.4368500000     2.1780500000
   76      H       4.6762600000    -9.4635200000     4.4589100000
   77      H       5.9569300000   -10.5718200000     3.9570900000
   78      H       4.6525600000   -11.1555100000     4.9658000000
 ----------------------------------------------------------------
 Nuclear Repulsion Energy =  5440.4924603609 hartrees
 There are      158 alpha and      158 beta electrons
 Requested basis set is def2-mSVP
 There are 391 shells and 767 basis functions

 Total QAlloc Memory Limit  14000 MB
 Mega-Array Size      1001 MB
 MEM_STATIC part      1024 MB
 A cutoff of  1.0D-11 yielded  33758 shell pairs
 There are    135548 function pairs (    149566 Cartesian)
 
 -------------------------------------------------------
 OpenMP Integral Computing Module                       
 Release: version 1.0, May 2013, Q-Chem Inc. Pittsburgh 
 -------------------------------------------------------
 Integral Job Info:
 Integral job number is                      11
 Integral operator is                         1
 short-range coefficients                     0
 long-range coefficients              100000000
 Omega coefficients                           0
 if combine SR and LR in K                    0
 Integral screening is                        0
 Integral computing path is                   2
 max size of driver memory is            800000
 size of driver memory is                593474
 size of scratch memory is              1809772
 max col of scratch BK array               1296
 max len of scratch array in speh3          155
 max len of scratch index in speh4           18
 max int batch size is                      520
 min int batch size is                       52
 fixed nKL is                                52
 max L of basis functions is                  2
 order of int derivative is                   0
 number of shells is                        391
 number of basis is                         814
 number of cartesian basis is               814
 number of contracted shell pairs         33758
 number of primitive shell pairs          70710
 maxK2 (contraction) of shell pair           25
 max number of K2 of shell pair               1
 max number of CS2 of shell pair           8053
 max number of PS2 of shell pair          12495
 mem total for path MDJ                  369816
 -------------------------------------------------------
 Smallest overlap matrix eigenvalue = 2.72E-04

 Scale SEOQF with 1.000000e-02/1.000000e-02/1.000000e-02

 Standard Electronic Orientation quadrupole field applied
 Nucleus-field energy     =     0.0000001033 hartrees
 Guess from superposition of atomic densities
 Warning:  Energy on first SCF cycle will be non-variational
 A restricted hybrid HF-DFT SCF calculation will be
 performed using Pulay DIIS extrapolation
 Exchange:     0.4200 Hartree-Fock + 0.5800 PBEh-3c
 Correlation:  1.0000 PBEh-3c
 Using SG-1 standard quadrature grid
 Dispersion:   Grimme D3
 SCF converges when DIIS error is below 1.0E-08
 using 8 threads for integral computing
 -------------------------------------------------------
 OpenMP Integral computing Module                
 Release: version 1.0, May 2013, Q-Chem Inc. Pittsburgh 
 -------------------------------------------------------
 ---------------------------------------
  Cycle       Energy         DIIS Error
 ---------------------------------------
    1   -1870.0972957298      2.96E-02
    2   -1855.0970108927      2.25E-03
    3   -1854.9768029625      2.77E-03
    4   -1855.4544679263      8.64E-04
    5   -1855.5035693635      2.27E-04
    6   -1855.5063497574      1.03E-04
    7   -1855.5070900573      2.45E-05
    8   -1855.5071334701      8.84E-06
    9   -1855.5071393333      2.49E-06
   10   -1855.5071397305      1.15E-06
   11   -1855.5071398300      4.09E-07
   12   -1855.5071398489      1.57E-07
   13   -1855.5071398471      6.51E-08
   14   -1855.5071398556      2.26E-08
   15   -1855.5071398414      7.99E-09 Convergence criterion met
 ---------------------------------------
 SCF time:  CPU 3043.41 s  wall 677.20 s
 SCF   energy in the final basis set = -1855.50713984
 Total energy in the final basis set = -1855.50713984
 
 Direct TDDFT/TDA calculation will be performed
 Exchange:     0.4200 Hartree-Fock + 0.5800 PBEh-3c
 Correlation:  1.0000 PBEh-3c
 Using SG-1 standard quadrature grid
 Dispersion:   Grimme D3
 Singlet excitation energies requested
 CIS energy converged when residual is below 10e- 6
 ---------------------------------------------------
 Iter    Rts Conv    Rts Left    Ttl Dev     Max Dev
 ---------------------------------------------------
   1         0           2      0.000034    0.000021
   2         0           2      0.000043    0.000037
   3         0           2      0.000031    0.000026
   4         0           2      0.000014    0.000012
   5         0           2      0.000021    0.000019
   6         0           2      0.000010    0.000009
   7         1           1      0.000005    0.000004
   8         1           1      0.000002    0.000002
   9         1           1      0.000001    0.000001
  10         2           0      0.000001    0.000001    Roots Converged
 ---------------------------------------------------
 
 ---------------------------------------------------
         TDDFT/TDA Excitation Energies              
 ---------------------------------------------------

 Excited state   1: excitation energy (eV) =    3.8580
 Total energy for state  1:                 -1855.36535972 au
    Multiplicity: Singlet
    Trans. Mom.: -0.0229 X   0.0656 Y  -0.0088 Z
    Strength   :     0.0004635659
    D(158) --> V(  1) amplitude =  0.9927

 Excited state   2: excitation energy (eV) =    4.1690
 Total energy for state  2:                 -1855.35393307 au
    Multiplicity: Singlet
    Trans. Mom.: -0.0549 X  -0.0631 Y   0.0284 Z
    Strength   :     0.0007964722
    D(158) --> V(  2) amplitude =  0.7664
    D(158) --> V(  3) amplitude =  0.2658
    D(158) --> V(  4) amplitude = -0.2776
    D(158) --> V(  5) amplitude = -0.4737
 
 ---------------------------------------------------
 Calculating Relaxed Density
 ---------------------------------------------------
 Iter    Rts Conv    Rts Left    Ttl Dev     Max Dev
 ---------------------------------------------------
   1         0           2      0.000565    0.000332
   2         0           2      0.000182    0.000106
   3         0           2      0.000062    0.000035
   4         0           2      0.000024    0.000015
   5         0           2      0.000009    0.000005
   6         0           2      0.000003    0.000002
   7         2           0      0.000000    0.000000    Roots Converged
 ---------------------------------------------------
  SETman timing summary (seconds)
  CPU time              8342.10s
  System time              0.01s
  Wall time             1185.71s
 
 --------------------------------------------------------------
 
                    Orbital Energies (a.u.)
 --------------------------------------------------------------
 
 Alpha MOs
 -- Occupied --
-14.684 -14.659 -14.657 -10.524 -10.524 -10.523 -10.516 -10.504
-10.503 -10.502 -10.502 -10.502 -10.501 -10.500 -10.497 -10.495
-10.484 -10.482 -10.482 -10.476 -10.475 -10.475 -10.475 -10.471
-10.470 -10.470 -10.470 -10.468 -10.468 -10.468 -10.468 -10.467
-10.467 -10.467 -10.465 -10.461 -10.460 -10.452 -10.451 -10.448
-10.448 -10.447 -10.447 -10.441 -10.441 -10.429 -10.429  -1.070
 -1.034  -1.019  -1.015  -0.997  -0.979  -0.962  -0.955  -0.953
 -0.934  -0.925  -0.905  -0.893  -0.885  -0.880  -0.852  -0.852
 -0.846  -0.841  -0.833  -0.820  -0.813  -0.803  -0.791  -0.768
 -0.767  -0.743  -0.728  -0.722  -0.711  -0.707  -0.700  -0.684
 -0.678  -0.676  -0.672  -0.668  -0.663  -0.643  -0.616  -0.609
 -0.608  -0.607  -0.593  -0.582  -0.577  -0.569  -0.563  -0.557
 -0.538  -0.536  -0.533  -0.530  -0.525  -0.524  -0.522  -0.522
 -0.513  -0.506  -0.504  -0.501  -0.498  -0.497  -0.491  -0.490
 -0.487  -0.483  -0.481  -0.479  -0.477  -0.470  -0.459  -0.449
 -0.449  -0.447  -0.440  -0.438  -0.437  -0.435  -0.431  -0.427
 -0.426  -0.424  -0.422  -0.421  -0.419  -0.415  -0.413  -0.412
 -0.408  -0.405  -0.398  -0.396  -0.394  -0.393  -0.389  -0.376
 -0.370  -0.366  -0.347  -0.335  -0.318  -0.311  -0.306  -0.301
 -0.299  -0.293  -0.286  -0.281  -0.267  -0.228
 -- Virtual --
 -0.062  -0.042  -0.033  -0.018  -0.013  -0.006   0.008   0.014
  0.016   0.023   0.045   0.048   0.052   0.067   0.079   0.106
  0.108   0.119   0.121   0.126   0.129   0.134   0.145   0.147
  0.149   0.151   0.154   0.158   0.160   0.173   0.177   0.184
  0.184   0.187   0.189   0.192   0.194   0.199   0.199   0.205
  0.211   0.214   0.215   0.217   0.218   0.220   0.221   0.223
  0.224   0.229   0.233   0.234   0.236   0.238   0.246   0.247
  0.253   0.256   0.259   0.260   0.265   0.266   0.269   0.276
  0.277   0.278   0.281   0.285   0.293   0.294   0.297   0.302
  0.303   0.304   0.321   0.327   0.333   0.337   0.342   0.353
  0.359   0.360   0.368   0.368   0.369   0.373   0.379   0.383
  0.396   0.406   0.413   0.415   0.422   0.424   0.434   0.442
  0.458   0.462   0.467   0.476   0.480   0.488   0.492   0.494
  0.500   0.503   0.505   0.508   0.509   0.514   0.517   0.520
  0.523   0.527   0.532   0.536   0.536   0.537   0.540   0.545
  0.547   0.550   0.552   0.555   0.560   0.562   0.564   0.568
  0.572   0.573   0.574   0.577   0.583   0.587   0.589   0.592
  0.596   0.601   0.604   0.605   0.606   0.610   0.611   0.614
  0.616   0.618   0.619   0.624   0.627   0.628   0.629   0.630
  0.633   0.636   0.638   0.642   0.643   0.646   0.650   0.653
  0.658   0.661   0.670   0.675   0.677   0.681   0.684   0.686
  0.690   0.693   0.698   0.703   0.706   0.708   0.711   0.714
  0.717   0.726   0.726   0.731   0.734   0.741   0.742   0.745
  0.746   0.756   0.760   0.769   0.771   0.771   0.784   0.788
  0.799   0.801   0.805   0.806   0.810   0.820   0.822   0.836
  0.843   0.854   0.865   0.869   0.874   0.883   0.888   0.897
  0.902   0.905   0.907   0.912   0.914   0.924   0.926   0.930
  0.935   0.942   0.944   0.947   0.951   0.953   0.958   0.960
  0.967   0.969   0.971   0.977   0.979   0.983   0.984   0.986
  0.992   0.994   0.995   1.000   1.004   1.007   1.015   1.025
  1.027   1.030   1.038   1.039   1.045   1.046   1.047   1.048
  1.049   1.056   1.059   1.064   1.067   1.071   1.073   1.078
  1.082   1.087   1.090   1.095   1.102   1.104   1.106   1.111
  1.116   1.118   1.125   1.128   1.128   1.132   1.135   1.139
  1.144   1.149   1.155   1.161   1.163   1.167   1.174   1.187
  1.194   1.207   1.213   1.224   1.233   1.241   1.249   1.253
  1.265   1.271   1.275   1.280   1.283   1.301   1.301   1.305
  1.309   1.311   1.313   1.317   1.320   1.324   1.330   1.334
  1.338   1.350   1.359   1.365   1.375   1.380   1.384   1.394
  1.397   1.407   1.414   1.419   1.428   1.436   1.446   1.456
  1.469   1.484   1.489   1.496   1.501   1.503   1.509   1.512
  1.522   1.524   1.528   1.531   1.534   1.542   1.542   1.550
  1.554   1.559   1.562   1.567   1.568   1.573   1.576   1.581
  1.584   1.585   1.588   1.601   1.613   1.622   1.628   1.634
  1.640   1.654   1.661   1.664   1.679   1.700   1.711   1.722
  1.725   1.733   1.744   1.748   1.754   1.764   1.769   1.776
  1.777   1.782   1.792   1.802   1.807   1.818   1.823   1.829
  1.833   1.839   1.846   1.852   1.867   1.868   1.871   1.879
  1.881   1.888   1.893   1.899   1.904   1.914   1.919   1.925
  1.930   1.933   1.939   1.944   1.950   1.957   1.972   1.977
  1.991   1.993   1.999   2.002   2.009   2.010   2.011   2.019
  2.022   2.030   2.031   2.036   2.048   2.050   2.065   2.066
  2.071   2.080   2.083   2.098   2.110   2.114   2.120   2.124
  2.135   2.139   2.144   2.150   2.154   2.160   2.165   2.170
  2.174   2.179   2.191   2.195   2.200   2.203   2.205   2.213
  2.217   2.225   2.232   2.234   2.244   2.246   2.255   2.263
  2.266   2.268   2.280   2.286   2.290   2.297   2.301   2.304
  2.309   2.317   2.320   2.327   2.331   2.331   2.336   2.342
  2.348   2.349   2.353   2.364   2.366   2.367   2.383   2.387
  2.394   2.398   2.408   2.420   2.427   2.447   2.451   2.460
  2.462   2.481   2.494   2.495   2.511   2.530   2.538   2.566
  2.572   2.574   2.581   2.585   2.597   2.604   2.629   2.643
  2.648   2.662   2.671   2.676   2.680   2.683   2.687   2.692
  2.703   2.703   2.710   2.714   2.715   2.717   2.720   2.745
  2.749   2.758   2.759   2.761   2.765   2.767   2.772   2.780
  2.793   2.796   2.798   2.803   2.813   2.822   2.836   2.841
  2.847   2.855   2.867   2.871   2.872   2.875   2.900   2.913
  2.930   2.940   2.949   2.954   2.969   2.979   2.993   2.997
  2.999   3.028   3.050   3.064   3.115   3.160   3.220   3.289
  3.333   3.349   3.353   3.357   3.374   3.439   3.500   3.512
  3.554   3.641  13.176  13.234  13.244  13.322  13.336  13.396
 13.605  13.630  13.639  13.684  13.704  13.718  13.719  13.746
 13.752  13.768  13.798  13.859  13.879  13.880  13.909  14.003
 14.043  14.069  14.097  14.122  14.123  14.140  14.145  14.179
 14.184  14.199  14.214  14.219  14.254  14.258  14.265  14.349
 14.531  14.538  14.544  14.549  14.551  14.570  19.483  19.548
 19.606
 --------------------------------------------------------------
 
          Ground-State Mulliken Net Atomic Charges

     Atom                 Charge (a.u.)
  ----------------------------------------
      1 C                    -0.439094
      2 C                     0.113750
      3 C                     0.096913
      4 C                    -0.260845
      5 H                     0.221869
      6 C                    -0.231848
      7 H                     0.228278
      8 C                    -0.212402
      9 H                     0.229623
     10 C                    -0.322817
     11 H                     0.215080
     12 C                     0.150998
     13 C                    -0.260217
     14 H                     0.217986
     15 C                    -0.227686
     16 H                     0.228460
     17 C                    -0.213821
     18 H                     0.229733
     19 C                    -0.322359
     20 H                     0.214755
     21 C                     0.148863
     22 C                     0.073810
     23 C                    -0.306157
     24 H                     0.248770
     25 C                     0.068833
     26 C                    -0.001430
     27 N                    -0.159102
     28 C                     0.229969
     29 C                    -0.304253
     30 H                     0.277603
     31 C                     0.096360
     32 C                    -0.000059
     33 N                    -0.160016
     34 H                     0.218320
     35 H                     0.213562
     36 C                    -0.216624
     37 C                    -0.227411
     38 C                    -0.302912
     39 H                     0.243318
     40 C                    -0.280803
     41 H                     0.210690
     42 C                     0.312851
     43 C                     0.128861
     44 N                    -0.754533
     45 C                     0.129041
     46 C                     0.315577
     47 H                     0.211039
     48 C                    -0.280468
     49 C                    -0.303575
     50 C                    -0.227475
     51 C                    -0.217302
     52 H                     0.238075
     53 H                     0.213965
     54 H                     0.217657
     55 C                    -0.207226
     56 C                    -0.604457
     57 C                    -0.602310
     58 C                     0.225812
     59 C                    -0.233833
     60 C                    -0.291813
     61 C                     0.051139
     62 C                     0.218258
     63 C                    -0.285575
     64 H                     0.260273
     65 H                     0.240893
     66 H                     0.220840
     67 C                    -0.523574
     68 C                    -0.525705
     69 H                     0.248979
     70 H                     0.254310
     71 H                     0.260443
     72 H                     0.249566
     73 H                     0.232554
     74 H                     0.216346
     75 H                     0.216622
     76 H                     0.234486
     77 H                     0.216362
     78 H                     0.216211
  ----------------------------------------
  Sum of atomic charges =    -0.000000

 -----------------------------------------------------------------
                    Cartesian Multipole Moments
 -----------------------------------------------------------------
    Charge (ESU x 10^10)
                -0.0000
    Dipole Moment (Debye)
         X       2.2643      Y      -7.2025      Z       0.0296
       Tot       7.5500
    Quadrupole Moments (Debye-Ang)
        XX    -260.0893     XY      18.6292     YY    -258.8789
        XZ       2.3707     YZ      -5.8995     ZZ    -250.7674
    Octopole Moments (Debye-Ang^2)
       XXX    -686.6624    XXY    1441.3121    XYY    -334.4295
       YYY    4763.6019    XXZ    -358.1629    XYZ     -32.9856
       YYZ    -311.1021    XZZ    -271.9484    YZZ    1485.9004
       ZZZ   -1076.1164
    Hexadecapole Moments (Debye-Ang^3)
      XXXX  -12902.5746   XXXY    9185.3453   XXYY  -14383.1403
      XYYY    9504.8421   YYYY  -79219.7885   XXXZ   -2097.6826
      XXYZ    2727.5179   XYYZ    -214.4474   YYYZ    7392.8825
      XXZZ   -3554.2682   XYZZ    3240.1717   YYZZ  -13692.6252
      XZZZ   -2084.8450   YZZZ    8320.9863   ZZZZ   -8293.0726
 -----------------------------------------------------------------
 Calculating analytic gradient of the CIS energy
 -1.202390606502316E-003 -1.202341146828513E-003
 -1.202359042793232E-003 -1.202372694128894E-003
 -1.202386465232859E-003 -1.202345307804766E-003
 -1.202369855628474E-003 -1.202361896393311E-003
 -1.202361417724600E-003 -1.202370294744717E-003
 -1.202372518731500E-003 -1.202359207346494E-003
 -1.202373197906244E-003 -1.202358528070851E-003
 -1.202364650893816E-003 -1.202367067419093E-003
 -1.202369281804790E-003 -1.202362477960114E-003
 -1.202351572572982E-003 -1.202380151424586E-003
 -1.202360280584021E-003 -1.202371427039241E-003
 -1.202359711142344E-003 -1.202372040002010E-003
 -1.202357996063569E-003 -1.202373740694826E-003
 -1.202351800458089E-003 -1.202379918889150E-003
 -1.202373417989957E-003 -1.202358313233159E-003
 -1.202350933321084E-003 -1.202380839304048E-003
 -1.202356769378360E-003 -1.202374960802501E-003
 -1.202385555658044E-003 -1.202346169086555E-003
 -1.202342342176039E-003 -1.202389419018840E-003
 -1.202345065409911E-003 -1.202386688880823E-003
 -1.202375701303165E-003 -1.202356048697804E-003
 -1.202327382980186E-003 -1.202404353598710E-003
 -1.202342083419383E-003 -1.202389652200943E-003
 -1.202367598253099E-003 -1.202364170897605E-003
 -1.202352297070635E-003 -1.202379477344698E-003
 -1.202346142114811E-003 -1.202385634984462E-003
 -1.202370708152001E-003 -1.202361060814967E-003
 -1.202359439035008E-003 -1.202372328349175E-003
 -1.202351493815953E-003 -1.202380230554994E-003
 -1.202361439530086E-003 -1.202370280681398E-003
 -1.202343266281976E-003 -1.202388488390445E-003
 -1.202339997585156E-003 -1.202391743106683E-003
 -1.202359875242366E-003 -1.202371862543583E-003
 -1.202355971235878E-003 -1.202375752747520E-003
 -1.202354496708555E-003 -1.202377211161766E-003
 -1.202370845111651E-003 -1.202360901694884E-003
 -1.202363758971722E-003 -1.202367989415944E-003
 -1.202359362751894E-003 -1.202372334864312E-003
 -1.202355562458546E-003 -1.202376161030543E-003
 -1.202374791938437E-003 -1.202356944124426E-003
 -1.202357177549166E-003 -1.202374540219718E-003
 -1.202352094967135E-003 -1.202379638429972E-003
 -1.202383281037006E-003 -1.202348448190116E-003
 -1.202365917015104E-003 -1.202365788669640E-003
 -1.202342253021415E-003 -1.202389521229697E-003
 -1.202373745490619E-003 -1.202358012672788E-003
 -1.202357332755255E-003 -1.202374405166989E-003
 -1.202335401602179E-003 -1.202396369892334E-003
 -1.202362621529965E-003 -1.202369141947070E-003
 -1.202354362988775E-003 -1.202377363444102E-003
 -1.202321904669303E-003 -1.202409838963537E-003
 -1.202371145627810E-003 -1.202360618899069E-003
 -1.202351561008370E-003 -1.202380206025515E-003
 -1.202344708456109E-003 -1.202387085939235E-003
 -1.202359783599408E-003 -1.202371934887886E-003
 -1.202350951434827E-003 -1.202380763872012E-003
 -1.202350813553688E-003 -1.202380956314928E-003
 -1.202362671772589E-003 -1.202369062015102E-003
 -1.202348423148608E-003 -1.202383324360988E-003
 -1.202337445975898E-003 -1.202394309640141E-003
 -1.202369547234939E-003 -1.202362199055457E-003
 -1.202355930025102E-003 -1.202375775667076E-003
 -1.202355944011602E-003 -1.202375777206198E-003
 -1.202378721902847E-003 -1.202353041590681E-003
 -1.202337256661730E-003 -1.202394489250121E-003
 -1.202374632535671E-003 -1.202357165807610E-003
 -1.202358412377628E-003 -1.202373358285561E-003
 -1.202376604388809E-003 -1.202355142509935E-003
 -1.202369206102388E-003 -1.202362596952390E-003
 -1.202375037977062E-003 -1.202356735277961E-003
 -1.202353701318755E-003 -1.202378040533662E-003
 -1.202374677434725E-003 -1.202357098870174E-003
 -1.202395104852548E-003 -1.202336656341382E-003
 -1.202342299245933E-003 -1.202389454584828E-003
 -1.202377518692864E-003 -1.202354275502498E-003
 -1.202383739611279E-003 -1.202348071209637E-003
 -1.202353282336129E-003 -1.202378530185586E-003
 -1.202373050939677E-003 -1.202358800756081E-003
 -1.202349595214617E-003 -1.202382196230967E-003
 -1.202377712121469E-003 -1.202354081026152E-003
 -1.202363008992600E-003 -1.202368809786523E-003
 -1.202364862360095E-003 -1.202366909527293E-003
 -1.202366222210362E-003 -1.202365541750117E-003
 -1.202365878782500E-003 -1.202365918788032E-003
 -1.202402693474692E-003 -1.202329062261468E-003
 -1.202360092938011E-003 -1.202371649234491E-003
 -1.202380251335847E-003 -1.202351539451629E-003
 -1.202365120688238E-003 -1.202366624877930E-003
 -1.202358087168665E-003 -1.202373630152390E-003
 -1.202365101588523E-003 -1.202366654038559E-003
 -1.202359164653209E-003 -1.202372582612346E-003
 -1.202369435550318E-003 -1.202362316434970E-003
 -1.202363086520986E-003 -1.202368704183855E-003
 -1.202360667783191E-003 -1.202371090885144E-003
 -1.202350727048812E-003 -1.202381054402770E-003
 -1.202362889780464E-003 -1.202368905146275E-003
 -1.202397585697978E-003 -1.202334168326168E-003
 -1.202347632080430E-003 -1.202384153901427E-003
 -1.202381474917350E-003 -1.202350301623427E-003
 -1.202343613026298E-003 -1.202388139370495E-003
 -1.202369934493122E-003 -1.202361814566945E-003
 -1.202374360298090E-003 -1.202357405082511E-003
 -1.202364225987300E-003 -1.202367540160237E-003
 -1.202377250313752E-003 -1.202354525734423E-003
 -1.202373373006772E-003 -1.202358409783282E-003
 -1.202357140251686E-003 -1.202374625100809E-003
 -1.202379004449546E-003 -1.202352753481090E-003
 -1.202359156572477E-003 -1.202372608624392E-003
 -1.202339971988444E-003 -1.202391777084183E-003
 -1.202362018745425E-003 -1.202369772997044E-003
 -1.202391527799572E-003 -1.202340249310000E-003
 -1.202340430675308E-003 -1.202391313144164E-003
 -1.202360922162710E-003 -1.202370847180456E-003
 -1.202370538712588E-003 -1.202361220507984E-003
 -1.202355323568171E-003 -1.202376430525465E-003
 -1.202361920674401E-003 -1.202369853752170E-003
 -1.202352308077653E-003 -1.202379432427982E-003
 -1.202355461746320E-003 -1.202376299367979E-003
 -1.202392154681847E-003 -1.202339642444967E-003
 -1.202357875860780E-003 -1.202373886240453E-003
 -1.202367122902494E-003 -1.202364644386482E-003
 -1.202365044635318E-003 -1.202366753139329E-003
 -1.202385491527070E-003 -1.202346263858997E-003
 -1.202351680969985E-003 -1.202380067639219E-003
 -1.202391889185522E-003 -1.202339878643965E-003
 -1.202349330652939E-003 -1.202382437445146E-003
 -1.202370795321689E-003 -1.202360957415537E-003
 -1.202373666223525E-003 -1.202358129723027E-003
 -1.202380474464971E-003 -1.202351295756153E-003
 -1.202366561632232E-003 -1.202365188596343E-003
 -1.202367636054993E-003 -1.202364136222424E-003
 -1.202362047127360E-003 -1.202369710106321E-003
 -1.202381184630801E-003 -1.202350568620692E-003
 -1.202374720425253E-003 -1.202357090599361E-003
 -1.202374521666038E-003 -1.202357237406331E-003
 -1.202342767702275E-003 -1.202388979230101E-003
 -1.202389682622792E-003 -1.202342106483230E-003
 -1.202357725488294E-003 -1.202374037119393E-003
 -1.202383791867937E-003 -1.202347949551686E-003
 -1.202370966355351E-003 -1.202360833548519E-003
 -1.202370767485322E-003 -1.202360995344762E-003
 -1.202345560569273E-003 -1.202386172254957E-003
 -1.202383958251223E-003 -1.202347855797247E-003
 -1.202367879386217E-003 -1.202363883311428E-003
 -1.202377467621026E-003 -1.202354275819974E-003
 -1.202386004194622E-003 -1.202345784387608E-003
 -1.202344400425376E-003 -1.202387355821379E-003
 -1.202396728687983E-003 -1.202335027374413E-003
 -1.202384223987034E-003 -1.202347591372005E-003
 -1.202350053745076E-003 -1.202381697841983E-003
 -1.202354860918885E-003 -1.202376872972441E-003
 -1.202378277178778E-003 -1.202353510390845E-003
 -1.202366166162524E-003 -1.202365603648986E-003
 -1.202359914714381E-003 -1.202371825939618E-003
 -1.202371358778716E-003 -1.202360423364283E-003
 -1.202352877019421E-003 -1.202378882056241E-003
 -1.202367855265152E-003 -1.202363910417851E-003
 -1.202374673093475E-003 -1.202357135169301E-003
 -1.202371782396652E-003 -1.202359975309840E-003
 -1.202375536422656E-003 -1.202356223484539E-003
 -1.202383645270787E-003 -1.202348097885641E-003
 -1.202353396051416E-003 -1.202378361268348E-003
 -1.202369286281539E-003 -1.202362474317422E-003
 -1.202386406997363E-003 -1.202345351533113E-003
 -1.202385356488714E-003 -1.202346397406048E-003
 -1.202359189436500E-003 -1.202372562856257E-003
 -1.202375577283162E-003 -1.202356214778140E-003
 -1.202356173967689E-003 -1.202375554784143E-003
 -1.202361049618970E-003 -1.202370700353042E-003
 -1.202345840742463E-003 -1.202385901480296E-003
 -1.202345203750764E-003 -1.202386554800760E-003
 -1.202364881860755E-003 -1.202366879424875E-003
 -1.202352504442460E-003 -1.202379274650430E-003
 -1.202357794757094E-003 -1.202373953595054E-003
 -1.202382389867643E-003 -1.202349391744912E-003
 -1.202363212234966E-003 -1.202368537746725E-003
 -1.202380194008278E-003 -1.202351578357513E-003
 -1.202375710214559E-003 -1.202356077849934E-003
 -1.202368879044383E-003 -1.202362892372551E-003
 -1.202368833787163E-003 -1.202362934824698E-003
 -1.202384372783303E-003 -1.202347406159991E-003
 -1.202367763968989E-003 -1.202363989818065E-003
 -1.202373333512412E-003 -1.202358438300703E-003
 -1.202367343281034E-003 -1.202364426513174E-003
 -1.202376043113579E-003 -1.202355725896185E-003
 -1.202368073445802E-003 -1.202363702102053E-003
 -1.202381328899695E-003 -1.202350437930411E-003
 -1.202369920964317E-003 -1.202361824143245E-003
 -1.202392154685223E-003 -1.202339609989016E-003
 -1.202372711802931E-003 -1.202359037235801E-003
 -1.202370767624445E-003 -1.202360948593292E-003
 -1.202381671674181E-003 -1.202350060390335E-003
 -1.202376979910562E-003 -1.202354789779709E-003
 -1.202359700275850E-003 -1.202372064068883E-003
 -1.202371122790863E-003 -1.202360637646432E-003
 -1.202379235273757E-003 -1.202352533180290E-003
 -1.202371699685616E-003 -1.202360055096480E-003
 -1.202376309861176E-003 -1.202355450251491E-003
 -1.202361757570165E-003 -1.202369997501100E-003
 -1.202383811079585E-003 -1.202347938076172E-003
 -1.202356539685523E-003 -1.202375219778009E-003
 -1.202378725280866E-003 -1.202353008392450E-003
 -1.202360529906807E-003 -1.202371249070944E-003
 -1.202382671235519E-003 -1.202349096637594E-003
 -1.202380004649701E-003 -1.202351757658985E-003
 -1.202376029247003E-003 -1.202355720398546E-003
 -1.202380326804613E-003 -1.202351441685569E-003
 -1.202387924018738E-003 -1.202343815193674E-003
 -1.202375890703656E-003 -1.202355858700964E-003
 -1.202364883409676E-003 -1.202366849738474E-003
 -1.202364060829826E-003 -1.202367663396716E-003
 -1.202366111443027E-003 -1.202365640170989E-003
 -1.202388175807086E-003 -1.202343567511127E-003
 -1.202375548336934E-003 -1.202356222750525E-003
 -1.202360613311948E-003 -1.202371155178272E-003
 -1.202376027514565E-003 -1.202355737604353E-003
 -1.202358453935548E-003 -1.202373290173987E-003
 -1.202369036455183E-003 -1.202362679304766E-003
 -1.202357869241303E-003 -1.202373869473931E-003
 -1.202352634046458E-003 -1.202379110063816E-003
 -1.202376791192302E-003 -1.202354973545261E-003
 -1.202361301366070E-003 -1.202370445348796E-003
 -1.202356332496706E-003 -1.202375427049415E-003
 -1.202379134572608E-003 -1.202352607442634E-003
 -1.202357332986073E-003 -1.202374420025714E-003
 -1.202361592300711E-003 -1.202370171292321E-003
 -1.202387065946285E-003 -1.202344678498668E-003
 -1.202373476772020E-003 -1.202358252420894E-003
 -1.202354614901186E-003 -1.202377142866063E-003
 -1.202386857085335E-003 -1.202344900553402E-003
 -1.202355087855958E-003 -1.202376651248243E-003
 -1.202347391619459E-003 -1.202384347362122E-003
 -1.202382076760431E-003 -1.202349700268910E-003
 -1.202362695613130E-003 -1.202369046931267E-003
 CIS relaxed dipole moment
            1
    1   7.8394381
    2 -14.6805378
    3   2.1792560
	Magnitude:	16.785 au	42.662 Debye
 CIS 1 State Energy is -1855.3653597203
 Gradient of the state energy (including CIS Excitation Energy)
            1           2           3           4           5           6
    1  -0.0034073  -0.0106909   0.0046860  -0.0002968   0.0007167  -0.0043758
    2  -0.0157585   0.0050630   0.0055680   0.0015278  -0.0017164  -0.0007177
    3  -0.0129024   0.0105408  -0.0094042  -0.0125244  -0.0021059  -0.0080420
            7           8           9          10          11          12
    1   0.0019929   0.0055036   0.0041454  -0.0058159   0.0012399   0.0043774
    2  -0.0002961   0.0028482   0.0009268  -0.0012591  -0.0001645   0.0030357
    3  -0.0034374   0.0030435   0.0002483   0.0108556   0.0013174   0.0193877
           13          14          15          16          17          18
    1  -0.0099256  -0.0013135  -0.0069484  -0.0027270   0.0019429   0.0009433
    2  -0.0026318  -0.0019957  -0.0024129  -0.0016773   0.0018318  -0.0002064
    3  -0.0014555   0.0006045  -0.0000209   0.0023442   0.0040455   0.0042043
           19          20          21          22          23          24
    1   0.0093230   0.0014819   0.0175598   0.0518140  -0.0235882  -0.0067755
    2   0.0032770  -0.0001756   0.0069343  -0.0217774   0.0343659  -0.0000805
    3  -0.0062629   0.0007284  -0.0002724   0.0125419  -0.0061549  -0.0023955
           25          26          27          28          29          30
    1   0.0579317  -0.0190825   0.0034814  -0.0276490   0.0031160   0.0052210
    2  -0.0201764   0.0205733  -0.0030928  -0.0135883   0.0123348   0.0022546
    3   0.0223865  -0.0057857   0.0011756  -0.0066786   0.0024598   0.0040072
           31          32          33          34          35          36
    1  -0.0522031   0.0000847   0.0016052   0.0036117   0.0035994   0.0231362
    2  -0.0058799   0.0114852   0.0062181   0.0019811   0.0008518  -0.0027409
    3  -0.0238734   0.0018646   0.0013036  -0.0034209  -0.0019639  -0.0036017
           37          38          39          40          41          42
    1  -0.0012787  -0.0025692   0.0005829   0.0173843   0.0061758   0.0263709
    2   0.0079935  -0.0095684   0.0038993  -0.0006707  -0.0015528  -0.0032587
    3  -0.0079897   0.0114219  -0.0049294  -0.0043583  -0.0002490  -0.0042764
           43          44          45          46          47          48
    1  -0.0115626  -0.0292768  -0.0126394  -0.0052794  -0.0001170  -0.0051883
    2   0.0108680   0.0261718   0.0106805  -0.0175798  -0.0044235  -0.0107979
    3  -0.0091104  -0.0232777  -0.0086093   0.0202846   0.0046964   0.0131202
           49          50          51          52          53          54
    1   0.0144073  -0.0108264  -0.0043810  -0.0060807  -0.0024121  -0.0041808
    2  -0.0015813   0.0040562  -0.0147565   0.0010533  -0.0018929  -0.0014883
    3  -0.0021573  -0.0007666   0.0177509   0.0004736   0.0028682   0.0027505
           55          56          57          58          59          60
    1  -0.0032815  -0.0010131   0.0012093   0.0146025   0.0009537  -0.0091489
    2   0.0031525  -0.0041678   0.0043496  -0.0268996   0.0040266  -0.0036328
    3  -0.0026475  -0.0038109   0.0039476   0.0054291   0.0034993  -0.0145093
           61          62          63          64          65          66
    1  -0.0050460  -0.0068012  -0.0010165   0.0054112   0.0008975  -0.0012451
    2   0.0108501   0.0095355   0.0005163  -0.0034897  -0.0019516  -0.0045854
    3   0.0070693  -0.0005702   0.0014795   0.0028413   0.0000273  -0.0043585
           67          68          69          70          71          72
    1  -0.0002339   0.0022941  -0.0069973   0.0057058  -0.0034823  -0.0026813
    2   0.0147524  -0.0199789   0.0006485  -0.0021210   0.0060860  -0.0022464
    3  -0.0013366   0.0027271  -0.0008402  -0.0047557   0.0041948  -0.0048490
           73          74          75          76          77          78
    1  -0.0022891   0.0006735   0.0035127  -0.0004060   0.0046638   0.0018747
    2  -0.0016068  -0.0049286  -0.0037252   0.0047640   0.0000407  -0.0012694
    3  -0.0039099   0.0012768  -0.0009297   0.0020252   0.0028174   0.0047841
 Gradient time:  CPU 2620.63 s  wall 418.53 s
 Geometry Optimization Parameters
   NAtoms,    NIC,     NZ,  NCons,   NDum,   NFix, NCnnct, MaxDiis
       78     630       0       0       0       0       0       0


** GEOMETRY OPTIMIZATION IN DELOCALIZED INTERNAL COORDINATES **
   Searching for a Minimum

   Optimization Cycle:   1

                       Coordinates (Angstroms)
     ATOM                X               Y               Z
      1  C         0.1804200000   -4.4626400000    1.0434900000
      2  C         0.1600700000   -4.4340500000    2.6056200000
      3  C         1.6208500000   -3.9082800000    0.7880100000
      4  C         2.2509800000   -3.7011200000   -0.4340200000
      5  H         1.7518600000   -3.9292800000   -1.3701900000
      6  C         3.5518200000   -3.1975900000   -0.4237400000
      7  H         4.0725800000   -3.0273700000   -1.3633800000
      8  C         4.2010900000   -2.9112400000    0.7887300000
      9  H         5.2168500000   -2.5219500000    0.7728200000
     10  C         3.5629100000   -3.1232900000    2.0155400000
     11  H         4.0797900000   -2.9007500000    2.9431800000
     12  C         2.2712600000   -3.6228800000    2.0122800000
     13  C        -0.8693000000   -4.8278800000    3.4530300000
     14  H        -1.8026900000   -5.2184600000    3.0615100000
     15  C        -0.6669700000   -4.7139400000    4.8286000000
     16  H        -1.4525600000   -5.0172200000    5.5170400000
     17  C         0.5439900000   -4.2158200000    5.3371700000
     18  H         0.6808100000   -4.1390700000    6.4136700000
     19  C         1.5779200000   -3.8237400000    4.4803100000
     20  H         2.5099000000   -3.4477100000    4.8891500000
     21  C         1.3832300000   -3.9347400000    3.1134900000
     22  C        -2.1355700000   -3.6841000000    0.0018200000
     23  C        -3.0546600000   -2.6389400000   -0.2608600000
     24  H        -4.0236200000   -2.8769000000   -0.7042900000
     25  C        -2.7593500000   -1.3016100000    0.0204500000
     26  C        -3.7365800000   -0.2952500000   -0.2790800000
     27  N        -4.5436300000    0.4981700000   -0.5331100000
     28  C        -0.8817200000   -3.4015200000    0.5734700000
     29  C        -0.6188900000   -2.0264600000    0.8540300000
     30  H         0.3230300000   -1.7400100000    1.3261400000
     31  C        -1.5272700000   -0.9908100000    0.5807000000
     32  C        -1.1598900000    0.3588500000    0.9015000000
     33  N        -0.8521400000    1.4463600000    1.1625500000
     34  H         5.7059000000   -7.5001700000   -1.1134100000
     35  H         7.3271100000   -9.0091600000    0.0076500000
     36  C         5.3784100000   -8.1698600000   -0.3233300000
     37  C         6.2815100000   -9.0100800000    0.3025600000
     38  C         4.0389400000   -8.1855600000    0.0667000000
     39  H         3.3673900000   -7.5066600000   -0.4527600000
     40  C         5.8393700000   -9.8566400000    1.3163200000
     41  H         6.5758300000  -10.5043100000    1.7870700000
     42  C         3.5618900000   -9.0362800000    1.0931600000
     43  C         4.4842400000   -9.8851000000    1.7318000000
     44  N         2.1731300000   -9.0346200000    1.4710600000
     45  C         2.5619300000  -10.7460100000    3.2177700000
     46  C         1.6937000000   -9.8728100000    2.5375800000
     47  H         2.6832700000  -12.2465400000    4.7971500000
     48  C         2.0386700000  -11.5574600000    4.2556900000
     49  C         0.3353000000   -9.8397200000    2.9350500000
     50  C         0.6963600000  -11.5078200000    4.6238200000
     51  C        -0.1583000000  -10.6441700000    3.9626200000
     52  H        -0.3715400000   -9.1738400000    2.4468900000
     53  H         0.3252800000  -12.1405400000    5.4252600000
     54  H        -1.2072100000  -10.5896300000    4.2396100000
     55  C         4.0519000000  -10.8340800000    2.8584000000
     56  C         4.8777400000  -10.4895200000    4.1258000000
     57  C         4.3580300000  -12.2871800000    2.4130900000
     58  C         1.2540600000   -8.1826200000    0.7754500000
     59  C         0.5549900000   -8.6470800000   -0.3310100000
     60  C        -0.3199200000   -7.7935600000   -0.9934900000
     61  C        -0.5220300000   -6.4572500000   -0.5707600000
     62  C         0.1823900000   -5.9451900000    0.5368000000
     63  C         1.0638800000   -6.8556500000    1.1908200000
     64  H         1.6587900000   -6.5341200000    2.0455400000
     65  H         0.6934900000   -9.6685000000   -0.6741800000
     66  H        -0.8594400000   -8.1859200000   -1.8545000000
     67  C        -1.5349200000   -5.6638700000   -1.3442100000
     68  C        -2.5608400000   -5.0686700000   -0.3965300000
     69  H        -2.0681700000   -6.3253100000   -2.0393200000
     70  H        -1.0273400000   -4.9141700000   -1.9639800000
     71  H        -2.7362500000   -5.6796900000    0.4975700000
     72  H        -3.5211500000   -5.0220500000   -0.9260300000
     73  H         3.7836900000  -12.5529200000    1.5166000000
     74  H         4.1116000000  -13.0213800000    3.1879400000
     75  H         5.4175200000  -12.4368500000    2.1780500000
     76  H         4.6762600000   -9.4635200000    4.4589100000
     77  H         5.9569300000  -10.5718200000    3.9570900000
     78  H         4.6525600000  -11.1555100000    4.9658000000
   Point Group: c1    Number of degrees of freedom:   228


   Energy is  -1855.365359720


 Attempting to Generate Delocalized Internal Coordinates

228 Hessian modes will be used to form the next step
  Hessian Eigenvalues:
     0.002371    0.002521    0.003639    0.005841    0.006634    0.010632
     0.011172    0.011235    0.011605    0.012634    0.012958    0.012987
     0.013039    0.014644    0.014728    0.015339    0.015743    0.015848
     0.016913    0.017262    0.018014    0.018381    0.018438    0.019057
     0.019797    0.020184    0.020385    0.020759    0.021010    0.021258
     0.021385    0.021508    0.021535    0.021582    0.021596    0.021655
     0.021665    0.021870    0.022112    0.022130    0.022444    0.022454
     0.022506    0.022514    0.022727    0.022812    0.023120    0.023371
     0.023384    0.023391    0.023447    0.023449    0.023564    0.023570
     0.023572    0.023575    0.023684    0.023690    0.023794    0.024084
     0.024090    0.035692    0.044215    0.049960    0.052105    0.052311
     0.053087    0.053261    0.054321    0.055939    0.056086    0.068795
     0.077369    0.077661    0.085717    0.091029    0.091928    0.111417
     0.114845    0.124033    0.135213    0.159859    0.159953    0.159993
     0.159996    0.159996    0.159996    0.159997    0.159998    0.159998
     0.159998    0.159999    0.159999    0.159999    0.159999    0.159999
     0.160000    0.160000    0.160000    0.160000    0.160000    0.160000
     0.160000    0.160000    0.160000    0.160000    0.160000    0.160000
     0.160312    0.175918    0.189723    0.200000    0.200000    0.200000
     0.200000    0.217397    0.220000    0.220000    0.220000    0.220000
     0.224386    0.225955    0.225956    0.225980    0.226332    0.230830
     0.234989    0.239828    0.244679    0.244957    0.245310    0.245894
     0.245939    0.249223    0.249615    0.249948    0.249955    0.249977
     0.249984    0.249989    0.250000    0.250000    0.254752    0.260574
     0.261675    0.263923    0.275272    0.276233    0.283703    0.287450
     0.288347    0.313134    0.317005    0.339331    0.339483    0.339741
     0.339768    0.339960    0.340099    0.341821    0.341824    0.341967
     0.341987    0.345988    0.345996    0.348261    0.349047    0.350542
     0.350568    0.350599    0.350603    0.350799    0.350804    0.351533
     0.351751    0.352279    0.352327    0.352330    0.352484    0.352512
     0.353769    0.353980    0.354018    0.354060    0.365444    0.372652
     0.378985    0.380076    0.391913    0.392845    0.395055    0.400674
     0.400898    0.401047    0.402244    0.402676    0.403658    0.405130
     0.405730    0.410364    0.423957    0.425363    0.426182    0.428721
     0.429356    0.435544    0.436476    0.439522    0.442033    0.443956
     0.451960    0.453567    0.453588    0.458130    0.458180    0.460104
     0.460793    0.461457    0.467773    0.468037    0.468516    0.470743
     0.476601    0.476840    0.477737    0.477903    1.278120    1.278568

 Minimum Search - Taking Simple RFO Step
 Searching for Lamda that Minimizes Along All modes
 Value Taken    Lamda =  -0.06610290
 Calculated Step too Large.  Step scaled by  0.702685
 Step Taken.  Stepsize is  0.300000

                             Maximum     Tolerance    Cnvgd?
         Gradient           0.076204      0.000300      NO
         Displacement       0.131979      0.001200      NO
         Energy change     *********      0.000001      NO


 New Cartesian Coordinates Obtained by Inverse Iteration

 Displacement from previous Coordinates is:  2.399573
 Adding empirical dispersion correction 
 ----------------------------------------------------------------
 Doing -D3(BJ) with
 s6 =   1.00000
 s8 =   0.00000
 a1 =   0.48600
 a2 =   4.50000
 -D3 energy including 3body term =     -0.0767688819 hartrees
 ----------------------------------------------------------------
 Adding gCP correction 
 ----------------------------------------------------------------
 gCP energy =      0.1074885003 hartrees
 ----------------------------------------------------------------
             Standard Nuclear Orientation (Angstroms)
    I     Atom           X                Y                Z
 ----------------------------------------------------------------
    1      C       0.1781886858    -4.5287451948     1.0303272664
    2      C       0.1690241218    -4.5390496532     2.5722090882
    3      C       1.6137820017    -4.0207880547     0.7772451181
    4      C       2.2318540097    -3.8126897947    -0.4401014752
    5      H       1.7081887830    -4.0059708817    -1.3688046028
    6      C       3.5429264958    -3.3455753828    -0.4463306534
    7      H       4.0491830123    -3.1704979181    -1.3890166542
    8      C       4.2138263087    -3.0964709849     0.7500718303
    9      H       5.2343981550    -2.7315038107     0.7243970999
   10      C       3.5881627864    -3.3104944993     1.9747526543
   11      H       4.1208504444    -3.1144266250     2.8976535740
   12      C       2.2826711349    -3.7755334543     1.9837046619
   13      C      -0.8618196080    -4.9230345882     3.4097532339
   14      H      -1.8037973031    -5.2751647513     3.0065316633
   15      C      -0.6627456810    -4.8431391217     4.7839241530
   16      H      -1.4566510545    -5.1366042789     5.4614575051
   17      C       0.5494085995    -4.3875288265     5.3037241140
   18      H       0.6839038327    -4.3322682100     6.3779922422
   19      C       1.5860709926    -4.0055600568     4.4575133602
   20      H       2.5246256673    -3.6574223910     4.8725075682
   21      C       1.3912630503    -4.0846945098     3.0882061403
   22      C      -2.1267888192    -3.7047588469     0.0111631797
   23      C      -3.0002111583    -2.6528487901    -0.2231454868
   24      H      -3.9718126996    -2.8635643345    -0.6590030701
   25      C      -2.6680670732    -1.3212554039     0.0708674924
   26      C      -3.6057111631    -0.2966805406    -0.2024679034
   27      N      -4.3929947670     0.5234927266    -0.4390153307
   28      C      -0.8476128460    -3.4617421389     0.5771231857
   29      C      -0.5274164221    -2.1278076478     0.8735775691
   30      H       0.4277228835    -1.8911609688     1.3323167898
   31      C      -1.3900204470    -1.0652516965     0.6317061912
   32      C      -0.9565421815     0.2453093984     0.9688674003
   33      N      -0.5921505444     1.3092291401     1.2456852185
   34      H       5.5228234753    -7.3399049255    -1.0822216699
   35      H       7.2064234188    -8.7920228367     0.0407610805
   36      C       5.2279546855    -8.0182106937    -0.2924946482
   37      C       6.1657476691    -8.8291995244     0.3376591597
   38      C       3.9062734283    -8.0766277526     0.0935006011
   39      H       3.1919795671    -7.4346514462    -0.4073158897
   40      C       5.7703570899    -9.6891654885     1.3540575211
   41      H       6.5220770893   -10.3090724355     1.8277662517
   42      C       3.4993357031    -8.9460923209     1.1216693070
   43      C       4.4419939232    -9.7635132871     1.7681107693
   44      N       2.1536813661    -8.9823705827     1.4845262820
   45      C       2.5681077001   -10.6405067571     3.2175786657
   46      C       1.6911457887    -9.7915774728     2.5207842864
   47      H       2.6924930354   -12.1023315423     4.7906976522
   48      C       2.0447734838   -11.4333048951     4.2370116426
   49      C       0.3283908106    -9.7490493689     2.8658819267
   50      C       0.6974169822   -11.3894996103     4.5704178202
   51      C      -0.1626367604   -10.5408600519     3.8816427966
   52      H      -0.3558510403    -9.0912678185     2.3443696390
   53      H       0.3214422394   -12.0161711416     5.3694701828
   54      H      -1.2136924080   -10.4935059490     4.1345615842
   55      C       4.0461868152   -10.7097048436     2.8857640537
   56      C       4.8494486739   -10.3377738815     4.1502007277
   57      C       4.3848567728   -12.1520684432     2.4521045523
   58      C       1.2268340025    -8.1615665554     0.7740807284
   59      C       0.5488540880    -8.6603077416    -0.3260638127
   60      C      -0.3271277428    -7.8235193069    -0.9901726551
   61      C      -0.5408137041    -6.4956632298    -0.5848912244
   62      C       0.1567655903    -5.9812277772     0.5156034366
   63      C       1.0300360853    -6.8523988572     1.1809932357
   64      H       1.6052163082    -6.5009777670     2.0327027357
   65      H       0.7009656503    -9.6819908230    -0.6570166785
   66      H      -0.8645083671    -8.2168811407    -1.8455856075
   67      C      -1.5556478600    -5.6988365982    -1.3491510490
   68      C      -2.5718809688    -5.0767377328    -0.3980146908
   69      H      -2.0765176229    -6.3597831360    -2.0489870820
   70      H      -1.0565025099    -4.9392158020    -1.9572838975
   71      H      -2.7372793965    -5.7086775221     0.4827069558
   72      H      -3.5362893468    -5.0079767193    -0.9086108417
   73      H       3.8253987087   -12.4361095066     1.5571739564
   74      H       4.1468402958   -12.8758490488     3.2341452201
   75      H       5.4471798905   -12.2680353931     2.2285172828
   76      H       4.6233499788    -9.3189831653     4.4740276756
   77      H       5.9256554017   -10.4000920315     3.9784202512
   78      H       4.6265028123   -11.0071649848     4.9832486427
 ----------------------------------------------------------------
 Nuclear Repulsion Energy =  5517.6522255480 hartrees
 There are      158 alpha and      158 beta electrons
 Nucleus-field energy     =     0.0000001021 hartrees
 Requested basis set is def2-mSVP
 There are 391 shells and 767 basis functions
 A cutoff of  1.0D-11 yielded  34773 shell pairs
 There are    139547 function pairs (    153966 Cartesian)
 Smallest overlap matrix eigenvalue = 2.63E-04
 Guess MOs from SCF MO coefficient file
 Reading MOs from coefficient file
 Reading MOs from coefficient file
 A restricted hybrid HF-DFT SCF calculation will be
 performed using Pulay DIIS extrapolation
 Exchange:     0.4200 Hartree-Fock + 0.5800 PBEh-3c
 Correlation:  1.0000 PBEh-3c
 Using SG-1 standard quadrature grid
 Dispersion:   Grimme D3
 SCF converges when DIIS error is below 1.0E-08
 Geometry optimization detected.  Setting ReadMinima to 0
 Setting SaveMinima to 0
 using 8 threads for integral computing
 -------------------------------------------------------
 OpenMP Integral computing Module                
 Release: version 1.0, May 2013, Q-Chem Inc. Pittsburgh 
 -------------------------------------------------------
 ---------------------------------------
  Cycle       Energy         DIIS Error
 ---------------------------------------
    1   -1855.7959664006      9.93E-04
    2   -1855.5230331299      1.56E-04
    3   -1855.5211261189      2.32E-04
    4   -1855.5252325081      3.20E-05
    5   -1855.5252896358      1.82E-05
    6   -1855.5253138300      6.66E-06
    7   -1855.5253169659      2.85E-06
    8   -1855.5253175648      8.45E-07
    9   -1855.5253176144      3.89E-07
   10   -1855.5253176179      1.31E-07
   11   -1855.5253176254      5.15E-08
   12   -1855.5253176249      1.99E-08
   13   -1855.5253176259      8.44E-09 Convergence criterion met
 ---------------------------------------
 SCF time:  CPU 2734.72 s  wall 606.36 s
 SCF   energy in the final basis set = -1855.52531763
 Total energy in the final basis set = -1855.52531763
 
 Direct TDDFT/TDA calculation will be performed
 Exchange:     0.4200 Hartree-Fock + 0.5800 PBEh-3c
 Correlation:  1.0000 PBEh-3c
 Using SG-1 standard quadrature grid
 Dispersion:   Grimme D3
 Singlet excitation energies requested
 CIS energy converged when residual is below 10e- 6
 ---------------------------------------------------
 Iter    Rts Conv    Rts Left    Ttl Dev     Max Dev
 ---------------------------------------------------
   1         0           2      0.000037    0.000024
   2         0           2      0.000039    0.000034
   3         0           2      0.000023    0.000020
   4         0           2      0.000013    0.000012
   5         1           1      0.000017    0.000016
   6         1           1      0.000007    0.000007
   7         1           1      0.000004    0.000003
   8         1           1      0.000003    0.000002
   9         1           1      0.000002    0.000001
  10         2           0      0.000002    0.000001    Roots Converged
 ---------------------------------------------------
 
 ---------------------------------------------------
         TDDFT/TDA Excitation Energies              
 ---------------------------------------------------

 Excited state   1: excitation energy (eV) =    3.5048
 Total energy for state  1:                 -1855.39651905 au
    Multiplicity: Singlet
    Trans. Mom.: -0.0255 X   0.0578 Y  -0.0077 Z
    Strength   :     0.0003476937
    D(158) --> V(  1) amplitude =  0.9973

 Excited state   2: excitation energy (eV) =    3.9948
 Total energy for state  2:                 -1855.37851084 au
    Multiplicity: Singlet
    Trans. Mom.: -0.0442 X  -0.0629 Y   0.0175 Z
    Strength   :     0.0006079858
    D(158) --> V(  2) amplitude =  0.8404
    D(158) --> V(  3) amplitude = -0.2193
    D(158) --> V(  4) amplitude = -0.2624
    D(158) --> V(  5) amplitude = -0.3886
 
 ---------------------------------------------------
 Calculating Relaxed Density
 ---------------------------------------------------
 Iter    Rts Conv    Rts Left    Ttl Dev     Max Dev
 ---------------------------------------------------
   1         0           2      0.000578    0.000340
   2         0           2      0.000183    0.000106
   3         0           2      0.000063    0.000035
   4         0           2      0.000025    0.000015
   5         0           2      0.000009    0.000005
   6         0           2      0.000003    0.000002
   7         2           0      0.000000    0.000000    Roots Converged
 ---------------------------------------------------
  SETman timing summary (seconds)
  CPU time              7766.44s
  System time              0.01s
  Wall time             1102.42s
 
 --------------------------------------------------------------
 
                    Orbital Energies (a.u.)
 --------------------------------------------------------------
 
 Alpha MOs
 -- Occupied --
-14.679 -14.660 -14.656 -10.526 -10.524 -10.517 -10.512 -10.503
-10.503 -10.500 -10.499 -10.496 -10.495 -10.494 -10.494 -10.489
-10.482 -10.479 -10.478 -10.475 -10.474 -10.474 -10.470 -10.470
-10.468 -10.468 -10.467 -10.467 -10.467 -10.466 -10.466 -10.465
-10.465 -10.465 -10.464 -10.453 -10.452 -10.446 -10.446 -10.445
-10.443 -10.442 -10.440 -10.438 -10.437 -10.427 -10.427  -1.090
 -1.037  -1.026  -1.017  -1.000  -0.986  -0.966  -0.959  -0.957
 -0.936  -0.932  -0.908  -0.897  -0.890  -0.884  -0.857  -0.855
 -0.849  -0.844  -0.836  -0.824  -0.816  -0.806  -0.793  -0.772
 -0.769  -0.745  -0.731  -0.725  -0.713  -0.709  -0.707  -0.689
 -0.680  -0.678  -0.671  -0.670  -0.665  -0.645  -0.616  -0.615
 -0.613  -0.610  -0.595  -0.584  -0.581  -0.572  -0.565  -0.560
 -0.538  -0.536  -0.535  -0.531  -0.529  -0.525  -0.524  -0.522
 -0.516  -0.509  -0.506  -0.502  -0.502  -0.500  -0.493  -0.492
 -0.489  -0.485  -0.482  -0.478  -0.476  -0.470  -0.461  -0.452
 -0.451  -0.450  -0.441  -0.439  -0.439  -0.437  -0.434  -0.429
 -0.427  -0.425  -0.424  -0.423  -0.421  -0.416  -0.414  -0.413
 -0.410  -0.404  -0.399  -0.396  -0.395  -0.395  -0.391  -0.375
 -0.371  -0.366  -0.349  -0.338  -0.321  -0.311  -0.307  -0.302
 -0.298  -0.291  -0.288  -0.283  -0.269  -0.222
 -- Virtual --
 -0.068  -0.040  -0.031  -0.018  -0.011  -0.004   0.012   0.015
  0.018   0.030   0.047   0.049   0.058   0.063   0.080   0.109
  0.111   0.121   0.123   0.129   0.130   0.136   0.147   0.150
  0.151   0.153   0.157   0.160   0.163   0.175   0.179   0.187
  0.189   0.189   0.192   0.195   0.199   0.201   0.205   0.209
  0.213   0.216   0.218   0.219   0.220   0.222   0.226   0.228
  0.233   0.235   0.237   0.238   0.241   0.244   0.250   0.251
  0.258   0.259   0.263   0.263   0.269   0.271   0.274   0.279
  0.285   0.288   0.289   0.291   0.296   0.298   0.302   0.304
  0.308   0.314   0.324   0.331   0.339   0.340   0.347   0.355
  0.360   0.366   0.373   0.374   0.376   0.380   0.388   0.394
  0.399   0.412   0.415   0.419   0.426   0.437   0.440   0.446
  0.460   0.463   0.470   0.477   0.481   0.486   0.489   0.490
  0.502   0.502   0.507   0.508   0.508   0.515   0.518   0.520
  0.524   0.525   0.533   0.534   0.538   0.539   0.544   0.547
  0.551   0.551   0.556   0.556   0.564   0.567   0.567   0.571
  0.572   0.572   0.578   0.579   0.587   0.589   0.591   0.594
  0.596   0.601   0.604   0.607   0.609   0.612   0.615   0.617
  0.620   0.622   0.627   0.627   0.631   0.631   0.633   0.634
  0.638   0.640   0.644   0.646   0.648   0.654   0.658   0.661
  0.664   0.666   0.673   0.678   0.682   0.685   0.690   0.693
  0.694   0.698   0.705   0.708   0.712   0.714   0.716   0.718
  0.724   0.730   0.732   0.736   0.738   0.748   0.752   0.755
  0.759   0.762   0.767   0.773   0.774   0.780   0.788   0.796
  0.802   0.807   0.809   0.809   0.816   0.821   0.827   0.838
  0.853   0.863   0.872   0.874   0.879   0.886   0.894   0.898
  0.904   0.908   0.914   0.914   0.918   0.925   0.926   0.935
  0.938   0.945   0.950   0.953   0.956   0.959   0.964   0.965
  0.970   0.974   0.976   0.979   0.984   0.986   0.989   0.990
  0.994   0.998   1.004   1.005   1.007   1.010   1.019   1.031
  1.033   1.036   1.043   1.044   1.049   1.049   1.050   1.052
  1.054   1.058   1.067   1.069   1.072   1.079   1.084   1.086
  1.087   1.092   1.099   1.100   1.106   1.108   1.110   1.116
  1.121   1.124   1.129   1.134   1.136   1.138   1.143   1.147
  1.157   1.160   1.161   1.167   1.172   1.176   1.183   1.203
  1.211   1.217   1.222   1.230   1.242   1.248   1.254   1.262
  1.269   1.281   1.283   1.294   1.300   1.304   1.307   1.311
  1.316   1.320   1.322   1.325   1.328   1.329   1.334   1.341
  1.348   1.360   1.365   1.369   1.370   1.384   1.390   1.395
  1.406   1.412   1.416   1.426   1.437   1.441   1.443   1.463
  1.471   1.492   1.495   1.500   1.506   1.506   1.512   1.519
  1.525   1.528   1.532   1.533   1.539   1.546   1.548   1.552
  1.556   1.558   1.563   1.569   1.573   1.578   1.579   1.581
  1.584   1.592   1.592   1.604   1.620   1.626   1.632   1.638
  1.648   1.662   1.668   1.675   1.684   1.706   1.711   1.726
  1.737   1.739   1.746   1.754   1.765   1.775   1.778   1.780
  1.789   1.794   1.800   1.807   1.821   1.827   1.830   1.836
  1.840   1.848   1.854   1.866   1.873   1.882   1.887   1.894
  1.896   1.901   1.904   1.912   1.915   1.921   1.927   1.936
  1.939   1.946   1.951   1.958   1.970   1.973   1.983   1.989
  1.997   2.004   2.006   2.011   2.021   2.026   2.031   2.032
  2.037   2.043   2.044   2.052   2.057   2.060   2.074   2.083
  2.092   2.093   2.096   2.109   2.126   2.133   2.136   2.138
  2.139   2.148   2.154   2.162   2.166   2.175   2.180   2.181
  2.183   2.188   2.199   2.207   2.209   2.215   2.218   2.225
  2.230   2.239   2.240   2.254   2.259   2.262   2.265   2.270
  2.276   2.278   2.287   2.294   2.300   2.307   2.310   2.312
  2.316   2.325   2.331   2.335   2.343   2.346   2.350   2.355
  2.358   2.360   2.366   2.372   2.375   2.380   2.396   2.397
  2.403   2.415   2.421   2.431   2.442   2.460   2.463   2.474
  2.475   2.494   2.501   2.514   2.524   2.534   2.546   2.574
  2.586   2.590   2.595   2.604   2.613   2.622   2.639   2.653
  2.665   2.675   2.682   2.688   2.694   2.698   2.700   2.705
  2.711   2.717   2.725   2.726   2.730   2.731   2.739   2.753
  2.763   2.770   2.773   2.785   2.786   2.793   2.797   2.799
  2.808   2.809   2.811   2.816   2.833   2.836   2.846   2.854
  2.866   2.872   2.878   2.886   2.889   2.900   2.916   2.940
  2.948   2.963   2.967   2.973   2.984   3.002   3.005   3.009
  3.015   3.047   3.072   3.078   3.137   3.190   3.258   3.300
  3.365   3.368   3.374   3.397   3.401   3.480   3.551   3.559
  3.578   3.648  13.189  13.246  13.257  13.336  13.364  13.401
 13.622  13.643  13.657  13.704  13.712  13.718  13.736  13.764
 13.772  13.784  13.817  13.868  13.891  13.896  13.921  14.001
 14.062  14.083  14.116  14.157  14.161  14.164  14.174  14.206
 14.212  14.244  14.246  14.249  14.278  14.290  14.299  14.377
 14.546  14.563  14.577  14.578  14.593  14.603  19.486  19.548
 19.636
 --------------------------------------------------------------
 
          Ground-State Mulliken Net Atomic Charges

     Atom                 Charge (a.u.)
  ----------------------------------------
      1 C                    -0.440461
      2 C                     0.116206
      3 C                     0.096122
      4 C                    -0.265637
      5 H                     0.220064
      6 C                    -0.231315
      7 H                     0.228113
      8 C                    -0.209695
      9 H                     0.229863
     10 C                    -0.325853
     11 H                     0.214416
     12 C                     0.152582
     13 C                    -0.264326
     14 H                     0.216180
     15 C                    -0.227011
     16 H                     0.228207
     17 C                    -0.211586
     18 H                     0.230079
     19 C                    -0.325818
     20 H                     0.214419
     21 C                     0.149581
     22 C                     0.094032
     23 C                    -0.311455
     24 H                     0.247228
     25 C                     0.064608
     26 C                    -0.004537
     27 N                    -0.160172
     28 C                     0.227242
     29 C                    -0.291798
     30 H                     0.280355
     31 C                     0.089057
     32 C                    -0.005249
     33 N                    -0.159254
     34 H                     0.215133
     35 H                     0.209852
     36 C                    -0.222951
     37 C                    -0.234073
     38 C                    -0.302221
     39 H                     0.249309
     40 C                    -0.288144
     41 H                     0.209051
     42 C                     0.311441
     43 C                     0.141716
     44 N                    -0.723531
     45 C                     0.141197
     46 C                     0.315635
     47 H                     0.209448
     48 C                    -0.287358
     49 C                    -0.304117
     50 C                    -0.234150
     51 C                    -0.223550
     52 H                     0.243124
     53 H                     0.210437
     54 H                     0.214590
     55 C                    -0.208122
     56 C                    -0.601784
     57 C                    -0.599543
     58 C                     0.166480
     59 C                    -0.218004
     60 C                    -0.301755
     61 C                     0.050892
     62 C                     0.231265
     63 C                    -0.252585
     64 H                     0.268956
     65 H                     0.240933
     66 H                     0.219669
     67 C                    -0.524377
     68 C                    -0.529186
     69 H                     0.249304
     70 H                     0.252254
     71 H                     0.258363
     72 H                     0.250267
     73 H                     0.232505
     74 H                     0.216214
     75 H                     0.216504
     76 H                     0.234422
     77 H                     0.216195
     78 H                     0.216107
  ----------------------------------------
  Sum of atomic charges =     0.000000

 -----------------------------------------------------------------
                    Cartesian Multipole Moments
 -----------------------------------------------------------------
    Charge (ESU x 10^10)
                 0.0000
    Dipole Moment (Debye)
         X       1.8274      Y      -6.9767      Z      -0.1862
       Tot       7.2145
    Quadrupole Moments (Debye-Ang)
        XX    -259.9067     XY      19.1538     YY    -261.9582
        XZ       3.1004     YZ      -4.7039     ZZ    -251.4242
    Octopole Moments (Debye-Ang^2)
       XXX    -714.2119    XXY    1458.3774    XYY    -354.7375
       YYY    4825.9598    XXZ    -357.6277    XYZ     -38.4034
       YYZ    -336.9973    XZZ    -272.9278    YZZ    1494.8118
       ZZZ   -1082.4724
    Hexadecapole Moments (Debye-Ang^3)
      XXXX  -12584.8210   XXXY    9119.3951   XXYY  -14358.3463
      XYYY    9549.0894   YYYY  -79110.6364   XXXZ   -2063.3470
      XXYZ    2694.0924   XYYZ    -198.6748   YYYZ    7779.6594
      XXZZ   -3473.3998   XYZZ    3151.1327   YYZZ  -13659.9161
      XZZZ   -2076.0903   YZZZ    8336.9844   ZZZZ   -8224.2308
 -----------------------------------------------------------------
 Calculating analytic gradient of the CIS energy
 -1.318756668993282E-003 -1.318707252302690E-003
 -1.318723237148286E-003 -1.318740663100220E-003
 -1.318752556277807E-003 -1.318711384349904E-003
 -1.318736703111279E-003 -1.318727217138113E-003
 -1.318727457503666E-003 -1.318736420092545E-003
 -1.318740954224612E-003 -1.318722934863841E-003
 -1.318740559006750E-003 -1.318723333475594E-003
 -1.318730498579873E-003 -1.318733385377810E-003
 -1.318735889718941E-003 -1.318728039708421E-003
 -1.318718939835057E-003 -1.318744950737312E-003
 -1.318727914035311E-003 -1.318735960333373E-003
 -1.318726456391503E-003 -1.318737461088503E-003
 -1.318724444771054E-003 -1.318739457551107E-003
 -1.318716064065964E-003 -1.318747820806453E-003
 -1.318739040705744E-003 -1.318724855680139E-003
 -1.318715629759045E-003 -1.318748309244010E-003
 -1.318722750373695E-003 -1.318741145044019E-003
 -1.318752386683716E-003 -1.318711503731149E-003
 -1.318707738431009E-003 -1.318756187588241E-003
 -1.318709696182883E-003 -1.318754223633318E-003
 -1.318742846245046E-003 -1.318721068330635E-003
 -1.318692820215217E-003 -1.318771083349608E-003
 -1.318709177781043E-003 -1.318754720998681E-003
 -1.318735333759442E-003 -1.318728600503593E-003
 -1.318715940121118E-003 -1.318748000532453E-003
 -1.318710259153451E-003 -1.318753680703891E-003
 -1.318737752425442E-003 -1.318726181626899E-003
 -1.318723573710346E-003 -1.318740359693153E-003
 -1.318717146662885E-003 -1.318746737309648E-003
 -1.318729440706286E-003 -1.318734443158479E-003
 -1.318707829243073E-003 -1.318756090222255E-003
 -1.318705205075706E-003 -1.318758696818895E-003
 -1.318725468693140E-003 -1.318738432898653E-003
 -1.318723437365298E-003 -1.318740454371333E-003
 -1.318722171928142E-003 -1.318741701331352E-003
 -1.318740473782356E-003 -1.318723439469873E-003
 -1.318732216656165E-003 -1.318731698311544E-003
 -1.318725821976712E-003 -1.318738042179172E-003
 -1.318723032035407E-003 -1.318740855837658E-003
 -1.318741326750585E-003 -1.318722575908332E-003
 -1.318721116417620E-003 -1.318742767092183E-003
 -1.318717960060562E-003 -1.318745938235014E-003
 -1.318751070140408E-003 -1.318712825887258E-003
 -1.318731454566014E-003 -1.318732416274769E-003
 -1.318706158383064E-003 -1.318757781096963E-003
 -1.318741253981426E-003 -1.318722671566197E-003
 -1.318722247184025E-003 -1.318741656690361E-003
 -1.318700343087415E-003 -1.318763594041451E-003
 -1.318729226141649E-003 -1.318734704955113E-003
 -1.318720156001075E-003 -1.318743733470042E-003
 -1.318686553338820E-003 -1.318777355499242E-003
 -1.318738146404849E-003 -1.318725783134589E-003
 -1.318716438023462E-003 -1.318747491914476E-003
 -1.318708177239816E-003 -1.318755783128790E-003
 -1.318726589829891E-003 -1.318737295606686E-003
 -1.318716002712813E-003 -1.318747874050929E-003
 -1.318713362793605E-003 -1.318750571630405E-003
 -1.318728785609476E-003 -1.318735114367388E-003
 -1.318713802260827E-003 -1.318750105760619E-003
 -1.318702258903431E-003 -1.318761660913959E-003
 -1.318737558455234E-003 -1.318726353996765E-003
 -1.318722563341890E-003 -1.318741305487076E-003
 -1.318723574844012E-003 -1.318740310859637E-003
 -1.318743895278727E-003 -1.318720037256532E-003
 -1.318700607517553E-003 -1.318763305254626E-003
 -1.318739568486455E-003 -1.318724398617964E-003
 -1.318725290987299E-003 -1.318738647328068E-003
 -1.318743559801362E-003 -1.318720356010525E-003
 -1.318735985648265E-003 -1.318727984824739E-003
 -1.318741641024196E-003 -1.318722297229110E-003
 -1.318718760258507E-003 -1.318745148058113E-003
 -1.318740867551116E-003 -1.318723074421134E-003
 -1.318761334227419E-003 -1.318702592504656E-003
 -1.318705871406878E-003 -1.318758048595456E-003
 -1.318743258264885E-003 -1.318720703407570E-003
 -1.318749934707768E-003 -1.318714043015986E-003
 -1.318718194818447E-003 -1.318745780710288E-003
 -1.318739042619706E-003 -1.318724976882207E-003
 -1.318716068203010E-003 -1.318747890283599E-003
 -1.318744858940378E-003 -1.318719098147926E-003
 -1.318729638694359E-003 -1.318734346932259E-003
 -1.318733076590185E-003 -1.318730859079729E-003
 -1.318731122824068E-003 -1.318732812963866E-003
 -1.318732265057845E-003 -1.318731698838413E-003
 -1.318769152338874E-003 -1.318694769177040E-003
 -1.318721741300808E-003 -1.318742166656680E-003
 -1.318745799837743E-003 -1.318718158552182E-003
 -1.318730850914283E-003 -1.318733058490360E-003
 -1.318725384158615E-003 -1.318738495008907E-003
 -1.318731592780306E-003 -1.318732328268386E-003
 -1.318724295998601E-003 -1.318739613686329E-003
 -1.318737807412017E-003 -1.318726114990504E-003
 -1.318729459383326E-003 -1.318734498794070E-003
 -1.318725845150642E-003 -1.318738070317091E-003
 -1.318717063878205E-003 -1.318746889073607E-003
 -1.318728897988931E-003 -1.318735061093428E-003
 -1.318763972596007E-003 -1.318699941402637E-003
 -1.318709902232786E-003 -1.318754054447180E-003
 -1.318747153854526E-003 -1.318716787102046E-003
 -1.318708048318916E-003 -1.318755865880200E-003
 -1.318735538217668E-003 -1.318728376757138E-003
 -1.318741275689212E-003 -1.318722653993723E-003
 -1.318727861751278E-003 -1.318736073415177E-003
 -1.318744805742191E-003 -1.318719133357455E-003
 -1.318740851762588E-003 -1.318723096749789E-003
 -1.318720249947428E-003 -1.318743679182747E-003
 -1.318744181707480E-003 -1.318719741178840E-003
 -1.318724799345308E-003 -1.318739130785172E-003
 -1.318704471267745E-003 -1.318759444760485E-003
 -1.318728546591673E-003 -1.318735406481810E-003
[...]
  0.597   0.598   0.604   0.606   0.612   0.615   0.618   0.619
  0.620   0.623   0.624   0.629   0.631   0.634   0.635   0.642
  0.644   0.646   0.648   0.654   0.657   0.664   0.666   0.668
  0.671   0.675   0.679   0.681   0.687   0.690   0.693   0.697
  0.701   0.703   0.706   0.711   0.714   0.716   0.718   0.724
  0.726   0.734   0.737   0.742   0.747   0.747   0.754   0.755
  0.761   0.763   0.766   0.774   0.779   0.783   0.789   0.797
  0.804   0.811   0.813   0.820   0.826   0.830   0.833   0.842
  0.844   0.850   0.859   0.872   0.877   0.883   0.889   0.900
  0.907   0.907   0.920   0.921   0.927   0.933   0.940   0.943
  0.944   0.947   0.950   0.953   0.961   0.964   0.966   0.967
  0.969   0.972   0.978   0.981   0.987   0.992   0.994   1.001
  1.004   1.007   1.011   1.011   1.013   1.014   1.023   1.026
  1.030   1.035   1.041   1.043   1.048   1.051   1.053   1.057
  1.061   1.067   1.068   1.070   1.074   1.081   1.084   1.090
  1.093   1.099   1.103   1.106   1.113   1.116   1.121   1.124
  1.127   1.130   1.138   1.141   1.144   1.146   1.149   1.155
  1.160   1.166   1.176   1.177   1.186   1.189   1.199   1.204
  1.212   1.214   1.222   1.224   1.233   1.235   1.257   1.270
  1.274   1.277   1.283   1.284   1.297   1.302   1.306   1.310
  1.313   1.320   1.321   1.332   1.336   1.341   1.343   1.350
  1.356   1.364   1.366   1.373   1.378   1.386   1.392   1.399
  1.410   1.416   1.420   1.428   1.434   1.450   1.465   1.474
  1.477   1.493   1.497   1.501   1.504   1.513   1.518   1.525
  1.530   1.536   1.537   1.541   1.546   1.551   1.553   1.554
  1.561   1.563   1.570   1.572   1.577   1.583   1.591   1.593
  1.600   1.602   1.604   1.615   1.618   1.628   1.632   1.642
  1.648   1.665   1.669   1.675   1.693   1.703   1.710   1.731
  1.736   1.740   1.753   1.763   1.774   1.779   1.780   1.789
  1.799   1.806   1.809   1.821   1.827   1.832   1.833   1.837
  1.840   1.849   1.854   1.862   1.868   1.871   1.883   1.885
  1.894   1.900   1.908   1.922   1.924   1.928   1.938   1.944
  1.949   1.953   1.956   1.968   1.973   1.979   1.983   1.992
  1.997   2.003   2.011   2.015   2.020   2.021   2.027   2.037
  2.043   2.048   2.054   2.055   2.059   2.070   2.075   2.078
  2.087   2.093   2.101   2.112   2.128   2.135   2.140   2.143
  2.148   2.152   2.154   2.164   2.170   2.174   2.174   2.177
  2.185   2.191   2.198   2.200   2.210   2.217   2.222   2.228
  2.233   2.243   2.250   2.260   2.262   2.265   2.267   2.273
  2.277   2.286   2.290   2.296   2.301   2.304   2.308   2.314
  2.318   2.332   2.333   2.339   2.345   2.353   2.356   2.364
  2.369   2.370   2.375   2.378   2.386   2.389   2.400   2.407
  2.409   2.413   2.431   2.437   2.450   2.465   2.470   2.488
  2.490   2.508   2.511   2.521   2.532   2.535   2.549   2.567
  2.581   2.588   2.595   2.613   2.614   2.630   2.644   2.650
  2.654   2.670   2.680   2.684   2.690   2.696   2.705   2.710
  2.717   2.725   2.729   2.734   2.737   2.740   2.748   2.754
  2.764   2.768   2.773   2.775   2.775   2.793   2.798   2.814
  2.819   2.824   2.826   2.831   2.840   2.847   2.857   2.862
  2.872   2.880   2.893   2.894   2.898   2.916   2.922   2.945
  2.947   2.970   2.977   2.980   2.984   3.014   3.018   3.029
  3.032   3.057   3.060   3.078   3.142   3.213   3.272   3.310
  3.360   3.369   3.377   3.397   3.405   3.490   3.559   3.566
  3.588   3.644  13.198  13.251  13.263  13.336  13.363  13.419
 13.623  13.658  13.669  13.690  13.718  13.731  13.758  13.769
 13.778  13.809  13.818  13.841  13.887  13.909  13.917  13.980
 14.065  14.121  14.131  14.165  14.175  14.193  14.196  14.214
 14.222  14.245  14.255  14.272  14.273  14.283  14.320  14.389
 14.546  14.571  14.578  14.584  14.600  14.607  19.484  19.543
 19.632
 --------------------------------------------------------------
 
          Ground-State Mulliken Net Atomic Charges

     Atom                 Charge (a.u.)
  ----------------------------------------
      1 C                    -0.412338
      2 C                     0.178888
      3 C                     0.019795
      4 C                    -0.255634
      5 H                     0.232047
      6 C                    -0.240511
      7 H                     0.231959
      8 C                    -0.206957
      9 H                     0.231319
     10 C                    -0.326255
     11 H                     0.215189
     12 C                     0.163269
     13 C                    -0.284947
     14 H                     0.214837
     15 C                    -0.219975
     16 H                     0.227436
     17 C                    -0.216525
     18 H                     0.230177
     19 C                    -0.320324
     20 H                     0.214626
     21 C                     0.128748
     22 C                     0.142802
     23 C                    -0.314428
     24 H                     0.246381
     25 C                     0.076293
     26 C                    -0.005930
     27 N                    -0.158317
     28 C                     0.154653
     29 C                    -0.291237
     30 H                     0.281839
     31 C                     0.082961
     32 C                    -0.006068
     33 N                    -0.158533
     34 H                     0.210594
     35 H                     0.207428
     36 C                    -0.225695
     37 C                    -0.229905
     38 C                    -0.306921
     39 H                     0.267141
     40 C                    -0.308666
     41 H                     0.208002
     42 C                     0.317039
     43 C                     0.148237
     44 N                    -0.698163
     45 C                     0.159709
     46 C                     0.310030
     47 H                     0.208216
     48 C                    -0.310451
     49 C                    -0.292010
     50 C                    -0.228348
     51 C                    -0.230095
     52 H                     0.246013
     53 H                     0.209826
     54 H                     0.213785
     55 C                    -0.233882
     56 C                    -0.644392
     57 C                    -0.588226
     58 C                     0.176239
     59 C                    -0.209162
     60 C                    -0.303256
     61 C                     0.058218
     62 C                     0.229572
     63 C                    -0.266674
     64 H                     0.285179
     65 H                     0.239936
     66 H                     0.219632
     67 C                    -0.512848
     68 C                    -0.549493
     69 H                     0.248313
     70 H                     0.254255
     71 H                     0.256698
     72 H                     0.253117
     73 H                     0.226569
     74 H                     0.218578
     75 H                     0.220730
     76 H                     0.241950
     77 H                     0.224192
     78 H                     0.223748
  ----------------------------------------
  Sum of atomic charges =     0.000000

 -----------------------------------------------------------------
                    Cartesian Multipole Moments
 -----------------------------------------------------------------
    Charge (ESU x 10^10)
                -0.0000
    Dipole Moment (Debye)
         X       0.5413      Y      -6.5696      Z       1.7727
       Tot       6.8260
    Quadrupole Moments (Debye-Ang)
        XX    -256.4572     XY      18.8499     YY    -256.6648
        XZ      -2.8273     YZ       4.8586     ZZ    -259.1098
    Octopole Moments (Debye-Ang^2)
       XXX    -766.6769    XXY    1456.4790    XYY    -356.5020
       YYY    4689.4525    XXZ    -333.3711    XYZ     -19.2630
       YYZ    -380.6797    XZZ    -302.2509    YZZ    1568.4513
       ZZZ   -1079.1674
    Hexadecapole Moments (Debye-Ang^3)
      XXXX  -12619.0497   XXXY    9122.5588   XXYY  -14284.9538
      XYYY    9076.2219   YYYY  -76296.2981   XXXZ   -2327.1420
      XXYZ    2820.8249   XYYZ    -436.5420   YYYZ    8552.9878
      XXZZ   -3581.2297   XYZZ    3315.9467   YYZZ  -14209.2472
      XZZZ   -2459.2792   YZZZ    9027.3660   ZZZZ   -8123.0887
 -----------------------------------------------------------------
 Calculating analytic gradient of the CIS energy
 -1.227600369395859E-003 -1.227564013026857E-003
 -1.227581612130296E-003 -1.227582752739629E-003
 -1.227608666830020E-003 -1.227555727336409E-003
 -1.227590233933561E-003 -1.227574144300761E-003
 -1.227581128514077E-003 -1.227583219655196E-003
 -1.227584951757838E-003 -1.227579393459317E-003
 -1.227587830968460E-003 -1.227576528534155E-003
 -1.227586292648963E-003 -1.227578046426235E-003
 -1.227590108745009E-003 -1.227574285323865E-003
 -1.227566895231457E-003 -1.227597461121135E-003
 -1.227582675419025E-003 -1.227581655900504E-003
 -1.227566858407525E-003 -1.227597525104927E-003
 -1.227573640511209E-003 -1.227590717244498E-003
 -1.227565221785914E-003 -1.227599120910147E-003
 -1.227581984408751E-003 -1.227582364750184E-003
 -1.227568539048542E-003 -1.227595868955639E-003
 -1.227583642632859E-003 -1.227580702014807E-003
 -1.227594897976484E-003 -1.227569460309539E-003
 -1.227555735229808E-003 -1.227608650180294E-003
 -1.227563579197897E-003 -1.227600790271056E-003
 -1.227590077734196E-003 -1.227574295694483E-003
 -1.227543937807075E-003 -1.227620429377947E-003
 -1.227572838010133E-003 -1.227591512652607E-003
 -1.227588253966117E-003 -1.227576144711225E-003
 -1.227563818509249E-003 -1.227600581970739E-003
 -1.227565646313697E-003 -1.227598741843568E-003
 -1.227588678868043E-003 -1.227575714060628E-003
 -1.227576367763547E-003 -1.227588030635721E-003
 -1.227577057235331E-003 -1.227587281204684E-003
 -1.227581638696046E-003 -1.227582707601344E-003
 -1.227557770957340E-003 -1.227606607451102E-003
 -1.227554608298638E-003 -1.227609756315089E-003
 -1.227573714506760E-003 -1.227590642756265E-003
 -1.227570117418203E-003 -1.227594242059596E-003
 -1.227582062011201E-003 -1.227582273557178E-003
 -1.227593002281035E-003 -1.227571367292430E-003
 -1.227583397558568E-003 -1.227580985021773E-003
 -1.227571900129912E-003 -1.227592440044482E-003
 -1.227573112086619E-003 -1.227591231634417E-003
 -1.227592397973900E-003 -1.227571968783931E-003
 -1.227566504641147E-003 -1.227597848191347E-003
 -1.227568457462340E-003 -1.227595897114323E-003
 -1.227607617428993E-003 -1.227556736323788E-003
 -1.227576425278561E-003 -1.227587936131496E-003
 -1.227558862058383E-003 -1.227605538176316E-003
 -1.227588330259428E-003 -1.227576055724688E-003
 -1.227567017494217E-003 -1.227597363404915E-003
 -1.227555276764810E-003 -1.227609117462776E-003
 -1.227581390390269E-003 -1.227583013035708E-003
 -1.227565152095054E-003 -1.227599226220194E-003
 -1.227534914218055E-003 -1.227629456867242E-003
 -1.227590706018834E-003 -1.227573689038702E-003
 -1.227567626434325E-003 -1.227596785488195E-003
 -1.227566908557674E-003 -1.227597517627547E-003
 -1.227582412505736E-003 -1.227581936226821E-003
 -1.227567436248333E-003 -1.227596920428601E-003
 -1.227561377309293E-003 -1.227603016050269E-003
 -1.227582566411195E-003 -1.227581798596317E-003
 -1.227564654355397E-003 -1.227599720789513E-003
 -1.227553384522143E-003 -1.227610996455028E-003
 -1.227589134912314E-003 -1.227575238934303E-003
 -1.227576395901997E-003 -1.227587943242107E-003
 -1.227571349673385E-003 -1.227592994076917E-003
 -1.227590144056103E-003 -1.227574249254210E-003
 -1.227551771920929E-003 -1.227612599850534E-003
 -1.227596550155633E-003 -1.227567879589068E-003
 -1.227577293537287E-003 -1.227587095859349E-003
 -1.227596490189978E-003 -1.227567888948011E-003
 -1.227583556620473E-003 -1.227580881003501E-003
 -1.227589748805647E-003 -1.227574638309482E-003
 -1.227570414529561E-003 -1.227593954278768E-003
 -1.227594377888028E-003 -1.227570022819047E-003
 -1.227609264425694E-003 -1.227555114755492E-003
 -1.227556575892939E-003 -1.227607804910363E-003
 -1.227597935848799E-003 -1.227566488048256E-003
 -1.227599757541159E-003 -1.227564677989809E-003
 -1.227569379096750E-003 -1.227595052553779E-003
 -1.227592322400392E-003 -1.227572157145629E-003
 -1.227565621281555E-003 -1.227598794422404E-003
 -1.227594615012705E-003 -1.227569799123027E-003
 -1.227581136461184E-003 -1.227583309201746E-003
 -1.227587400123199E-003 -1.227576984093614E-003
 -1.227581620038548E-003 -1.227582772045472E-003
 -1.227582398346154E-003 -1.227582034740397E-003
 -1.227617678270485E-003 -1.227546700671854E-003
 -1.227565986446924E-003 -1.227598380726072E-003
 -1.227591293444267E-003 -1.227573130904610E-003
 -1.227578742729857E-003 -1.227585623244842E-003
 -1.227573894080558E-003 -1.227590455251371E-003
 -1.227587187413382E-003 -1.227577197734640E-003
 -1.227573803373467E-003 -1.227590554322341E-003
 -1.227588491067681E-003 -1.227575902212713E-003
 -1.227581057706717E-003 -1.227583369222136E-003
 -1.227570802676771E-003 -1.227593546060368E-003
 -1.227569160116166E-003 -1.227595269542548E-003
 -1.227587305587011E-003 -1.227577130323365E-003
 -1.227613320980448E-003 -1.227551035965767E-003
 -1.227561166252671E-003 -1.227603261227215E-003
 -1.227599183086195E-003 -1.227565231918329E-003
 -1.227563336676867E-003 -1.227601026961573E-003
 -1.227574754628197E-003 -1.227589633709609E-003
 -1.227580354523243E-003 -1.227584036230191E-003
 -1.227573953454041E-003 -1.227590457262114E-003
 -1.227591027969258E-003 -1.227573358468166E-003
 -1.227590607781962E-003 -1.227573804574432E-003
 -1.227567660943529E-003 -1.227596720902022E-003
 -1.227590392691919E-003 -1.227573982845361E-003
 -1.227569043982707E-003 -1.227595374405898E-003
 -1.227559813392625E-003 -1.227604567913665E-003
 -1.227568567358160E-003 -1.227595822666694E-003
 -1.227599714861561E-003 -1.227564712844484E-003
 -1.227570939986688E-003 -1.227593440188094E-003
 -1.227562771493784E-003 -1.227601616883371E-003
 -1.227575261938631E-003 -1.227589166410262E-003
 -1.227569958224983E-003 -1.227594434116750E-003
 -1.227568950890842E-003 -1.227595449360373E-003
 -1.227554747561849E-003 -1.227609657879156E-003
 -1.227563414675409E-003 -1.227600975988801E-003
 -1.227612962207429E-003 -1.227551445352923E-003
 -1.227580988015615E-003 -1.227583437565589E-003
 -1.227581376428320E-003 -1.227583023745893E-003
 -1.227578822525079E-003 -1.227585589876544E-003
 -1.227599346162609E-003 -1.227565059076472E-003
 -1.227564976176826E-003 -1.227599400240874E-003
 -1.227611260614791E-003 -1.227553108580542E-003
 -1.227571981750097E-003 -1.227592447334440E-003
 -1.227590289222535E-003 -1.227574089030985E-003
 -1.227594112201119E-003 -1.227570293525304E-003
 -1.227596205786668E-003 -1.227568215444646E-003
 -1.227581402630372E-003 -1.227582976756786E-003
 -1.227593972360797E-003 -1.227570407511075E-003
 -1.227581868227536E-003 -1.227582536893570E-003
 -1.227599908474985E-003 -1.227564468079768E-003
 -1.227586789395611E-003 -1.227577656069163E-003
 -1.227593803189795E-003 -1.227570590112595E-003
 -1.227555918533557E-003 -1.227608454993538E-003
 -1.227618729884753E-003 -1.227545687884602E-003
 -1.227585469582230E-003 -1.227578930829318E-003
 -1.227600414930775E-003 -1.227563947043634E-003
 -1.227584722641929E-003 -1.227579693617531E-003
 -1.227583181078918E-003 -1.227581218615967E-003
 -1.227558297973600E-003 -1.227606055698571E-003
 -1.227601189905976E-003 -1.227563246995276E-003
 -1.227591517035186E-003 -1.227572887179729E-003
 -1.227592642246054E-003 -1.227571730153736E-003
 -1.227614374597384E-003 -1.227550040695854E-003
 -1.227566095363122E-003 -1.227598298411723E-003
 -1.227615507198605E-003 -1.227548878084479E-003
 -1.227601881273401E-003 -1.227562562061010E-003
 -1.227566821058499E-003 -1.227597559272218E-003
 -1.227568518096503E-003 -1.227595842625424E-003
 -1.227597120583855E-003 -1.227567293847388E-003
 -1.227587805612584E-003 -1.227576598262244E-003
 -1.227575014770123E-003 -1.227589351720400E-003
 -1.227595704422317E-003 -1.227568698868368E-003
 -1.227571226811019E-003 -1.227593165553929E-003
 -1.227583117100313E-003 -1.227581275202416E-003
 -1.227587531518210E-003 -1.227576902640852E-003
 -1.227585181455017E-003 -1.227579203830988E-003
 -1.227590469489498E-003 -1.227573911815444E-003
 -1.227601296362042E-003 -1.227563069938888E-003
 -1.227568621425748E-003 -1.227595760674999E-003
 -1.227575694662604E-003 -1.227588676459717E-003
 -1.227577997635131E-003 -1.227586424999055E-003
 -1.227581535886922E-003 -1.227582838009538E-003
 -1.227593139385706E-003 -1.227571218876543E-003
 -1.227596832781023E-003 -1.227567566226841E-003
 -1.227600790093739E-003 -1.227563577151424E-003
 -1.227583486472837E-003 -1.227580891091510E-003
 -1.227582773227960E-003 -1.227581608420276E-003
 -1.227566124685843E-003 -1.227598234304086E-003
 -1.227577176740827E-003 -1.227587207826743E-003
 -1.227571052575128E-003 -1.227593349704141E-003
 -1.227568602497818E-003 -1.227595786843272E-003
 -1.227599046843362E-003 -1.227565349086753E-003
 -1.227587181051831E-003 -1.227577197085429E-003
 -1.227588757311871E-003 -1.227575644433442E-003
 -1.227600059240719E-003 -1.227564347176800E-003
 -1.227584869008739E-003 -1.227579525582640E-003
 -1.227581741324376E-003 -1.227582657978498E-003
 -1.227605382177035E-003 -1.227559018077146E-003
 -1.227582265157895E-003 -1.227582117730967E-003
 -1.227585305866283E-003 -1.227579099806364E-003
 -1.227582114869037E-003 -1.227582272985326E-003
 -1.227583122899207E-003 -1.227581271390491E-003
 -1.227580472691856E-003 -1.227583938412290E-003
 -1.227590254241605E-003 -1.227574126698812E-003
 -1.227582761643274E-003 -1.227581608271071E-003
 -1.227606883476469E-003 -1.227557521632993E-003
 -1.227581126857936E-003 -1.227583240543067E-003
 -1.227582744450109E-003 -1.227581598890565E-003
 -1.227606319677968E-003 -1.227558044899983E-003
 -1.227596826149696E-003 -1.227567566022839E-003
 -1.227582241934890E-003 -1.227582155322566E-003
 -1.227582403509388E-003 -1.227581985217439E-003
 -1.227600146511399E-003 -1.227564250222390E-003
 -1.227592702628569E-003 -1.227571680006373E-003
 -1.227590960561419E-003 -1.227573422287409E-003
 -1.227572971086025E-003 -1.227591406067204E-003
 -1.227595743721616E-003 -1.227568630623865E-003
 -1.227575045907675E-003 -1.227589343398741E-003
 -1.227599702022851E-003 -1.227564645763140E-003
 -1.227575002334976E-003 -1.227589402012428E-003
 -1.227596545995194E-003 -1.227567857049571E-003
 -1.227597372988415E-003 -1.227567010939163E-003
 -1.227593294974457E-003 -1.227571083876625E-003
 -1.227598611868943E-003 -1.227565775554854E-003
 -1.227606342090025E-003 -1.227558022207826E-003
 -1.227591176353628E-003 -1.227573201081583E-003
 -1.227578397351580E-003 -1.227585961153999E-003
 -1.227584753451753E-003 -1.227579594978851E-003
 -1.227584234438771E-003 -1.227580144481780E-003
 -1.227603623455025E-003 -1.227560738582003E-003
 -1.227591845627580E-003 -1.227572544890081E-003
 -1.227577429391680E-003 -1.227586966058376E-003
 -1.227590678030727E-003 -1.227573715370303E-003
 -1.227576971905590E-003 -1.227587402474295E-003
 -1.227575421571392E-003 -1.227588952761024E-003
 -1.227566654280768E-003 -1.227597687696434E-003
 -1.227563445951937E-003 -1.227600923007798E-003
 -1.227595213371538E-003 -1.227569175481685E-003
 -1.227582832508486E-003 -1.227581539338437E-003
 -1.227566503596170E-003 -1.227597883092690E-003
 -1.227602774727924E-003 -1.227561589630067E-003
 -1.227578374254438E-003 -1.227585992265390E-003
 -1.227574859024933E-003 -1.227589495938237E-003
 -1.227593903108864E-003 -1.227570472516637E-003
 -1.227583594223168E-003 -1.227580741056331E-003
 -1.227570969099331E-003 -1.227593414007703E-003
 -1.227595859810950E-003 -1.227568514477986E-003
 -1.227576880953320E-003 -1.227587484605148E-003
 -1.227566848627178E-003 -1.227597509842809E-003
 -1.227588394109614E-003 -1.227575993698110E-003
 -1.227579549904278E-003 -1.227584836286285E-003
 CIS relaxed dipole moment
            1
    1   6.7746861
    2 -13.8851265
    3   3.8495599
	Magnitude:	15.922 au	40.470 Debye
