mFile = /cm/shared/apps/q-chem/intel/QCHEM_5.1.0_Trunk/bin/mpi/machines
Process 0 of 1 is on ctcp037 - thread support 0
initial socket setup ...start
initial socket setup ...done 
now start server 0 ... 
Q-Chem Developer Version!
                  Welcome to Q-Chem
     A Quantum Leap Into The Future Of Chemistry


 Q-Chem 5.1, Q-Chem, Inc., Pleasanton, CA (2018)

 Yihan Shao,  Zhengting Gan,  E. Epifanovsky,  A. T. B. Gilbert,  M. Wormit,  
 J. Kussmann,  A. W. Lange,  A. Behn,  Jia Deng,  Xintian Feng,  D. Ghosh,  
 M. Goldey,  P. R. Horn,  L. D. Jacobson,  I. Kaliman,  T. Kus,  A. Landau,  
 Jie Liu,  E. I. Proynov,  R. M. Richard,  R. P. Steele,  E. J. Sundstrom,  
 H. L. Woodcock III,  P. M. Zimmerman,  D. Zuev,  B. Albrecht,  E. Alguire,  
 S. A. Baeppler,  D. Barton,  Z. Benda,  Y. A. Bernard,  E. J. Berquist,  
 K. B. Bravaya,  H. Burton,  D. Casanova,  Chun-Min Chang,  Yunqing Chen,  
 A. Chien,  K. D. Closser,  M. P. Coons,  S. Coriani,  S. Dasgupta,  
 A. L. Dempwolff,  M. Diedenhofen,  Hainam Do,  R. G. Edgar,  Po-Tung Fang,  
 S. Faraji,  S. Fatehi,  Qingguo Feng,  K. D. Fenk,  J. Fosso-Tande,  
 Qinghui Ge,  A. Ghysels,  G. Gidofalvi,  J. Gomes,  J. Gonthier,  A. Gunina,  
 D. Hait,  M. W. D. Hanson-Heine,  P. H. P. Harbach,  A. W. Hauser,  
 J. E. Herr,  E. G. Hohenstein,  Z. C. Holden,  Kerwin Hui,  B. C. Huynh,  
 T.-C. Jagau,  Hyunjun Ji,  B. Kaduk,  K. Khistyaev,  Jaehoon Kim,  
 P. Klunzinger,  K. Koh,  D. Kosenkov,  L. Koulias,  T. Kowalczyk,  
 C. M. Krauter,  A. Kunitsa,  Ka Un Lao,  A. Laurent,  K. V. Lawler,  
 Joonho Lee,  D. Lefrancois,  S. Lehtola,  D. S. Levine,  Yi-Pei Li,  
 You-Sheng Lin,  Fenglai Liu,  E. Livshits,  A. Luenser,  P. Manohar,  
 E. Mansoor,  S. F. Manzer,  Shan-Ping Mao,  Yuezhi Mao,  N. Mardirossian,  
 A. V. Marenich,  T. Markovich,  L. A. Martinez-Martinez,  S. A. Maurer,  
 N. J. Mayhall,  S. C. McKenzie,  J.-M. Mewes,  A. F. Morrison,  
 J. W. Mullinax,  K. Nanda,  T. S. Nguyen-Beck,  R. Olivares-Amaya,  
 J. A. Parkhill,  T. M. Perrine,  F. Plasser,  P. Pokhilko,  S. Prager,  
 A. Prociuk,  E. Ramos,  D. R. Rehn,  F. Rob,  M. Schneider,  N. Sergueev,  
 S. M. Sharada,  S. Sharma,  D. W. Small,  T. Stauch,  T. Stein,  
 Yu-Chuan Su,  A. J. W. Thom,  A. Tkatchenko,  T. Tsuchimochi,  N. M. Tubman,  
 L. Vogt,  M. L. Vidal,  O. Vydrov,  M. A. Watson,  J. Wenzel,  
 M. de Wergifosse,  T. A. Wesolowski,  A. White,  J. Witte,  A. Yamada,  
 Jun Yang,  K. Yao,  S. Yeganeh,  S. R. Yost,  Zhi-Qiang You,  A. Zech,  
 Igor Ying Zhang,  Xing Zhang,  Yan Zhao,  Ying Zhu,  B. R. Brooks,  
 G. K. L. Chan,  C. J. Cramer,  M. S. Gordon,  W. J. Hehre,  A. Klamt,  
 M. W. Schmidt,  C. D. Sherrill,  D. G. Truhlar,  A. Aspuru-Guzik,  R. Baer,  
 A. T. Bell,  N. A. Besley,  Jeng-Da Chai,  A. E. DePrince, III,  
 R. A. DiStasio Jr.,  A. Dreuw,  B. D. Dunietz,  T. R. Furlani,  
 Chao-Ping Hsu,  Yousung Jung,  Jing Kong,  D. S. Lambrecht,  WanZhen Liang,  
 C. Ochsenfeld,  V. A. Rassolov,  L. V. Slipchenko,  J. E. Subotnik,  
 T. Van Voorhis,  J. M. Herbert,  A. I. Krylov,  P. M. W. Gill,  M. Head-Gordon

 Contributors to earlier versions of Q-Chem not listed above: 
 R. D. Adamson,  B. Austin,  J. Baker,  G. J. O. Beran,  K. Brandhorst,  
 S. T. Brown,  E. F. C. Byrd,  A. K. Chakraborty,  C.-L. Cheng,  
 Siu Hung Chien,  D. M. Chipman,  D. L. Crittenden,  H. Dachsel,  
 R. J. Doerksen,  A. D. Dutoi,  L. Fusti-Molnar,  W. A. Goddard III,  
 A. Golubeva-Zadorozhnaya,  S. R. Gwaltney,  G. Hawkins,  A. Heyden,  
 S. Hirata,  G. Kedziora,  F. J. Keil,  C. Kelley,  Jihan Kim,  R. A. King,  
 R. Z. Khaliullin,  P. P. Korambath,  W. Kurlancheek,  A. M. Lee,  M. S. Lee,  
 S. V. Levchenko,  Ching Yeh Lin,  D. Liotard,  R. C. Lochan,  I. Lotan,  
 P. E. Maslen,  N. Nair,  D. P. O'Neill,  D. Neuhauser,  E. Neuscamman,  
 C. M. Oana,  R. Olson,  B. Peters,  R. Peverati,  P. A. Pieniazek,  
 Y. M. Rhee,  J. Ritchie,  M. A. Rohrdanz,  E. Rosta,  N. J. Russ,  
 H. F. Schaefer III,  N. E. Schultz,  N. Shenvi,  A. C. Simmonett,  A. Sodt,  
 D. Stuck,  K. S. Thanthiriwatte,  V. Vanovschi,  Tao Wang,  A. Warshel,  
 C. F. Williams,  Q. Wu,  X. Xu,  W. Zhang

 Please cite Q-Chem as follows:
 Y. Shao et al., Mol. Phys. 113, 184-215 (2015)
 DOI: 10.1080/00268976.2014.952696

 Q-Chem 5.1.1 for Intel X86 EM64T Linux

 Parts of Q-Chem use Armadillo 8.300.2 (Tropical Shenanigans).
 http://arma.sourceforge.net/

 Q-Chem begins on Wed Jan 16 10:28:54 2019  

Host: ctcp037
0

     Scratch files written to /scratch/mewes/143479/qchem4383//
 Parallel job on  1  processors
The previous job contains 0 fragments, simply inherited here
Input Ideriv = 1
Curr. Ideriv = -1
Max.  Ideriv = 1

Checking the input file for inconsistencies... 	...done.

--------------------------------------------------------------
User input:
--------------------------------------------------------------
$rem
threads 8
jobtype	opt
method PBEh-3c
basis def2-mSVP
mem_static	1024
mem_total	14000
sym_ignore	true
cis_n_roots             4
cis_singlets            true 
cis_triplets		false
rpa                     false
cis_state_deriv         3 
state_follow		true
$end

$molecule 
read s1opt.mol
$end


--------------------------------------------------------------
 Adding empirical dispersion correction 
 ----------------------------------------------------------------
 Doing -D3(BJ) with
 s6 =   1.00000
 s8 =   0.00000
 a1 =   0.48600
 a2 =   4.50000
 -D3 energy including 3body term =     -0.0786436726 hartrees
 ----------------------------------------------------------------
 Adding gCP correction 
 ----------------------------------------------------------------
 gCP energy =      0.1095195205 hartrees
 ----------------------------------------------------------------
             Standard Nuclear Orientation (Angstroms)
    I     Atom           X                Y                Z
 ----------------------------------------------------------------
    1      N       0.0000000000     0.0000000000     0.0000000000
    2      C       0.0000000000     0.0000000000     1.3738420000
    3      C       1.1633572231     0.0000000000    -0.7307854048
    4      C      -1.1767290887     0.3525793702     2.0641012234
    5      H      -2.0671155341     0.6196480320     1.5161915620
    6      C      -1.1796200483     0.3873531427     3.4363216445
    7      H      -2.0798861477     0.6704657286     3.9620911651
    8      C      -0.0208160337     0.0754302211     4.1393957887
    9      H      -0.0157560093     0.1082868727     5.2198304658
   10      C       1.1366278619    -0.2788175561     3.4587177382
   11      H       2.0145307119    -0.5257669053     4.0368773055
   12      C       1.1782302992    -0.3279531376     2.0776536029
   13      C       1.1354102662     0.3004476836    -2.1075752217
   14      H       0.2038722316     0.4825686260    -2.6198413751
   15      C       2.3120145347     0.4076539097    -2.8051838971
   16      H       2.2792760865     0.6746920487    -3.8509185438
   17      C       3.5253284265     0.1920739350    -2.1603863938
   18      H       4.4545445958     0.2883642421    -2.7041033567
   19      C       3.5499700530    -0.1664501536    -0.8176889186
   20      H       4.5057018271    -0.3651830586    -0.3564875557
   21      C       2.3882330204    -0.2823854282    -0.0803340965
   22      C      -1.2696777214     0.0599917706    -0.6726341505
   23      C      -1.6814575326     1.2343533546    -1.2521132288
   24      H      -1.0388289305     2.1018353956    -1.1763340962
   25      C      -2.0585806370    -1.0771505610    -0.7161955503
   26      H      -1.7364130297    -2.0079753928    -0.2673522108
   27      C      -3.2857000155    -0.9656820962    -1.3302374398
   28      H      -3.9420343132    -1.8268141669    -1.3403551557
   29      C      -2.8832053228     1.3299768767    -1.9586367927
   30      C      -3.7289579772     0.2152778247    -1.9403476996
   31      C      -5.1365156421     0.2205481533    -2.4615449492
   32      H      -5.6615620324    -0.6277427210    -2.0166626462
   33      H      -5.1523654060     0.0593901974    -3.5423520184
   34      C       2.3676805458    -0.8561006163     1.3171575240
   35      C       3.6799868791    -0.6185484794     2.0625187477
   36      H       4.5163949388    -1.0744915396     1.5367862698
   37      H       3.6646806411    -1.0889594855     3.0435538814
   38      H       3.8879661645     0.4429425871     2.1926948749
   39      C      -5.8652804281     1.5248418089    -2.1380771657
   40      H      -6.9376622123     1.3316835166    -2.0818420436
   41      H      -5.5714030344     1.8520151223    -1.1322019807
   42      C      -5.6075470575     2.5426342779    -3.2047364065
   43      C      -6.6710819858     3.0159590106    -3.9242834426
   44      H      -7.6727611130     2.7526499797    -3.6036266589
   45      C      -6.5449877745     3.7891333936    -5.0913943727
   46      C      -7.6908803557     4.2399577114    -5.7570685179
   47      N      -8.6602100417     4.5944295539    -6.2903590525
   48      C      -5.2056084971     4.0343521980    -5.5633512908
   49      C      -4.1292590689     3.5747003909    -4.8020035794
   50      H      -3.1452481815     3.8326337690    -5.1676831059
   51      C      -4.2651008900     2.8464054244    -3.6368172277
   52      C      -4.9428549831     4.7182953685    -6.7637338435
   53      N      -4.7019351437     5.2799267038    -7.7489368348
   54      C      -3.0410108466     2.6510562714    -2.7455079298
   55      C      -1.7456667902     2.7832536110    -3.5461246566
   56      C      -1.3054316127     1.9571001808    -4.5621162433
   57      H      -1.9196951794     1.1322185375    -4.9026493102
   58      C      -0.0876017496     2.2363238666    -5.1706633824
   59      H       0.2549707226     1.6216513226    -5.9934755801
   60      C       0.6755837072     3.3225966126    -4.7529217661
   61      H       1.6141456522     3.5389126360    -5.2467147445
   62      C       0.2327264540     4.1477256334    -3.7290505075
   63      H       0.8258558714     4.9991249983    -3.4198907996
   64      C      -0.9877983437     3.8740263001    -3.1277053389
   65      C      -1.7075439618     4.5469023818    -2.0502951181
   66      C      -1.4001693770     5.6916682543    -1.3327240505
   67      H      -0.4931165294     6.2477854481    -1.5343864061
   68      C      -2.2871597863     6.1283369684    -0.3591355590
   69      H      -2.0701474311     7.0270359161     0.2027107066
   70      C      -3.4637351048     5.4290349511    -0.1138721403
   71      H      -4.1553206770     5.7917416427     0.6354251661
   72      C      -3.7714597668     4.2814503326    -0.8323783859
   73      H      -4.7039756419     3.7622284013    -0.6554479664
   74      C      -2.8866873996     3.8421437181    -1.7990587330
   75      C       2.1582071748    -2.3878543870     1.1692463428
   76      H       2.9809558047    -2.8254803805     0.6038484990
   77      H       2.1238764372    -2.8562087270     2.1531170928
   78      H       1.2301578260    -2.6302455481     0.6508594013
 ----------------------------------------------------------------
 Nuclear Repulsion Energy =  5553.7336717546 hartrees
 There are      158 alpha and      158 beta electrons
 Requested basis set is def2-mSVP
 There are 391 shells and 767 basis functions

 Total QAlloc Memory Limit  14000 MB
 Mega-Array Size      1001 MB
 MEM_STATIC part      1024 MB
 A cutoff of  1.0D-11 yielded  35097 shell pairs
 There are    140985 function pairs (    155664 Cartesian)
 
 -------------------------------------------------------
 OpenMP Integral Computing Module                       
 Release: version 1.0, May 2013, Q-Chem Inc. Pittsburgh 
 -------------------------------------------------------
 Integral Job Info:
 Integral job number is                      11
 Integral operator is                         1
 short-range coefficients                     0
 long-range coefficients              100000000
 Omega coefficients                           0
 if combine SR and LR in K                    0
 Integral screening is                        0
 Integral computing path is                   2
 max size of driver memory is            800000
 size of driver memory is                593474
 size of scratch memory is              1809772
 max col of scratch BK array               1296
 max len of scratch array in speh3          155
 max len of scratch index in speh4           18
 max int batch size is                      520
 min int batch size is                       52
 fixed nKL is                                52
 max L of basis functions is                  2
 order of int derivative is                   0
 number of shells is                        391
 number of basis is                         814
 number of cartesian basis is               814
 number of contracted shell pairs         35097
 number of primitive shell pairs          73511
 maxK2 (contraction) of shell pair           25
 max number of K2 of shell pair               1
 max number of CS2 of shell pair           8337
 max number of PS2 of shell pair          13125
 mem total for path MDJ                  883084
 -------------------------------------------------------
 Smallest overlap matrix eigenvalue = 2.82E-04

 Scale SEOQF with 1.000000e-02/1.000000e-02/1.000000e-02

 Standard Electronic Orientation quadrupole field applied
 Nucleus-field energy     =    -0.0000000042 hartrees
 Guess from superposition of atomic densities
 Warning:  Energy on first SCF cycle will be non-variational
 SAD guess density has 316.000000 electrons

 -----------------------------------------------------------------------
  General SCF calculation program by
  Eric Jon Sundstrom, Paul Horn, Yuezhi Mao, Dmitri Zuev, Alec White,
  David Stuck, Shaama M.S., Shane Yost, Joonho Lee, David Small,
  Daniel Levine, Susi Lehtola, Hugh Burton, Evgeny Epifanovsky
 -----------------------------------------------------------------------
 Exchange:     0.4200 Hartree-Fock + 0.5800 PBEh-3c
 Correlation:  1.0000 PBEh-3c
 Using SG-1 standard quadrature grid
 Dispersion:   Grimme D3
 using 8 threads for integral computing
 -------------------------------------------------------
 OpenMP Integral computing Module                
 Release: version 2.0, May 2017, Q-Chem Inc. Pleasanton 
 -------------------------------------------------------
 -------------------------------------------------------
 OpenMP BLAS3 based DFT computing Module                
 Release: version 1.0, May 2013, Q-Chem Inc. Pittsburgh 
 -------------------------------------------------------
 A restricted SCF calculation will be
 performed using DIIS
 SCF converges when DIIS error is below 1.0e-08
 ---------------------------------------
  Cycle       Energy         DIIS error
 ---------------------------------------
    1   -1871.0040971652      3.09e-02  
    2   -1855.1152228677      2.21e-03  
    3   -1855.0293985149      2.66e-03  
    4   -1855.4640453204      8.81e-04  
    5   -1855.5147363181      2.26e-04  
    6   -1855.5175397626      9.90e-05  
    7   -1855.5181994831      2.30e-05  
    8   -1855.5182375672      8.74e-06  
    9   -1855.5182432672      2.40e-06  
   10   -1855.5182436297      1.11e-06  
   11   -1855.5182437183      3.73e-07  
   12   -1855.5182437289      1.47e-07  
   13   -1855.5182437305      6.20e-08  
   14   -1855.5182437308      1.85e-08  
   15   -1855.5182437308      7.08e-09  Convergence criterion met
 ---------------------------------------
 SCF time:   CPU 4044.80s  wall 506.00s 
 SCF   energy in the final basis set =    -1855.5182437308
 Total energy in the final basis set =    -1855.5182437308
 
 Direct TDDFT/TDA calculation will be performed
 Exchange:     0.4200 Hartree-Fock + 0.5800 PBEh-3c
 Correlation:  1.0000 PBEh-3c
 Using SG-1 standard quadrature grid
 Dispersion:   Grimme D3
 Singlet excitation energies requested
 CIS energy converged when residual is below 10e- 6
 ---------------------------------------------------
 Iter    Rts Conv    Rts Left    Ttl Dev     Max Dev
 ---------------------------------------------------
   1         0           4      0.000132    0.000072
   2         0           4      0.000116    0.000067
   3         0           4      0.000063    0.000038
   4         0           4      0.000045    0.000029
   5         1           3      0.000028    0.000017
   6         1           3      0.000030    0.000026
   7         2           2      0.000021    0.000019
   8         3           1      0.000013    0.000011
   9         3           1      0.000009    0.000008
  10         3           1      0.000005    0.000003
  11         3           1      0.000003    0.000002
  12         4           0      0.000002    0.000001    Roots Converged
 ---------------------------------------------------
 
 ---------------------------------------------------
         TDDFT/TDA Excitation Energies              
 ---------------------------------------------------

 Excited state   1: excitation energy (eV) =    3.1196
 Total energy for state  1:                 -1855.40360126 au
    Multiplicity: Singlet
    Trans. Mom.: -0.1180 X   0.0837 Y  -0.1044 Z
    Strength   :     0.0024330122
    D(158) --> V(  1) amplitude =  0.9975

 Excited state   2: excitation energy (eV) =    3.9412
 Total energy for state  2:                 -1855.37340667 au
    Multiplicity: Singlet
    Trans. Mom.: -0.0056 X   0.0454 Y  -0.0533 Z
    Strength   :     0.0004758672
    D(158) --> V(  2) amplitude =  0.9474
    D(158) --> V(  3) amplitude = -0.2780

 Excited state   3: excitation energy (eV) =    4.0184
 Total energy for state  3:                 -1855.37056896 au
    Multiplicity: Singlet
    Trans. Mom.: -0.4048 X  -0.0452 Y  -0.2071 Z
    Strength   :     0.0205578636
    D(157) --> V(  1) amplitude =  0.9870

 Excited state   4: excitation energy (eV) =    4.1023
 Total energy for state  4:                 -1855.36748828 au
    Multiplicity: Singlet
    Trans. Mom.:  0.0907 X   0.0989 Y  -0.0021 Z
    Strength   :     0.0018099885
    D(158) --> V(  4) amplitude = -0.7606
    D(158) --> V(  5) amplitude =  0.5936
 
 ---------------------------------------------------
 Calculating Relaxed Density
 ---------------------------------------------------
 Iter    Rts Conv    Rts Left    Ttl Dev     Max Dev
 ---------------------------------------------------
   1         0           4      0.001084    0.000342
   2         0           4      0.000344    0.000105
   3         0           4      0.000096    0.000028
   4         0           4      0.000036    0.000009
   5         0           4      0.000013    0.000004
   6         1           3      0.000003    0.000001
   7         4           0      0.000000    0.000000    Roots Converged
 ---------------------------------------------------
                Calling CISFollow                   
 ---------------------------------------------------
 Step:              0 State:             3
 Initial State:  3     Spin:   singlet 
 Only searching over singlet s
 Restricted Calculation
 Initial state compared to all other same-spin states
 Overlap based on att/det density analysis
 ---------------------------------------------------
 State |    Energy (Eh)   | Delta E (Eh) |  Overlap 
 ---------------------------------------------------
   1   |   -1855.40360126 |  -0.033032   |  0.467880
   2   |   -1855.37340667 |  -0.002838   |  0.003083
   3   |   -1855.37056896 |   0.000000   |  1.000000
   4   |   -1855.36748828 |   0.003081   |  0.008546
 ---------------------------------------------------
 Stored State:    3 -1855.37056896
 ---------------------------------------------------
 Dynamic thresholds being used
 to change set FOLLOW_ENERGY and FOLLOW_OVERLAP
 ---------------------------------------------------
  SETman timing summary (seconds)
  CPU time              8542.12s
  System time              0.00s
  Wall time             1220.51s
 
 --------------------------------------------------------------
 
                    Orbital Energies (a.u.)
 --------------------------------------------------------------
 
 Alpha MOs
 -- Occupied --
-14.680 -14.663 -14.660 -10.530 -10.528 -10.514 -10.511 -10.505
-10.505 -10.502 -10.499 -10.496 -10.493 -10.491 -10.491 -10.488
-10.481 -10.479 -10.477 -10.477 -10.475 -10.474 -10.470 -10.469
-10.468 -10.468 -10.468 -10.467 -10.467 -10.466 -10.465 -10.465
-10.465 -10.464 -10.463 -10.450 -10.449 -10.442 -10.442 -10.441
-10.440 -10.440 -10.436 -10.435 -10.433 -10.429 -10.426  -1.097
 -1.041  -1.030  -1.020  -1.002  -0.988  -0.969  -0.959  -0.955
 -0.938  -0.935  -0.909  -0.902  -0.892  -0.885  -0.860  -0.857
 -0.848  -0.847  -0.835  -0.826  -0.818  -0.808  -0.795  -0.777
 -0.771  -0.747  -0.732  -0.728  -0.714  -0.713  -0.706  -0.690
 -0.683  -0.679  -0.673  -0.668  -0.666  -0.646  -0.617  -0.615
 -0.614  -0.611  -0.600  -0.588  -0.582  -0.572  -0.566  -0.562
 -0.541  -0.539  -0.536  -0.533  -0.531  -0.527  -0.524  -0.521
 -0.518  -0.512  -0.509  -0.504  -0.503  -0.500  -0.497  -0.492
 -0.490  -0.488  -0.485  -0.485  -0.473  -0.468  -0.461  -0.452
 -0.449  -0.445  -0.442  -0.441  -0.439  -0.438  -0.436  -0.434
 -0.429  -0.428  -0.427  -0.421  -0.421  -0.418  -0.415  -0.412
 -0.410  -0.403  -0.400  -0.399  -0.398  -0.396  -0.393  -0.375
 -0.374  -0.366  -0.350  -0.336  -0.326  -0.313  -0.306  -0.303
 -0.300  -0.289  -0.285  -0.282  -0.271  -0.219
 -- Virtual --
 -0.079  -0.041  -0.029  -0.016  -0.012  -0.005   0.013   0.016
  0.019   0.034   0.044   0.048   0.057   0.057   0.075   0.108
  0.113   0.119   0.128   0.130   0.132   0.138   0.148   0.149
  0.153   0.156   0.161   0.163   0.167   0.177   0.177   0.181
  0.186   0.190   0.192   0.197   0.198   0.201   0.203   0.207
  0.210   0.213   0.216   0.222   0.223   0.227   0.228   0.231
  0.236   0.236   0.241   0.242   0.245   0.250   0.252   0.253
  0.256   0.260   0.265   0.266   0.269   0.272   0.276   0.279
  0.287   0.291   0.293   0.296   0.298   0.303   0.305   0.307
  0.314   0.318   0.328   0.331   0.337   0.339   0.347   0.358
  0.359   0.369   0.373   0.377   0.381   0.384   0.393   0.399
  0.400   0.410   0.415   0.423   0.426   0.440   0.446   0.453
  0.457   0.464   0.468   0.474   0.477   0.479   0.485   0.490
  0.500   0.502   0.504   0.511   0.514   0.518   0.519   0.521
  0.522   0.527   0.531   0.533   0.538   0.539   0.546   0.547
  0.553   0.554   0.559   0.564   0.565   0.568   0.569   0.573
  0.573   0.579   0.582   0.582   0.584   0.590   0.595   0.595
  0.597   0.600   0.604   0.607   0.613   0.615   0.618   0.619
  0.622   0.624   0.625   0.630   0.632   0.634   0.634   0.642
  0.644   0.646   0.649   0.654   0.657   0.664   0.666   0.668
  0.671   0.675   0.678   0.681   0.687   0.690   0.693   0.697
  0.701   0.703   0.707   0.711   0.714   0.716   0.718   0.723
  0.726   0.732   0.736   0.742   0.746   0.747   0.753   0.756
  0.760   0.763   0.765   0.774   0.778   0.783   0.789   0.797
  0.804   0.810   0.813   0.820   0.826   0.830   0.833   0.842
  0.844   0.850   0.860   0.871   0.875   0.882   0.888   0.900
  0.907   0.908   0.919   0.921   0.926   0.934   0.940   0.941
  0.944   0.948   0.950   0.953   0.960   0.964   0.967   0.967
  0.969   0.973   0.979   0.981   0.987   0.992   0.994   1.000
  1.003   1.007   1.010   1.011   1.012   1.013   1.023   1.025
  1.030   1.035   1.041   1.043   1.047   1.051   1.053   1.056
  1.061   1.066   1.068   1.071   1.075   1.080   1.083   1.092
  1.093   1.098   1.103   1.105   1.109   1.115   1.122   1.124
  1.126   1.130   1.137   1.138   1.144   1.147   1.149   1.154
  1.160   1.167   1.176   1.178   1.187   1.189   1.199   1.206
  1.212   1.214   1.221   1.223   1.232   1.235   1.255   1.270
  1.274   1.275   1.281   1.285   1.296   1.302   1.306   1.310
  1.313   1.319   1.321   1.330   1.335   1.338   1.343   1.349
  1.354   1.362   1.364   1.373   1.378   1.386   1.392   1.399
  1.410   1.416   1.420   1.427   1.432   1.451   1.468   1.474
  1.479   1.493   1.499   1.502   1.505   1.515   1.517   1.525
  1.530   1.535   1.538   1.541   1.546   1.552   1.553   1.554
  1.560   1.564   1.571   1.572   1.576   1.583   1.591   1.594
  1.600   1.602   1.605   1.616   1.618   1.627   1.633   1.643
  1.651   1.666   1.669   1.676   1.695   1.703   1.710   1.733
  1.736   1.737   1.753   1.763   1.775   1.778   1.780   1.790
  1.800   1.807   1.812   1.822   1.827   1.832   1.834   1.839
  1.841   1.850   1.855   1.862   1.868   1.871   1.883   1.885
  1.893   1.901   1.909   1.922   1.924   1.929   1.938   1.944
  1.950   1.953   1.956   1.968   1.972   1.980   1.984   1.992
  1.997   2.003   2.011   2.015   2.020   2.021   2.028   2.037
  2.043   2.048   2.054   2.055   2.059   2.071   2.075   2.078
  2.087   2.094   2.102   2.112   2.128   2.135   2.140   2.143
  2.148   2.153   2.155   2.164   2.170   2.173   2.173   2.177
  2.185   2.191   2.198   2.200   2.211   2.218   2.222   2.229
  2.234   2.243   2.250   2.260   2.262   2.265   2.267   2.273
  2.277   2.286   2.289   2.296   2.301   2.306   2.308   2.314
  2.318   2.332   2.332   2.340   2.345   2.352   2.357   2.364
  2.369   2.371   2.375   2.378   2.386   2.390   2.399   2.407
  2.408   2.414   2.433   2.438   2.450   2.465   2.470   2.488
  2.491   2.508   2.511   2.521   2.531   2.537   2.550   2.571
  2.580   2.588   2.594   2.611   2.613   2.630   2.643   2.649
  2.655   2.669   2.680   2.685   2.689   2.696   2.705   2.711
  2.718   2.724   2.729   2.735   2.737   2.740   2.749   2.755
  2.764   2.767   2.772   2.775   2.776   2.793   2.798   2.814
  2.820   2.824   2.827   2.831   2.840   2.847   2.857   2.863
  2.872   2.880   2.892   2.894   2.898   2.917   2.922   2.942
  2.947   2.970   2.976   2.979   2.984   3.014   3.018   3.031
  3.033   3.054   3.061   3.078   3.141   3.214   3.274   3.310
  3.361   3.369   3.377   3.394   3.405   3.491   3.558   3.566
  3.588   3.644  13.198  13.251  13.263  13.336  13.363  13.419
 13.623  13.659  13.670  13.690  13.720  13.732  13.759  13.770
 13.778  13.809  13.817  13.836  13.887  13.910  13.918  13.979
 14.064  14.122  14.131  14.166  14.176  14.194  14.196  14.213
 14.222  14.246  14.254  14.270  14.272  14.283  14.319  14.389
 14.545  14.571  14.577  14.585  14.600  14.606  19.484  19.543
 19.632
 --------------------------------------------------------------
 
          Ground-State Mulliken Net Atomic Charges

     Atom                 Charge (a.u.)
  ----------------------------------------
      1 N                    -0.697049
      2 C                     0.311718
      3 C                     0.316950
      4 C                    -0.292114
      5 H                     0.245640
      6 C                    -0.230094
      7 H                     0.213851
      8 C                    -0.227712
      9 H                     0.209948
     10 C                    -0.313928
     11 H                     0.208860
     12 C                     0.163926
     13 C                    -0.307471
     14 H                     0.267011
     15 C                    -0.225164
     16 H                     0.211197
     17 C                    -0.229850
     18 H                     0.207205
     19 C                    -0.311469
     20 H                     0.209343
     21 C                     0.149862
     22 C                     0.180904
     23 C                    -0.269722
     24 H                     0.285338
     25 C                    -0.211393
     26 H                     0.239890
     27 C                    -0.303422
     28 H                     0.219457
     29 C                     0.230156
     30 C                     0.059282
     31 C                    -0.515044
     32 H                     0.248679
     33 H                     0.254244
     34 C                    -0.237253
     35 C                    -0.648471
     36 H                     0.224456
     37 H                     0.224530
     38 H                     0.241754
     39 C                    -0.547494
     40 H                     0.253037
     41 H                     0.256838
     42 C                     0.142488
     43 C                    -0.314384
     44 H                     0.246718
     45 C                     0.075754
     46 C                    -0.005553
     47 N                    -0.158302
     48 C                     0.082618
     49 C                    -0.290742
     50 H                     0.281113
     51 C                     0.153984
     52 C                    -0.005983
     53 N                    -0.158577
     54 C                    -0.411400
     55 C                     0.022241
     56 C                    -0.256422
     57 H                     0.231544
     58 C                    -0.240317
     59 H                     0.232310
     60 C                    -0.208382
     61 H                     0.231386
     62 C                    -0.325984
     63 H                     0.215246
     64 C                     0.162809
     65 C                     0.129915
     66 C                    -0.320295
     67 H                     0.214635
     68 C                    -0.216380
     69 H                     0.230192
     70 C                    -0.220482
     71 H                     0.227471
     72 C                    -0.283286
     73 H                     0.215062
     74 C                     0.176147
     75 C                    -0.588619
     76 H                     0.221264
     77 H                     0.219066
     78 H                     0.226720
  ----------------------------------------
  Sum of atomic charges =    -0.000000

 -----------------------------------------------------------------
                    Cartesian Multipole Moments
 -----------------------------------------------------------------
    Charge (ESU x 10^10)
                -0.0000
    Dipole Moment (Debye)
         X       2.3336      Y      -3.4343      Z       5.4265
       Tot       6.8328
    Quadrupole Moments (Debye-Ang)
        XX    -286.4609     XY      37.5611     YY    -287.5038
        XZ     -53.0840     YZ      44.8996     ZZ    -323.8558
    Octopole Moments (Debye-Ang^2)
       XXX    1737.7929    XXY    -794.0941    XYY     689.1952
       YYY   -1568.3885    XXZ     899.1302    XYZ    -375.3652
       YYZ     772.1863    XZZ     955.4462    YZZ    -888.4097
       ZZZ    2000.6513
    Hexadecapole Moments (Debye-Ang^3)
      XXXX  -24208.5740   XXXY    8337.4644   XXYY   -7478.1755
      XYYY    7085.6821   YYYY  -14052.6375   XXXZ  -10107.6743
      XXYZ    4408.7125   XYYZ   -4170.6981   YYYZ    7402.0773
      XXZZ   -9854.3389   XYZZ    4611.7390   YYZZ   -7693.2451
      XZZZ  -10324.8815   YZZZ    8998.6181   ZZZZ  -22493.3310
 -----------------------------------------------------------------
 Calculating analytic gradient of the CIS energy
 -1.234206203794527E-003 -1.234213066318358E-003
 -1.234218246441768E-003 -1.234201049532944E-003
 -1.234201528907532E-003 -1.234217721960982E-003
 -1.234177561177598E-003 -1.234241698384871E-003
 -1.234238026713468E-003 -1.234181289551240E-003
 -1.234195159474660E-003 -1.234224107857182E-003
 -1.234185330268501E-003 -1.234233930386396E-003
 -1.234222978925465E-003 -1.234196332622430E-003
 -1.234187870109656E-003 -1.234231384115634E-003
 -1.234209535284036E-003 -1.234209729123445E-003
 -1.234220617182392E-003 -1.234198692231904E-003
 -1.234173655159957E-003 -1.234245604065526E-003
 -1.234197571359827E-003 -1.234221680407633E-003
 -1.234211320916096E-003 -1.234207973121681E-003
 -1.234195214606462E-003 -1.234224052872555E-003
 -1.234194888535834E-003 -1.234224348330738E-003
 -1.234224127278468E-003 -1.234195179613446E-003
 -1.234207267279326E-003 -1.234212019746303E-003
 -1.234210683738672E-003 -1.234208574777554E-003
 -1.234213150682199E-003 -1.234206115405757E-003
 -1.234184918391782E-003 -1.234234338781830E-003
 -1.234234027180251E-003 -1.234185255007398E-003
 -1.234212214376614E-003 -1.234207110737631E-003
 -1.234175674075865E-003 -1.234243578425932E-003
 -1.234210233826974E-003 -1.234209051557420E-003
 -1.234215805587016E-003 -1.234203496072552E-003
 -1.234207409832071E-003 -1.234211866833515E-003
 -1.234184897329524E-003 -1.234234332818916E-003
 -1.234230063612919E-003 -1.234189266008087E-003
 -1.234210173179923E-003 -1.234209112509974E-003
 -1.234226649821773E-003 -1.234192582704024E-003
 -1.234212634974809E-003 -1.234206674035708E-003
 -1.234202721117343E-003 -1.234216566090096E-003
 -1.234227931339934E-003 -1.234191342896884E-003
 -1.234220590033368E-003 -1.234198743628321E-003
 -1.234208760318223E-003 -1.234210498458787E-003
 -1.234201971930886E-003 -1.234217301586512E-003
 -1.234190664135440E-003 -1.234228650847071E-003
 -1.234220892023407E-003 -1.234198366361507E-003
 -1.234195382275153E-003 -1.234223894404375E-003
 -1.234179915567697E-003 -1.234239387399549E-003
 -1.234203656257397E-003 -1.234215611743149E-003
 -1.234191760888207E-003 -1.234227498087582E-003
 -1.234205555125948E-003 -1.234213751948928E-003
 -1.234199848173927E-003 -1.234219411472002E-003
 -1.234193063546013E-003 -1.234226183717826E-003
 -1.234202681768663E-003 -1.234216594101802E-003
 -1.234219087672286E-003 -1.234200183487013E-003
 -1.234194514014104E-003 -1.234224760460440E-003
 -1.234212512965765E-003 -1.234206804784203E-003
 -1.234236792717205E-003 -1.234182463972338E-003
 -1.234200869154581E-003 -1.234218428309900E-003
 -1.234222496780329E-003 -1.234196794571998E-003
 -1.234212245265966E-003 -1.234207026137469E-003
 -1.234184596294880E-003 -1.234234675398047E-003
 -1.234230590195418E-003 -1.234188742007784E-003
 -1.234193636857224E-003 -1.234225633512708E-003
 -1.234212417878474E-003 -1.234206860572590E-003
 -1.234220891727056E-003 -1.234198424249827E-003
 -1.234224027687927E-003 -1.234195246532037E-003
 -1.234217608487704E-003 -1.234201664760662E-003
 -1.234228062261466E-003 -1.234191264275066E-003
 -1.234208113718357E-003 -1.234211143283932E-003
 -1.234204270211612E-003 -1.234214990547963E-003
 -1.234192410327364E-003 -1.234226862897622E-003
 -1.234209704675781E-003 -1.234209589358674E-003
 -1.234222193245309E-003 -1.234197065491123E-003
 -1.234227790752091E-003 -1.234191478887779E-003
 -1.234223183469726E-003 -1.234196095571099E-003
 -1.234213473293725E-003 -1.234205779576437E-003
 -1.234227236151969E-003 -1.234191988227298E-003
 -1.234225904328089E-003 -1.234193345757704E-003
 -1.234225806400549E-003 -1.234193458003431E-003
 -1.234218036011682E-003 -1.234201218316949E-003
 -1.234205522284961E-003 -1.234213786558864E-003
 -1.234223362073535E-003 -1.234195907994439E-003
 -1.234209927232102E-003 -1.234209339777434E-003
 -1.234205544651639E-003 -1.234213748656127E-003
 -1.234226365906571E-003 -1.234192913756237E-003
 -1.234211169151371E-003 -1.234208088587444E-003
 -1.234202467607804E-003 -1.234216846658125E-003
 -1.234226458563417E-003 -1.234192814788529E-003
 -1.234223048787057E-003 -1.234196213486669E-003
 -1.234203142161387E-003 -1.234216137360871E-003
 -1.234209439335544E-003 -1.234209824233811E-003
 -1.234208881885319E-003 -1.234210396461949E-003
 -1.234207780779668E-003 -1.234211522994776E-003
 -1.234232618061008E-003 -1.234186656462861E-003
 -1.234211721150833E-003 -1.234207542543004E-003
 -1.234204573565097E-003 -1.234214729654866E-003
 -1.234196435062807E-003 -1.234222824916299E-003
 -1.234214452661456E-003 -1.234204804196699E-003
 -1.234197967247251E-003 -1.234221308921789E-003
 -1.234225296267483E-003 -1.234193964583296E-003
 -1.234229012301481E-003 -1.234190259471657E-003
 -1.234208124234032E-003 -1.234211145850498E-003
 -1.234229683833624E-003 -1.234189566749958E-003
 -1.234213069488097E-003 -1.234206182737219E-003
 -1.234193665368214E-003 -1.234225583478772E-003
 -1.234202276920136E-003 -1.234216978874135E-003
 -1.234204842630759E-003 -1.234214461608749E-003
 -1.234213302799163E-003 -1.234205957480517E-003
 -1.234223450837806E-003 -1.234195807791810E-003
 -1.234232132878104E-003 -1.234187175824567E-003
 -1.234210436802159E-003 -1.234208771645186E-003
 -1.234194907702485E-003 -1.234224363405710E-003
 -1.234214857860096E-003 -1.234204416515544E-003
 -1.234200587883726E-003 -1.234218639689996E-003
 -1.234193167938834E-003 -1.234226085976398E-003
 -1.234211752467552E-003 -1.234207526099318E-003
 -1.234207969802363E-003 -1.234211280235900E-003
 -1.234199683283345E-003 -1.234219545332056E-003
 -1.234218319756991E-003 -1.234200933047573E-003
 -1.234204496315739E-003 -1.234214740997806E-003
 -1.234230971977104E-003 -1.234188271228056E-003
 -1.234214557552448E-003 -1.234204718280822E-003
 -1.234218519616259E-003 -1.234200768726432E-003
 -1.234221716435332E-003 -1.234197564259318E-003
 -1.234212294821399E-003 -1.234206979036124E-003
 -1.234215658684320E-003 -1.234203617719976E-003
 -1.234216177206983E-003 -1.234203068553580E-003
 -1.234226624502428E-003 -1.234192632822610E-003
 -1.234222030252631E-003 -1.234197208593238E-003
 -1.234226923222560E-003 -1.234192346363665E-003
 -1.234197837945786E-003 -1.234221455373195E-003
 -1.234237088973966E-003 -1.234182194929593E-003
 -1.234202055314385E-003 -1.234217229624890E-003
 -1.234220800384782E-003 -1.234198497145895E-003
 -1.234202577474418E-003 -1.234216697809344E-003
 -1.234222139823447E-003 -1.234197141170707E-003
 -1.234210059159995E-003 -1.234209209781448E-003
 -1.234223540119743E-003 -1.234195717727633E-003
 -1.234244331892142E-003 -1.234174924751709E-003
 -1.234201999494742E-003 -1.234217299357437E-003
 -1.234228460259011E-003 -1.234190819063145E-003
 -1.234231482321895E-003 -1.234187820145253E-003
 -1.234207502102033E-003 -1.234211847197340E-003
 -1.234219500063496E-003 -1.234199844851902E-003
 -1.234191354923186E-003 -1.234227933918340E-003
 -1.234219189692824E-003 -1.234200129211531E-003
 -1.234207031960078E-003 -1.234212286570316E-003
 -1.234199865974072E-003 -1.234219387892021E-003
 -1.234213365915548E-003 -1.234205939795298E-003
 -1.234207271185469E-003 -1.234211998427790E-003
 -1.234248991697496E-003 -1.234170268847599E-003
 -1.234204019536747E-003 -1.234215280183778E-003
 -1.234215213658275E-003 -1.234204048707524E-003
 -1.234209249550570E-003 -1.234210000225429E-003
 -1.234207281707746E-003 -1.234211980539180E-003
 -1.234219423347623E-003 -1.234199816529308E-003
 -1.234214635201393E-003 -1.234204641707839E-003
 -1.234208733464459E-003 -1.234210566014452E-003
 -1.234208332806289E-003 -1.234210952661535E-003
 -1.234202864252511E-003 -1.234216391449130E-003
 -1.234203967090689E-003 -1.234215347261014E-003
 -1.234225742597427E-003 -1.234193553855536E-003
 -1.234247453537409E-003 -1.234171804249130E-003
 -1.234206768152470E-003 -1.234212528605316E-003
 -1.234225340769516E-003 -1.234193956447099E-003
 -1.234233047062945E-003 -1.234186207128060E-003
 -1.234227963433616E-003 -1.234191306664921E-003
 -1.234221913703064E-003 -1.234197355740309E-003
 -1.234215542664766E-003 -1.234203694087730E-003
 -1.234218055302090E-003 -1.234201202607441E-003
 -1.234210204451660E-003 -1.234209045302131E-003
 -1.234191321825398E-003 -1.234227915545007E-003
 -1.234198770518754E-003 -1.234220472920296E-003
 -1.234203894924822E-003 -1.234215346274767E-003
 -1.234205308097650E-003 -1.234213934480371E-003
 -1.234198270537972E-003 -1.234220954149413E-003
 -1.234224227625941E-003 -1.234195006438671E-003
 -1.234198935635373E-003 -1.234220344596327E-003
 -1.234219522645881E-003 -1.234199714506456E-003
 -1.234221514245042E-003 -1.234197731161210E-003
 -1.234190216055843E-003 -1.234229044793261E-003
 -1.234202325956453E-003 -1.234216919122840E-003
 -1.234235907024769E-003 -1.234183367448946E-003
 -1.234176052121104E-003 -1.234243195721965E-003
 -1.234207791448203E-003 -1.234211467370353E-003
 -1.234231606452145E-003 -1.234187656010968E-003
 -1.234197057668224E-003 -1.234222218347330E-003
 -1.234203225735692E-003 -1.234216047920409E-003
 -1.234230624886139E-003 -1.234188659657800E-003
 -1.234204663362158E-003 -1.234214611372199E-003
 -1.234206423226250E-003 -1.234212798291125E-003
 -1.234214434626188E-003 -1.234204805033545E-003
 -1.234190134703990E-003 -1.234229124613626E-003
 -1.234185127904895E-003 -1.234234121647740E-003
 -1.234230496569375E-003 -1.234188746052894E-003
 -1.234199944353494E-003 -1.234219297145021E-003
 -1.234218040402588E-003 -1.234201193805134E-003
 -1.234220734326277E-003 -1.234198505982543E-003
 -1.234215028467442E-003 -1.234204226388686E-003
 -1.234198260551141E-003 -1.234220966935537E-003
 -1.234204612082771E-003 -1.234214612727019E-003
 -1.234208034287827E-003 -1.234211202645470E-003
 -1.234183947698163E-003 -1.234235327519420E-003
 -1.234205928719640E-003 -1.234213308885157E-003
 -1.234207419441220E-003 -1.234211830328034E-003
 -1.234176675483437E-003 -1.234242587178048E-003
 -1.234202413202135E-003 -1.234216847813765E-003
 -1.234202379874719E-003 -1.234216898113620E-003
 -1.234163838550028E-003 -1.234255435819861E-003
 -1.234190154105224E-003 -1.234229097046182E-003
 -1.234217385700862E-003 -1.234201889448088E-003
 -1.234187994965888E-003 -1.234231332320667E-003
 -1.234206616356842E-003 -1.234212665543781E-003
 -1.234229858112136E-003 -1.234189388118327E-003
 -1.234188326738752E-003 -1.234230958991600E-003
 -1.234190254391015E-003 -1.234228979378267E-003
 -1.234212979266806E-003 -1.234206295600112E-003
 -1.234179557649367E-003 -1.234239726562697E-003
 -1.234200054684251E-003 -1.234219198565074E-003
 -1.234211362143591E-003 -1.234207897498403E-003
 -1.234196154746488E-003 -1.234223070763078E-003
 -1.234210518838558E-003 -1.234208712370585E-003
 -1.234219724481294E-003 -1.234199528760680E-003
 -1.234188893418263E-003 -1.234230335832360E-003
 -1.234208255684050E-003 -1.234210987217480E-003
 -1.234218100290893E-003 -1.234201157501098E-003
 -1.234211437061267E-003 -1.234207796444253E-003
 -1.234210236147522E-003 -1.234208994830760E-003
 -1.234208824178848E-003 -1.234210461310021E-003
 -1.234199918453565E-003 -1.234219340953193E-003
 -1.234198150585820E-003 -1.234221075149834E-003
 -1.234189585694699E-003 -1.234229690862857E-003
 -1.234221995516759E-003 -1.234197258993804E-003
 -1.234197865266932E-003 -1.234221370722203E-003
 -1.234189188393612E-003 -1.234230077256603E-003
 -1.234219489823633E-003 -1.234199776601943E-003
 -1.234206989996473E-003 -1.234212258013918E-003
 -1.234202348814950E-003 -1.234216908549225E-003
 -1.234193076181340E-003 -1.234226144112220E-003
 -1.234204942441066E-003 -1.234214324832760E-003
 CIS relaxed dipole moment
            1
    1   5.8337146
    2  -1.7888792
    3   5.3296660
	Magnitude:	 8.102 au	20.592 Debye
 CIS 3 State Energy is -1855.3705689640
 Gradient of the state energy (including CIS Excitation Energy)
            1           2           3           4           5           6
    1   0.0235732  -0.0002146  -0.0155971  -0.0123194   0.0010292  -0.0073300
    2   0.0042706  -0.0015705  -0.0020620   0.0015598  -0.0000166   0.0018399
    3   0.0132434  -0.0215031   0.0087498   0.0080404  -0.0003300  -0.0087582
            7           8           9          10          11          12
    1   0.0009099   0.0019251   0.0002155   0.0066515  -0.0004951   0.0126685
    2   0.0001358  -0.0010676   0.0003215  -0.0038849   0.0002406  -0.0050348
    3  -0.0009745  -0.0007201  -0.0005593  -0.0050148  -0.0003233   0.0065549
           13          14          15          16          17          18
    1  -0.0003141   0.0006078  -0.0120757  -0.0014985  -0.0000978  -0.0005066
    2   0.0008493   0.0010350   0.0018238   0.0007538  -0.0008981   0.0003057
    3  -0.0149238  -0.0001593  -0.0034177   0.0022549   0.0031135   0.0005078
           19          20          21          22          23          24
    1  -0.0001157  -0.0007262   0.0137994  -0.0235794   0.0001957  -0.0022640
    2  -0.0038375   0.0000985  -0.0034525   0.0059824  -0.0033125   0.0027675
    3   0.0094994  -0.0002326   0.0061731  -0.0134999   0.0010327  -0.0018816
           25          26          27          28          29          30
    1  -0.0010550  -0.0009529   0.0062141   0.0010008  -0.0015907   0.0034359
    2  -0.0060052  -0.0015288  -0.0035526  -0.0005930  -0.0034945   0.0048933
    3   0.0039535  -0.0000507   0.0034102   0.0002647  -0.0002301   0.0015062
           31          32          33          34          35          36
    1  -0.0005271   0.0000368   0.0006939   0.0007045   0.0008292  -0.0007908
    2   0.0000974  -0.0005801  -0.0000083   0.0098409   0.0007909  -0.0002582
    3   0.0006663   0.0002268   0.0002241   0.0009639   0.0009801   0.0004899
           37          38          39          40          41          42
    1   0.0000131   0.0001555   0.0000903  -0.0000409  -0.0000094  -0.0006414
    2  -0.0001800  -0.0003997   0.0000313  -0.0005809   0.0003517   0.0013858
    3  -0.0003358   0.0001756   0.0001812   0.0000731  -0.0000703  -0.0037841
           43          44          45          46          47          48
    1   0.0000837  -0.0002033  -0.0031594   0.0036227  -0.0029513  -0.0009241
    2  -0.0016456   0.0000028   0.0012034  -0.0017899   0.0008639   0.0013135
    3   0.0016065  -0.0000153  -0.0020049   0.0026250  -0.0014702  -0.0021278
           49          50          51          52          53          54
    1   0.0011990  -0.0001186  -0.0007604  -0.0007690   0.0002364   0.0052352
    2  -0.0020063  -0.0011106  -0.0005906  -0.0018232   0.0010556   0.0020991
    3   0.0012515   0.0009347  -0.0005705   0.0037255  -0.0023204   0.0018018
           55          56          57          58          59          60
    1   0.0199632  -0.0001035  -0.0006295   0.0150631   0.0000700  -0.0051065
    2   0.0195040   0.0029344  -0.0007371   0.0095685  -0.0001287  -0.0200830
    3   0.0008397   0.0034432  -0.0011763   0.0001815  -0.0009916  -0.0126896
           61          62          63          64          65          66
    1   0.0004645  -0.0158849  -0.0001236   0.0067777  -0.0249102  -0.0000104
    2   0.0003943  -0.0011942   0.0012056  -0.0231488   0.0076172  -0.0173539
    3  -0.0013002   0.0123922   0.0001274  -0.0266820   0.0255754  -0.0122839
           67          68          69          70          71          72
    1   0.0004598  -0.0216130  -0.0003951   0.0115719  -0.0002501   0.0024725
    2   0.0006082  -0.0055580   0.0008080   0.0107558   0.0001724   0.0031070
    3  -0.0007651   0.0108908   0.0004218   0.0017386   0.0005781  -0.0003901
           73          74          75          76          77          78
    1  -0.0015200   0.0229504  -0.0030381  -0.0004189   0.0004080   0.0003045
    2   0.0001239   0.0190818  -0.0035915   0.0011581   0.0012573  -0.0011306
    3   0.0003303   0.0014713  -0.0011896   0.0007230  -0.0004629   0.0002658
 Gradient time:  CPU 2089.88 s  wall 330.55 s
 Geometry Optimization Parameters
   NAtoms,    NIC,     NZ,  NCons,   NDum,   NFix, NCnnct, MaxDiis
       78     630      78       0       0       0       0       0


** GEOMETRY OPTIMIZATION IN DELOCALIZED INTERNAL COORDINATES **
   Searching for a Minimum

   Optimization Cycle:   1

                       Coordinates (Angstroms)
     ATOM                X               Y               Z
      1  N         0.0000000000    0.0000000000    0.0000000000
      2  C         0.0000000000    0.0000000000    1.3738420000
      3  C         1.1633572231    0.0000000000   -0.7307854048
      4  C        -1.1767290887    0.3525793702    2.0641012234
      5  H        -2.0671155341    0.6196480320    1.5161915620
      6  C        -1.1796200483    0.3873531427    3.4363216445
      7  H        -2.0798861477    0.6704657286    3.9620911651
      8  C        -0.0208160337    0.0754302211    4.1393957887
      9  H        -0.0157560093    0.1082868727    5.2198304658
     10  C         1.1366278619   -0.2788175561    3.4587177382
     11  H         2.0145307119   -0.5257669053    4.0368773055
     12  C         1.1782302992   -0.3279531376    2.0776536029
     13  C         1.1354102662    0.3004476836   -2.1075752217
     14  H         0.2038722316    0.4825686260   -2.6198413751
     15  C         2.3120145347    0.4076539097   -2.8051838971
     16  H         2.2792760865    0.6746920487   -3.8509185438
     17  C         3.5253284265    0.1920739350   -2.1603863938
     18  H         4.4545445958    0.2883642421   -2.7041033567
     19  C         3.5499700530   -0.1664501536   -0.8176889186
     20  H         4.5057018271   -0.3651830586   -0.3564875557
     21  C         2.3882330204   -0.2823854282   -0.0803340965
     22  C        -1.2696777214    0.0599917706   -0.6726341505
     23  C        -1.6814575326    1.2343533546   -1.2521132288
     24  H        -1.0388289305    2.1018353956   -1.1763340962
     25  C        -2.0585806370   -1.0771505610   -0.7161955503
     26  H        -1.7364130297   -2.0079753928   -0.2673522108
     27  C        -3.2857000155   -0.9656820962   -1.3302374398
     28  H        -3.9420343132   -1.8268141669   -1.3403551557
     29  C        -2.8832053228    1.3299768767   -1.9586367927
     30  C        -3.7289579772    0.2152778247   -1.9403476996
     31  C        -5.1365156421    0.2205481533   -2.4615449492
     32  H        -5.6615620324   -0.6277427210   -2.0166626462
     33  H        -5.1523654060    0.0593901974   -3.5423520184
     34  C         2.3676805458   -0.8561006163    1.3171575240
     35  C         3.6799868791   -0.6185484794    2.0625187477
     36  H         4.5163949388   -1.0744915396    1.5367862698
     37  H         3.6646806411   -1.0889594855    3.0435538814
     38  H         3.8879661645    0.4429425871    2.1926948749
     39  C        -5.8652804281    1.5248418089   -2.1380771657
     40  H        -6.9376622123    1.3316835166   -2.0818420436
     41  H        -5.5714030344    1.8520151223   -1.1322019807
     42  C        -5.6075470575    2.5426342779   -3.2047364065
     43  C        -6.6710819858    3.0159590106   -3.9242834426
     44  H        -7.6727611130    2.7526499797   -3.6036266589
     45  C        -6.5449877745    3.7891333936   -5.0913943727
     46  C        -7.6908803557    4.2399577114   -5.7570685179
     47  N        -8.6602100417    4.5944295539   -6.2903590525
     48  C        -5.2056084971    4.0343521980   -5.5633512908
     49  C        -4.1292590689    3.5747003909   -4.8020035794
     50  H        -3.1452481815    3.8326337690   -5.1676831059
     51  C        -4.2651008900    2.8464054244   -3.6368172277
     52  C        -4.9428549831    4.7182953685   -6.7637338435
     53  N        -4.7019351437    5.2799267038   -7.7489368348
     54  C        -3.0410108466    2.6510562714   -2.7455079298
     55  C        -1.7456667902    2.7832536110   -3.5461246566
     56  C        -1.3054316127    1.9571001808   -4.5621162433
     57  H        -1.9196951794    1.1322185375   -4.9026493102
     58  C        -0.0876017496    2.2363238666   -5.1706633824
     59  H         0.2549707226    1.6216513226   -5.9934755801
     60  C         0.6755837072    3.3225966126   -4.7529217661
     61  H         1.6141456522    3.5389126360   -5.2467147445
     62  C         0.2327264540    4.1477256334   -3.7290505075
     63  H         0.8258558714    4.9991249983   -3.4198907996
     64  C        -0.9877983437    3.8740263001   -3.1277053389
     65  C        -1.7075439618    4.5469023818   -2.0502951181
     66  C        -1.4001693770    5.6916682543   -1.3327240505
     67  H        -0.4931165294    6.2477854481   -1.5343864061
     68  C        -2.2871597863    6.1283369684   -0.3591355590
     69  H        -2.0701474311    7.0270359161    0.2027107066
     70  C        -3.4637351048    5.4290349511   -0.1138721403
     71  H        -4.1553206770    5.7917416427    0.6354251661
     72  C        -3.7714597668    4.2814503326   -0.8323783859
     73  H        -4.7039756419    3.7622284013   -0.6554479664
     74  C        -2.8866873996    3.8421437181   -1.7990587330
     75  C         2.1582071748   -2.3878543870    1.1692463428
     76  H         2.9809558047   -2.8254803805    0.6038484990
     77  H         2.1238764372   -2.8562087270    2.1531170928
     78  H         1.2301578260   -2.6302455481    0.6508594013
   Point Group: c1    Number of degrees of freedom:   228


   Energy is  -1855.370568964


 Attempting to Generate Delocalized Internal Coordinates

228 Hessian modes will be used to form the next step
  Hessian Eigenvalues:
     0.002159    0.005503    0.006243    0.009503    0.010606    0.011044
     0.011606    0.012620    0.013665    0.014857    0.015809    0.015984
     0.016860    0.016994    0.017406    0.017712    0.018363    0.018514
     0.018925    0.019378    0.019721    0.020004    0.020269    0.020393
     0.020830    0.020926    0.020996    0.021280    0.021779    0.023203
     0.023235    0.023629    0.023680    0.023725    0.023754    0.023782
     0.023782    0.023803    0.023888    0.023901    0.023924    0.023955
     0.023956    0.023999    0.024036    0.024110    0.024191    0.024208
     0.024275    0.024276    0.024284    0.024298    0.024357    0.024375
     0.024376    0.024400    0.024437    0.024954    0.024989    0.025019
     0.025236    0.037486    0.046309    0.049894    0.053487    0.054371
     0.054463    0.054474    0.055682    0.056522    0.057005    0.067289
     0.075401    0.084554    0.086858    0.090995    0.094391    0.111784
     0.118034    0.124634    0.129258    0.159834    0.159877    0.159888
     0.159907    0.159931    0.159938    0.159942    0.159952    0.159962
     0.159971    0.159977    0.159979    0.159982    0.159985    0.159986
     0.159987    0.159988    0.159993    0.159996    0.159999    0.160000
     0.160000    0.160000    0.160000    0.160000    0.160000    0.160000
     0.167745    0.176492    0.192196    0.200000    0.200000    0.200000
     0.200000    0.219315    0.219939    0.220000    0.220003    0.220006
     0.224556    0.225148    0.225736    0.225998    0.226318    0.229715
     0.233827    0.237474    0.238384    0.240325    0.242331    0.244557
     0.244850    0.245817    0.246578    0.247966    0.248224    0.249713
     0.249792    0.249799    0.249997    0.250000    0.269616    0.273918
     0.283387    0.285165    0.289102    0.290123    0.296285    0.302683
     0.307076    0.315980    0.319040    0.339252    0.344830    0.345444
     0.346871    0.347780    0.347895    0.348123    0.348729    0.350337
     0.350387    0.354757    0.354903    0.355890    0.356458    0.356598
     0.356688    0.356723    0.357005    0.357096    0.357223    0.357253
     0.357672    0.357703    0.358756    0.358803    0.358859    0.359571
     0.360186    0.360200    0.360377    0.361111    0.361530    0.361657
     0.374618    0.389451    0.393525    0.398479    0.406978    0.413398
     0.419884    0.421259    0.422141    0.422676    0.424621    0.434032
     0.435198    0.445890    0.451372    0.454364    0.455266    0.455778
     0.456540    0.458132    0.460526    0.461778    0.465897    0.471805
     0.473495    0.473940    0.475282    0.475825    0.478738    0.478983
     0.479534    0.479607    0.483875    0.484527    0.485468    0.494856
     0.498492    0.498495    0.499981    0.502399    1.266591    1.282187

 Minimum Search - Taking Simple RFO Step
 Searching for Lamda that Minimizes Along All modes
 Value Taken    Lamda =  -0.01892367
 Calculated Step too Large.  Step scaled by  0.947091
 Step Taken.  Stepsize is  0.300000

                             Maximum     Tolerance    Cnvgd?
         Gradient           0.026725      0.000300      NO
         Displacement       0.109034      0.001200      NO
         Energy change     *********      0.000001      NO


 New Cartesian Coordinates Obtained by Inverse Iteration

 Displacement from previous Coordinates is:  2.377786
 Adding empirical dispersion correction 
 ----------------------------------------------------------------
 Doing -D3(BJ) with
 s6 =   1.00000
 s8 =   0.00000
 a1 =   0.48600
 a2 =   4.50000
 -D3 energy including 3body term =     -0.0780609136 hartrees
 ----------------------------------------------------------------
 Adding gCP correction 
 ----------------------------------------------------------------
 gCP energy =      0.1088982218 hartrees
 ----------------------------------------------------------------
             Standard Nuclear Orientation (Angstroms)
    I     Atom           X                Y                Z
 ----------------------------------------------------------------
    1      N       0.0468297855     0.0009411382    -0.0142208989
    2      C       0.0426650600     0.0621105898     1.3777782545
    3      C       1.2363779289    -0.0557196742    -0.7333146633
    4      C      -1.0953272689     0.4999204829     2.0674859376
    5      H      -1.9811685236     0.7870623557     1.5205523985
    6      C      -1.0921329226     0.5895200097     3.4459581435
    7      H      -1.9790028463     0.9323601768     3.9621299853
    8      C       0.0436149544     0.2557649708     4.1611000137
    9      H       0.0572907797     0.3265100846     5.2403647804
   10      C       1.1661812087    -0.1778167851     3.4772108392
   11      H       2.0381759908    -0.4478636784     4.0555156557
   12      C       1.1937566443    -0.2906282759     2.0922738283
   13      C       1.2720705771     0.1879905899    -2.1121767833
   14      H       0.3606951136     0.3758273702    -2.6582928782
   15      C       2.4730488402     0.2020301215    -2.7965583261
   16      H       2.4762391639     0.4065991697    -3.8594051688
   17      C       3.6598784431    -0.0343903691    -2.1300918617
   18      H       4.6053634434    -0.0148818816    -2.6553550449
   19      C       3.6169675880    -0.3313948280    -0.7785930883
   20      H       4.5480648936    -0.5627289419    -0.2812659378
   21      C       2.4271004905    -0.3719119532    -0.0633260816
   22      C      -1.2036840638     0.0629857874    -0.6993719700
   23      C      -1.6425428854     1.2320565603    -1.2826023906
   24      H      -1.0049593708     2.1003061901    -1.1891880885
   25      C      -1.9966078782    -1.0697587418    -0.7706913456
   26      H      -1.6642221113    -1.9967585703    -0.3246661337
   27      C      -3.2304172863    -0.9810169262    -1.3915115804
   28      H      -3.8742512562    -1.8516698189    -1.4078504935
   29      C      -2.8602947781     1.3107326043    -1.9895990449
   30      C      -3.6955866367     0.1868154147    -1.9943217916
   31      C      -5.1050705702     0.1769251924    -2.5219753140
   32      H      -5.6160700460    -0.6871880294    -2.0933293338
   33      H      -5.1200751200     0.0348199127    -3.6058046271
   34      C       2.3567933163    -0.9164888205     1.3488424927
   35      C       3.6765429285    -0.7255440931     2.0915553687
   36      H       4.4931961476    -1.2337028951     1.5807882934
   37      H       3.6364331678    -1.1653896843     3.0863425342
   38      H       3.9336305315     0.3288654168     2.1914581757
   39      C      -5.8643666330     1.4586809578    -2.1731784014
   40      H      -6.9334830119     1.2487466086    -2.1189993858
   41      H      -5.5730477676     1.7660130006    -1.1603908516
   42      C      -5.6269168400     2.5067442010    -3.2138976974
   43      C      -6.6906648441     3.0074426673    -3.9171480615
   44      H      -7.6924672543     2.7363432035    -3.6043944253
   45      C      -6.5635032641     3.8274179135    -5.0527354609
   46      C      -7.7078169568     4.3151168921    -5.6979070287
   47      N      -8.6730899728     4.6998526405    -6.2144280746
   48      C      -5.2282080821     4.0964043859    -5.5176392965
   49      C      -4.1548510786     3.6079241793    -4.7787251831
   50      H      -3.1731270573     3.8934165531    -5.1326763890
   51      C      -4.2921241319     2.8279958678    -3.6458789174
   52      C      -4.9649400884     4.8403281416    -6.6839157623
   53      N      -4.7223386375     5.4509872373    -7.6379046683
   54      C      -3.0750101241     2.6241047945    -2.7638983784
   55      C      -1.8020841935     2.8098699849    -3.5598796279
   56      C      -1.3412944850     2.0130105823    -4.5854347878
   57      H      -1.9179436503     1.1632739226    -4.9250736952
   58      C      -0.1460770794     2.3630777227    -5.1922289792
   59      H       0.2198737554     1.7675789530    -6.0175672157
   60      C       0.5925227450     3.4885229378    -4.7729961025
   61      H       1.5200311356     3.7354542884    -5.2701919107
   62      C       0.1414914652     4.2877229935    -3.7508031096
   63      H       0.7072878713     5.1554082487    -3.4398931471
   64      C      -1.0693022842     3.9473181432    -3.1399534899
   65      C      -1.7917260637     4.5724945343    -2.0810233935
   66      C      -1.5152221401     5.7398634808    -1.3646887929
   67      H      -0.6326554905     6.3314768879    -1.5680300008
   68      C      -2.4088400450     6.1241711236    -0.3943016818
   69      H      -2.2278539176     7.0270274888     0.1715779240
   70      C      -3.5646252004     5.3582062716    -0.1410484492
   71      H      -4.2611766779     5.6922991699     0.6157321790
   72      C      -3.8427153364     4.1947513278    -0.8442664412
   73      H      -4.7476322394     3.6365140482    -0.6540124937
   74      C      -2.9550842122     3.7989534540    -1.8196232650
   75      C       2.0740802526    -2.4350228234     1.2373740740
   76      H       2.8730126172    -2.9339670089     0.6857338742
   77      H       2.0019206321    -2.8855776122     2.2289559284
   78      H       1.1371884225    -2.6292316897     0.7141528906
 ----------------------------------------------------------------
 Nuclear Repulsion Energy =  5537.7356251389 hartrees
 There are      158 alpha and      158 beta electrons
 Nucleus-field energy     =    -0.0000000035 hartrees
 Requested basis set is def2-mSVP
 There are 391 shells and 767 basis functions
 A cutoff of  1.0D-11 yielded  34895 shell pairs
 There are    140087 function pairs (    154648 Cartesian)
 Smallest overlap matrix eigenvalue = 2.81E-04
 Guess MOs from SCF MO coefficient file

 -----------------------------------------------------------------------
  General SCF calculation program by
  Eric Jon Sundstrom, Paul Horn, Yuezhi Mao, Dmitri Zuev, Alec White,
  David Stuck, Shaama M.S., Shane Yost, Joonho Lee, David Small,
  Daniel Levine, Susi Lehtola, Hugh Burton, Evgeny Epifanovsky
 -----------------------------------------------------------------------
 Exchange:     0.4200 Hartree-Fock + 0.5800 PBEh-3c
 Correlation:  1.0000 PBEh-3c
 Using SG-1 standard quadrature grid
 Dispersion:   Grimme D3
 using 8 threads for integral computing
 -------------------------------------------------------
 OpenMP Integral computing Module                
 Release: version 2.0, May 2017, Q-Chem Inc. Pleasanton 
 -------------------------------------------------------
 -------------------------------------------------------
 OpenMP BLAS3 based DFT computing Module                
 Release: version 1.0, May 2013, Q-Chem Inc. Pittsburgh 
 -------------------------------------------------------
 A restricted SCF calculation will be
 performed using DIIS
 SCF converges when DIIS error is below 1.0e-08
 ---------------------------------------
  Cycle       Energy         DIIS error
 ---------------------------------------
    1   -1855.4796359769      6.01e-04  
    2   -1855.5163904836      9.34e-05  
    3   -1855.5175788401      6.13e-05  
    4   -1855.5178171106      2.46e-05  
    5   -1855.5178506975      1.54e-05  
    6   -1855.5178667889      3.57e-06  
    7   -1855.5178675994      1.47e-06  
    8   -1855.5178677604      3.97e-07  
    9   -1855.5178677719      1.87e-07  
   10   -1855.5178677747      6.38e-08  
   11   -1855.5178677751      2.22e-08  
   12   -1855.5178677751      1.03e-08  
   13   -1855.5178677752      4.89e-09  Convergence criterion met
 ---------------------------------------
 SCF time:   CPU 3686.44s  wall 461.00s 
 SCF   energy in the final basis set =    -1855.5178677752
 Total energy in the final basis set =    -1855.5178677752
 
 Direct TDDFT/TDA calculation will be performed
 Exchange:     0.4200 Hartree-Fock + 0.5800 PBEh-3c
 Correlation:  1.0000 PBEh-3c
 Using SG-1 standard quadrature grid
 Dispersion:   Grimme D3
 Singlet excitation energies requested
 CIS energy converged when residual is below 10e- 6
 ---------------------------------------------------
 Iter    Rts Conv    Rts Left    Ttl Dev     Max Dev
 ---------------------------------------------------
   1         0           4      0.000136    0.000079
   2         0           4      0.000112    0.000067
   3         0           4      0.000068    0.000045
   4         0           4      0.000047    0.000032
   5         1           3      0.000031    0.000022
   6         1           3      0.000022    0.000018
   7         3           1      0.000014    0.000013
   8         3           1      0.000011    0.000010
   9         3           1      0.000011    0.000010
  10         3           1      0.000007    0.000006
  11         3           1      0.000005    0.000004
  12         3           1      0.000003    0.000002
  13         3           1      0.000002    0.000001
  14         4           0      0.000002    0.000001    Roots Converged
 ---------------------------------------------------
 
 ---------------------------------------------------
         TDDFT/TDA Excitation Energies              
 ---------------------------------------------------

 Excited state   1: excitation energy (eV) =    3.3148
 Total energy for state  1:                 -1855.39605164 au
    Multiplicity: Singlet
    Trans. Mom.:  0.1038 X  -0.0779 Y   0.0957 Z
    Strength   :     0.0021107380
    D(158) --> V(  1) amplitude =  0.9973

 Excited state   2: excitation energy (eV) =    3.7673
 Total energy for state  2:                 -1855.37942027 au
    Multiplicity: Singlet
    Trans. Mom.:  0.4801 X   0.0281 Y   0.1974 Z
    Strength   :     0.0249463203
    D(157) --> V(  1) amplitude =  0.9888

 Excited state   3: excitation energy (eV) =    4.0560
 Total energy for state  3:                 -1855.36881165 au
    Multiplicity: Singlet
    Trans. Mom.: -0.0327 X  -0.0103 Y   0.0197 Z
    Strength   :     0.0001551164
    D(158) --> V(  2) amplitude =  0.9620
    D(158) --> V(  3) amplitude = -0.2497

 Excited state   4: excitation energy (eV) =    4.2581
 Total energy for state  4:                 -1855.36138541 au
    Multiplicity: Singlet
    Trans. Mom.:  0.0198 X  -0.1129 Y   0.1843 Z
    Strength   :     0.0049123585
    D(158) --> V(  3) amplitude =  0.3745
    D(158) --> V(  4) amplitude = -0.7501
    D(158) --> V(  5) amplitude =  0.4310
    D(158) --> V(  6) amplitude =  0.2939
 
 ---------------------------------------------------
 Calculating Relaxed Density
 ---------------------------------------------------
 Iter    Rts Conv    Rts Left    Ttl Dev     Max Dev
 ---------------------------------------------------
   1         0           4      0.001083    0.000336
   2         0           4      0.000346    0.000105
   3         0           4      0.000098    0.000028
   4         0           4      0.000035    0.000009
   5         0           4      0.000013    0.000004
   6         0           4      0.000004    0.000001
   7         4           0      0.000000    0.000000    Roots Converged
 ---------------------------------------------------
                Calling CISFollow                   
 ---------------------------------------------------
 Step:              1 State:             3
 Previous State:  3  -1855.370568963995
 Estimated State:    -1852.561232063214
 Energy threshold:28.09337 Overlap threshold:  0.500
 ---------------------------------------------------
 State |    Energy (Eh)   | Delta E (Eh) |  Overlap 
 ---------------------------------------------------
   1   |   -1855.39605164 |  -2.834820   |  0.464872
   2   |   -1855.37942027 |  -2.818188   |  0.937684
   3   |   -1855.36881165 |  -2.807580   |  0.002863
   4   |   -1855.36138541 |  -2.800153   |  0.008183
 ---------------------------------------------------
 Switching to state:           2 from           3
 ---------------------------------------------------
 Stored State:    2 -1855.37942027
 ---------------------------------------------------
 Dynamic thresholds being used
 to change set FOLLOW_ENERGY and FOLLOW_OVERLAP
 ---------------------------------------------------
  SETman timing summary (seconds)
  CPU time              8840.71s
  System time              0.00s
  Wall time             1251.42s
 
 --------------------------------------------------------------
 
                    Orbital Energies (a.u.)
 --------------------------------------------------------------
 
 Alpha MOs
 -- Occupied --
-14.681 -14.662 -14.659 -10.529 -10.527 -10.511 -10.509 -10.505
-10.504 -10.501 -10.499 -10.496 -10.492 -10.492 -10.492 -10.490
-10.481 -10.478 -10.478 -10.476 -10.474 -10.473 -10.471 -10.469
-10.467 -10.467 -10.466 -10.466 -10.466 -10.465 -10.465 -10.465
-10.465 -10.464 -10.463 -10.451 -10.450 -10.444 -10.444 -10.442
-10.441 -10.441 -10.439 -10.437 -10.434 -10.429 -10.427  -1.092
 -1.041  -1.030  -1.020  -1.001  -0.986  -0.965  -0.960  -0.958
 -0.938  -0.935  -0.910  -0.900  -0.892  -0.885  -0.860  -0.857
 -0.849  -0.848  -0.835  -0.817  -0.817  -0.811  -0.797  -0.777
 -0.772  -0.746  -0.732  -0.727  -0.715  -0.712  -0.705  -0.690
 -0.682  -0.678  -0.671  -0.670  -0.666  -0.646  -0.618  -0.615
 -0.614  -0.611  -0.600  -0.588  -0.580  -0.571  -0.566  -0.562
 -0.541  -0.540  -0.537  -0.534  -0.532  -0.526  -0.525  -0.521
 -0.519  -0.510  -0.509  -0.503  -0.503  -0.500  -0.495  -0.492
 -0.488  -0.487  -0.486  -0.485  -0.474  -0.468  -0.460  -0.451
 -0.448  -0.445  -0.442  -0.441  -0.438  -0.438  -0.434  -0.433
 -0.430  -0.427  -0.426  -0.423  -0.419  -0.418  -0.415  -0.413
 -0.411  -0.402  -0.400  -0.398  -0.397  -0.396  -0.393  -0.376
 -0.374  -0.365  -0.348  -0.336  -0.325  -0.314  -0.306  -0.305
 -0.299  -0.290  -0.285  -0.283  -0.262  -0.225
 -- Virtual --
 -0.079  -0.043  -0.030  -0.015  -0.010  -0.005   0.014   0.016
  0.020   0.032   0.045   0.049   0.054   0.058   0.076   0.109
  0.113   0.120   0.129   0.132   0.133   0.137   0.147   0.149
  0.153   0.157   0.160   0.163   0.167   0.176   0.177   0.180
  0.187   0.191   0.193   0.196   0.198   0.200   0.203   0.208
  0.211   0.213   0.217   0.223   0.223   0.226   0.227   0.230
  0.236   0.238   0.238   0.242   0.245   0.249   0.252   0.254
  0.255   0.260   0.264   0.268   0.269   0.277   0.278   0.279
  0.286   0.291   0.292   0.295   0.300   0.304   0.306   0.308
  0.311   0.318   0.329   0.332   0.336   0.339   0.346   0.360
  0.361   0.370   0.372   0.378   0.381   0.386   0.391   0.398
  0.403   0.410   0.417   0.425   0.433   0.436   0.446   0.452
  0.458   0.463   0.470   0.474   0.477   0.480   0.484   0.490
  0.499   0.501   0.503   0.511   0.514   0.517   0.519   0.520
  0.522   0.525   0.529   0.531   0.538   0.540   0.543   0.546
  0.550   0.552   0.559   0.561   0.563   0.567   0.571   0.572
  0.576   0.577   0.582   0.584   0.585   0.588   0.594   0.598
  0.601   0.602   0.605   0.609   0.612   0.616   0.617   0.620
  0.621   0.624   0.625   0.629   0.631   0.632   0.633   0.641
  0.643   0.645   0.648   0.650   0.656   0.660   0.664   0.666
  0.669   0.676   0.677   0.680   0.686   0.688   0.689   0.694
  0.697   0.700   0.704   0.707   0.712   0.716   0.718   0.721
  0.724   0.728   0.738   0.739   0.745   0.749   0.751   0.754
  0.757   0.759   0.767   0.771   0.776   0.782   0.789   0.797
  0.803   0.810   0.816   0.819   0.824   0.828   0.833   0.838
  0.845   0.849   0.862   0.869   0.874   0.883   0.889   0.902
  0.907   0.908   0.921   0.923   0.930   0.935   0.938   0.940
  0.944   0.946   0.948   0.956   0.960   0.964   0.966   0.968
  0.970   0.971   0.977   0.979   0.986   0.994   0.996   1.001
  1.002   1.006   1.010   1.010   1.011   1.015   1.022   1.025
  1.029   1.030   1.040   1.043   1.050   1.051   1.053   1.056
  1.060   1.063   1.067   1.071   1.075   1.079   1.080   1.092
  1.096   1.098   1.099   1.103   1.109   1.111   1.118   1.123
  1.124   1.126   1.136   1.139   1.142   1.148   1.149   1.156
  1.158   1.163   1.174   1.176   1.180   1.185   1.198   1.204
  1.208   1.212   1.215   1.223   1.231   1.235   1.249   1.262
  1.268   1.274   1.280   1.281   1.295   1.299   1.304   1.308
  1.310   1.319   1.321   1.328   1.333   1.337   1.340   1.348
  1.352   1.360   1.365   1.375   1.376   1.386   1.390   1.397
  1.405   1.414   1.422   1.424   1.433   1.449   1.467   1.477
  1.480   1.493   1.500   1.502   1.505   1.514   1.514   1.525
  1.532   1.536   1.538   1.541   1.543   1.548   1.553   1.554
  1.559   1.562   1.570   1.572   1.575   1.583   1.589   1.596
  1.599   1.603   1.608   1.614   1.619   1.628   1.635   1.643
  1.652   1.667   1.669   1.678   1.690   1.711   1.718   1.734
  1.734   1.741   1.750   1.765   1.775   1.777   1.783   1.794
  1.798   1.804   1.812   1.826   1.829   1.832   1.837   1.839
  1.839   1.851   1.856   1.865   1.867   1.872   1.875   1.888
  1.891   1.902   1.909   1.919   1.928   1.932   1.937   1.940
  1.951   1.954   1.956   1.968   1.973   1.980   1.988   1.993
  1.997   2.002   2.005   2.016   2.018   2.022   2.023   2.041
  2.047   2.049   2.054   2.057   2.061   2.067   2.072   2.076
  2.082   2.090   2.099   2.118   2.123   2.127   2.135   2.142
  2.149   2.153   2.155   2.159   2.170   2.171   2.174   2.180
  2.186   2.190   2.196   2.201   2.209   2.215   2.216   2.228
  2.233   2.243   2.246   2.256   2.258   2.262   2.266   2.269
  2.276   2.280   2.289   2.297   2.300   2.305   2.310   2.311
  2.323   2.325   2.334   2.337   2.345   2.351   2.360   2.364
  2.368   2.373   2.376   2.378   2.388   2.389   2.394   2.402
  2.403   2.416   2.433   2.440   2.455   2.469   2.471   2.487
  2.491   2.514   2.518   2.525   2.533   2.536   2.547   2.572
  2.579   2.589   2.596   2.603   2.612   2.627   2.642   2.646
  2.656   2.669   2.680   2.688   2.690   2.696   2.703   2.712
  2.717   2.725   2.730   2.735   2.738   2.742   2.748   2.754
  2.760   2.765   2.768   2.775   2.779   2.792   2.795   2.810
  2.821   2.825   2.828   2.833   2.838   2.850   2.855   2.862
  2.867   2.877   2.887   2.895   2.899   2.911   2.917   2.937
  2.948   2.974   2.975   2.979   2.985   3.015   3.025   3.031
  3.039   3.051   3.065   3.079   3.147   3.213   3.265   3.316
  3.363   3.373   3.375   3.380   3.395   3.488   3.555   3.563
  3.579   3.647  13.195  13.247  13.266  13.330  13.355  13.425
 13.622  13.654  13.663  13.689  13.719  13.726  13.760  13.761
 13.770  13.799  13.812  13.831  13.892  13.912  13.926  13.988
 14.063  14.110  14.123  14.165  14.173  14.186  14.193  14.217
 14.222  14.246  14.255  14.261  14.277  14.288  14.324  14.410
 14.547  14.562  14.564  14.587  14.593  14.612  19.486  19.545
 19.628
 --------------------------------------------------------------
 
          Ground-State Mulliken Net Atomic Charges

     Atom                 Charge (a.u.)
  ----------------------------------------
      1 N                    -0.717490
      2 C                     0.318854
      3 C                     0.326308
      4 C                    -0.290489
      5 H                     0.242388
      6 C                    -0.232585
      7 H                     0.214708
      8 C                    -0.220240
      9 H                     0.212441
     10 C                    -0.315041
     11 H                     0.208919
     12 C                     0.160831
     13 C                    -0.303235
     14 H                     0.257651
     15 C                    -0.230051
     16 H                     0.211697
     17 C                    -0.221882
     18 H                     0.210717
     19 C                    -0.310916
     20 H                     0.208907
     21 C                     0.147150
     22 C                     0.208483
     23 C                    -0.271940
     24 H                     0.276914
     25 C                    -0.220731
     26 H                     0.235706
     27 C                    -0.302740
     28 H                     0.218813
     29 C                     0.218464
     30 C                     0.068301
     31 C                    -0.516019
     32 H                     0.249408
     33 H                     0.254509
     34 C                    -0.234380
     35 C                    -0.650375
     36 H                     0.224381
     37 H                     0.224452
     38 H                     0.241422
     39 C                    -0.545959
     40 H                     0.253650
     41 H                     0.257281
     42 C                     0.145959
     43 C                    -0.318222
     44 H                     0.245976
     45 C                     0.073077
     46 C                    -0.005759
     47 N                    -0.158246
     48 C                     0.085220
     49 C                    -0.286547
     50 H                     0.283650
     51 C                     0.150125
     52 C                    -0.005808
     53 N                    -0.157797
     54 C                    -0.399971
     55 C                     0.008517
     56 C                    -0.246106
     57 H                     0.230501
     58 C                    -0.243067
     59 H                     0.227968
     60 C                    -0.206612
     61 H                     0.230012
     62 C                    -0.314427
     63 H                     0.215593
     64 C                     0.152108
     65 C                     0.113491
     66 C                    -0.306098
     67 H                     0.214990
     68 C                    -0.215324
     69 H                     0.229423
     70 C                    -0.226754
     71 H                     0.225293
     72 C                    -0.273979
     73 H                     0.214566
     74 C                     0.171528
     75 C                    -0.589234
     76 H                     0.221745
     77 H                     0.219642
     78 H                     0.226279
  ----------------------------------------
  Sum of atomic charges =     0.000000

 -----------------------------------------------------------------
                    Cartesian Multipole Moments
 -----------------------------------------------------------------
    Charge (ESU x 10^10)
                 0.0000
    Dipole Moment (Debye)
         X       2.4368      Y      -3.8144      Z       5.3814
       Tot       7.0318
    Quadrupole Moments (Debye-Ang)
        XX    -287.2334     XY      39.1437     YY    -290.0468
        XZ     -52.4837     YZ      46.1306     ZZ    -320.8096
    Octopole Moments (Debye-Ang^2)
       XXX    1744.0891    XXY    -816.3626    XYY     709.5705
       YYY   -1593.6758    XXZ     891.4247    XYZ    -383.7512
       YYZ     784.1458    XZZ     943.7279    YZZ    -890.9629
       ZZZ    1976.5621
    Hexadecapole Moments (Debye-Ang^3)
      XXXX  -24442.9797   XXXY    8627.0265   XXYY   -7711.8598
      XYYY    7408.9639   YYYY  -14464.5244   XXXZ  -10124.7808
      XXYZ    4493.5501   XYYZ   -4290.6208   YYYZ    7529.3975
      XXZZ   -9790.3226   XYZZ    4683.8221   YYZZ   -7804.0389
      XZZZ  -10215.3037   YZZZ    8999.8564   ZZZZ  -22115.1082
 -----------------------------------------------------------------
 Calculating analytic gradient of the CIS energy
 -1.223207167563723E-003 -1.223214630456755E-003
 -1.223220370929087E-003 -1.223201449096323E-003
 -1.223204949803059E-003 -1.223216826796273E-003
 -1.223178777393552E-003 -1.223243011287938E-003
 -1.223239418737127E-003 -1.223182421067401E-003
 -1.223194968350955E-003 -1.223226825796441E-003
 -1.223187540875409E-003 -1.223234245593538E-003
 -1.223227706129510E-003 -1.223194133490430E-003
 -1.223186899895621E-003 -1.223234879857529E-003
 -1.223210884701416E-003 -1.223210907861443E-003
 -1.223218617449147E-003 -1.223203215710939E-003
 -1.223175621138743E-003 -1.223246165480875E-003
[...]
     44  H        -7.6756033310    2.6908495673   -3.4988427231
     45  C        -6.5792080429    3.8056008636   -4.9534174504
     46  C        -7.7330897164    4.3598571093   -5.5274203940
     47  N        -8.6986537689    4.8072152635   -5.9886073520
     48  C        -5.2626482512    4.0430441080   -5.4777901415
     49  C        -4.1690693593    3.5123903430   -4.8038242949
     50  H        -3.1987706542    3.7826942033   -5.1988876184
     51  C        -4.2758735725    2.7088544745   -3.6808279576
     52  C        -5.0337484223    4.8092156629   -6.6395459362
     53  N        -4.8093932487    5.4405821516   -7.5834608091
     54  C        -3.0418436719    2.5552784836   -2.7944745350
     55  C        -1.7844234164    2.7678535451   -3.6028067853
     56  C        -1.2527456229    1.9343393057   -4.5641771437
     57  H        -1.7365709562    0.9999631240   -4.8131797063
     58  C        -0.1057007902    2.3455237952   -5.2202003400
     59  H         0.3177038795    1.7207755787   -5.9952105604
     60  C         0.5238336880    3.5724938497   -4.9149169914
     61  H         1.4190941400    3.8515861930   -5.4523473831
     62  C         0.0089567469    4.4055178116   -3.9569261322
     63  H         0.4890415457    5.3453003486   -3.7217333359
     64  C        -1.1600256356    4.0035017183   -3.2880700089
     65  C        -1.9224430586    4.6452895131   -2.2825744382
     66  C        -1.7576104057    5.9004913498   -1.6779056591
     67  H        -0.9433159383    6.5524555004   -1.9635696468
     68  C        -2.6587401236    6.2761596904   -0.7164459754
     69  H        -2.5715934524    7.2383157254   -0.2323913503
     70  C        -3.7140999033    5.4119506016   -0.3476872596
     71  H        -4.4153693796    5.7429697267    0.4064989475
     72  C        -3.8842586735    4.1667427852   -0.9302616200
     73  H        -4.7074033249    3.5310685236   -0.6395303252
     74  C        -3.0022400084    3.7849442236   -1.9191980223
     75  C         1.6389548166   -2.5400934028    0.9645282209
     76  H         2.3374841508   -3.1210952301    0.3599101432
     77  H         1.4152295985   -3.1036446585    1.8718396781
     78  H         0.7149513194   -2.4457168181    0.3946560227

Z-matrix Print:
$molecule
0 1
N 
C  1 1.398815
C  2 1.393951 1 121.978066
H  3 1.080531 2 120.745033 1 -3.047357 0
C  3 1.383525 2 120.328405 1 177.038575 0
H  5 1.082588 3 119.245194 2 -179.940524 0
C  5 1.383561 3 120.356727 2 -0.701796 0
H  7 1.081467 5 120.705585 3 -178.896792 0
C  7 1.386238 5 119.115112 3 2.447099 0
H  9 1.081078 7 118.627182 5 177.737391 0
C  9 1.387719 7 121.713169 5 -0.577041 0
C  1 1.399740 2 119.150307 3 -153.830223 0
C  12 1.392763 1 120.643184 2 151.594880 0
H  13 1.081985 12 120.137030 1 1.899613 0
C  13 1.383350 12 119.993464 1 -177.442340 0
H  15 1.082061 13 119.480527 12 -179.884541 0
C  15 1.384926 13 120.134014 12 1.048690 0
H  17 1.081510 15 120.474529 13 179.111415 0
C  17 1.386641 15 119.514810 13 -1.651940 0
H  19 1.081343 17 118.701893 15 -178.789445 0
C  19 1.387958 17 121.502109 15 -0.195213 0
C  1 1.414702 2 121.596380 3 24.674667 0
C  22 1.383535 1 122.274275 2 -72.502573 0
H  23 1.082943 22 117.697053 1 -1.874378 0
C  22 1.387524 1 119.236181 2 107.846679 0
H  25 1.082185 22 119.908905 1 0.248502 0
C  25 1.380871 22 119.638835 1 179.076420 0
H  27 1.082988 25 118.899715 22 -177.854469 0
C  27 1.393912 25 122.592074 22 2.454589 0
C  29 1.397784 27 117.987192 25 -0.572346 0
C  29 1.502546 27 117.880864 25 -176.639381 0
H  31 1.091460 29 107.831281 27 10.448750 0
H  31 1.092937 29 111.256075 27 -105.701929 0
C  21 1.516412 19 124.072743 17 -172.627858 0
C  34 1.524048 21 112.319487 19 -19.206905 0
H  35 1.089646 34 110.877162 21 59.886126 0
H  35 1.089741 34 110.940240 21 177.422261 0
H  35 1.090591 34 112.123890 21 -61.281041 0
C  31 1.530914 29 112.245660 27 131.661315 0
H  39 1.091127 31 109.531499 29 -152.042310 0
H  39 1.097767 31 108.360177 29 -37.489394 0
C  39 1.497367 31 110.800406 29 87.884299 0
C  42 1.369934 39 119.494666 31 126.207882 0
H  43 1.084187 42 118.664106 39 8.110811 0
C  43 1.405360 42 123.729597 39 -169.413708 0
C  45 1.402898 43 120.282053 42 -178.331654 0
N  46 1.159800 45 178.973974 43 -3.423207 0
C  45 1.436898 43 117.080037 42 3.302701 0
C  48 1.389870 45 118.742453 43 -5.087545 0
H  49 1.081951 48 115.669433 45 -175.600773 0
C  49 1.384990 48 123.643152 45 3.129816 0
C  48 1.410351 45 122.621482 43 175.819980 0
N  52 1.157555 48 178.128354 45 164.430947 0
C  51 1.527101 49 117.817114 48 -161.227728 0
C  54 1.509866 51 110.370069 49 -26.436022 0
C  55 1.379007 54 127.533067 51 -70.810944 0
H  56 1.081272 55 120.686573 54 -0.521540 0
C  56 1.383890 55 118.063769 54 177.873748 0
H  58 1.081768 56 119.500891 55 -178.536818 0
C  58 1.412433 56 121.673418 55 0.754009 0
H  60 1.080840 58 119.079394 56 179.899969 0
C  60 1.369954 58 120.787408 56 -0.424756 0
H  62 1.081198 60 120.915180 58 -179.986778 0
C  62 1.405527 60 118.127479 58 0.060424 0
C  64 1.415695 62 131.013383 60 -179.088317 0
C  65 1.402970 64 130.423182 62 2.105674 0
H  66 1.081544 65 120.926533 64 0.020247 0
C  66 1.370243 65 118.062519 64 179.960855 0
H  68 1.080577 66 120.357804 65 -179.497077 0
C  68 1.413020 66 120.438915 65 0.384983 0
H  70 1.081734 68 118.619143 66 -179.299668 0
C  70 1.385240 68 122.125056 66 0.002828 0
H  72 1.079895 70 120.633698 68 -179.167749 0
C  72 1.379029 70 118.157704 68 -1.319420 0
C  34 1.544016 21 108.348494 19 99.861707 0
H  75 1.089699 34 112.146648 21 59.925493 0
H  75 1.091264 34 110.565198 21 -60.419727 0
H  75 1.091361 34 110.310429 21 179.594500 0
$end

 
 --------------------------------------------------------------
 
                    Orbital Energies (a.u.)
 --------------------------------------------------------------
 
 Alpha MOs
 -- Occupied --
-14.677 -14.661 -14.658 -10.528 -10.525 -10.511 -10.509 -10.504
-10.503 -10.500 -10.499 -10.495 -10.491 -10.490 -10.489 -10.487
-10.479 -10.479 -10.477 -10.477 -10.474 -10.474 -10.470 -10.470
-10.468 -10.467 -10.467 -10.467 -10.466 -10.466 -10.465 -10.464
-10.464 -10.463 -10.462 -10.452 -10.451 -10.445 -10.445 -10.443
-10.443 -10.442 -10.439 -10.439 -10.436 -10.431 -10.428  -1.090
 -1.041  -1.030  -1.019  -1.000  -0.986  -0.965  -0.961  -0.958
 -0.937  -0.934  -0.911  -0.899  -0.891  -0.885  -0.860  -0.858
 -0.848  -0.848  -0.834  -0.819  -0.817  -0.811  -0.796  -0.776
 -0.774  -0.745  -0.732  -0.727  -0.716  -0.712  -0.701  -0.691
 -0.681  -0.677  -0.671  -0.670  -0.667  -0.645  -0.620  -0.614
 -0.612  -0.610  -0.599  -0.587  -0.580  -0.570  -0.567  -0.563
 -0.542  -0.540  -0.537  -0.535  -0.532  -0.527  -0.525  -0.521
 -0.518  -0.511  -0.509  -0.504  -0.503  -0.500  -0.496  -0.493
 -0.492  -0.489  -0.485  -0.483  -0.472  -0.468  -0.460  -0.450
 -0.447  -0.444  -0.441  -0.439  -0.438  -0.437  -0.434  -0.432
 -0.429  -0.428  -0.426  -0.423  -0.419  -0.417  -0.415  -0.414
 -0.410  -0.404  -0.400  -0.398  -0.397  -0.395  -0.392  -0.380
 -0.374  -0.360  -0.350  -0.335  -0.325  -0.315  -0.307  -0.303
 -0.298  -0.290  -0.288  -0.281  -0.261  -0.230
 -- Virtual --
 -0.078  -0.045  -0.029  -0.013  -0.010  -0.005   0.014   0.017
  0.021   0.032   0.045   0.046   0.049   0.060   0.074   0.109
  0.114   0.119   0.129   0.132   0.134   0.138   0.147   0.149
  0.154   0.155   0.159   0.164   0.166   0.175   0.176   0.182
  0.187   0.190   0.193   0.194   0.197   0.199   0.206   0.207
  0.211   0.213   0.216   0.221   0.224   0.226   0.228   0.230
  0.236   0.238   0.240   0.242   0.245   0.247   0.252   0.253
  0.254   0.258   0.260   0.262   0.272   0.277   0.279   0.280
  0.282   0.289   0.293   0.298   0.302   0.304   0.307   0.310
  0.314   0.325   0.328   0.334   0.335   0.344   0.347   0.357
  0.365   0.367   0.370   0.378   0.378   0.383   0.391   0.400
  0.402   0.409   0.417   0.424   0.431   0.434   0.447   0.454
  0.459   0.463   0.471   0.474   0.479   0.481   0.484   0.492
  0.498   0.499   0.508   0.511   0.513   0.517   0.522   0.523
  0.526   0.530   0.533   0.537   0.541   0.542   0.545   0.547
  0.551   0.554   0.560   0.561   0.564   0.566   0.571   0.573
  0.575   0.581   0.586   0.587   0.588   0.592   0.596   0.599
  0.600   0.605   0.608   0.611   0.612   0.616   0.619   0.621
  0.622   0.623   0.626   0.629   0.630   0.634   0.639   0.644
  0.644   0.646   0.650   0.653   0.657   0.661   0.663   0.666
  0.671   0.673   0.677   0.680   0.683   0.684   0.686   0.689
  0.693   0.698   0.701   0.709   0.712   0.714   0.716   0.720
  0.724   0.726   0.733   0.735   0.740   0.746   0.749   0.752
  0.757   0.761   0.765   0.771   0.776   0.786   0.787   0.796
  0.801   0.810   0.815   0.820   0.821   0.827   0.831   0.833
  0.841   0.847   0.863   0.868   0.871   0.882   0.893   0.903
  0.905   0.910   0.916   0.926   0.931   0.933   0.937   0.944
  0.948   0.949   0.953   0.956   0.960   0.963   0.966   0.970
  0.973   0.974   0.977   0.982   0.982   0.994   0.998   0.999
  1.003   1.006   1.007   1.009   1.013   1.021   1.022   1.028
  1.029   1.034   1.038   1.045   1.046   1.047   1.053   1.055
  1.056   1.059   1.066   1.068   1.073   1.077   1.080   1.090
  1.092   1.095   1.098   1.099   1.112   1.114   1.116   1.124
  1.125   1.128   1.132   1.136   1.142   1.148   1.150   1.151
  1.160   1.165   1.176   1.180   1.184   1.186   1.193   1.197
  1.206   1.215   1.222   1.235   1.240   1.243   1.256   1.263
  1.268   1.270   1.281   1.285   1.293   1.294   1.298   1.306
  1.311   1.317   1.322   1.327   1.334   1.344   1.347   1.347
  1.354   1.356   1.366   1.377   1.380   1.389   1.394   1.402
  1.408   1.416   1.418   1.428   1.439   1.456   1.471   1.481
  1.491   1.492   1.502   1.506   1.507   1.515   1.519   1.527
  1.530   1.535   1.536   1.539   1.541   1.549   1.551   1.555
  1.561   1.566   1.571   1.573   1.579   1.586   1.591   1.596
  1.598   1.607   1.610   1.612   1.622   1.630   1.637   1.644
  1.660   1.669   1.680   1.684   1.701   1.714   1.717   1.727
  1.735   1.739   1.752   1.767   1.779   1.784   1.785   1.799
  1.803   1.810   1.820   1.823   1.826   1.832   1.835   1.837
  1.847   1.851   1.854   1.862   1.865   1.872   1.880   1.885
  1.890   1.901   1.912   1.917   1.927   1.929   1.936   1.944
  1.954   1.955   1.964   1.973   1.974   1.982   1.991   1.993
  1.995   1.997   2.009   2.014   2.015   2.023   2.030   2.041
  2.044   2.051   2.057   2.058   2.062   2.068   2.072   2.073
  2.084   2.091   2.102   2.118   2.120   2.124   2.135   2.142
  2.145   2.153   2.156   2.161   2.166   2.169   2.171   2.182
  2.183   2.193   2.197   2.202   2.209   2.215   2.217   2.231
  2.235   2.244   2.246   2.252   2.256   2.261   2.265   2.268
  2.276   2.278   2.295   2.299   2.302   2.306   2.311   2.313
  2.322   2.323   2.331   2.338   2.348   2.351   2.359   2.369
  2.371   2.373   2.377   2.382   2.389   2.393   2.394   2.398
  2.402   2.420   2.435   2.439   2.457   2.467   2.475   2.485
  2.494   2.512   2.519   2.524   2.528   2.538   2.545   2.580
  2.587   2.590   2.597   2.606   2.614   2.631   2.637   2.645
  2.654   2.666   2.680   2.689   2.691   2.697   2.703   2.716
  2.719   2.725   2.732   2.735   2.740   2.744   2.752   2.755
  2.759   2.763   2.766   2.772   2.781   2.794   2.799   2.808
  2.820   2.825   2.828   2.835   2.843   2.849   2.854   2.857
  2.868   2.878   2.882   2.893   2.901   2.907   2.916   2.932
  2.948   2.963   2.980   2.985   2.987   3.015   3.029   3.030
  3.037   3.044   3.067   3.077   3.144   3.219   3.277   3.316
  3.360   3.364   3.373   3.380   3.391   3.496   3.550   3.556
  3.574   3.648  13.194  13.244  13.267  13.325  13.346  13.428
 13.619  13.653  13.666  13.683  13.725  13.734  13.754  13.762
 13.778  13.795  13.809  13.816  13.894  13.915  13.933  13.993
 14.064  14.100  14.123  14.172  14.179  14.189  14.195  14.215
 14.221  14.246  14.249  14.260  14.275  14.290  14.323  14.410
 14.545  14.556  14.563  14.589  14.590  14.618  19.487  19.547
 19.614
 --------------------------------------------------------------
 
          Ground-State Mulliken Net Atomic Charges

     Atom                 Charge (a.u.)
  ----------------------------------------
      1 N                    -0.723465
      2 C                     0.305725
      3 C                     0.313459
      4 C                    -0.276840
      5 H                     0.239169
      6 C                    -0.237597
      7 H                     0.215709
      8 C                    -0.216163
      9 H                     0.213131
     10 C                    -0.329401
     11 H                     0.213384
     12 C                     0.170267
     13 C                    -0.293617
     14 H                     0.265873
     15 C                    -0.236894
     16 H                     0.213377
     17 C                    -0.217891
     18 H                     0.211388
     19 C                    -0.326062
     20 H                     0.212896
     21 C                     0.158184
     22 C                     0.261963
     23 C                    -0.316223
     24 H                     0.279004
     25 C                    -0.230171
     26 H                     0.235770
     27 C                    -0.297442
     28 H                     0.218045
     29 C                     0.223617
     30 C                     0.069471
     31 C                    -0.524515
     32 H                     0.249742
     33 H                     0.254132
     34 C                    -0.225492
     35 C                    -0.665133
     36 H                     0.228096
     37 H                     0.227727
     38 H                     0.239650
     39 C                    -0.535774
     40 H                     0.253407
     41 H                     0.257242
     42 C                     0.151062
     43 C                    -0.319384
     44 H                     0.246272
     45 C                     0.072636
     46 C                    -0.005525
     47 N                    -0.158487
     48 C                     0.083900
     49 C                    -0.281242
     50 H                     0.283882
     51 C                     0.141924
     52 C                    -0.004487
     53 N                    -0.158233
     54 C                    -0.405096
     55 C                     0.006443
     56 C                    -0.244115
     57 H                     0.230067
     58 C                    -0.245817
     59 H                     0.230335
     60 C                    -0.208793
     61 H                     0.230852
     62 C                    -0.314016
     63 H                     0.215887
     64 C                     0.152730
     65 C                     0.114479
     66 C                    -0.303455
     67 H                     0.214250
     68 C                    -0.214058
     69 H                     0.229918
     70 C                    -0.227355
     71 H                     0.225832
     72 C                    -0.267934
     73 H                     0.214830
     74 C                     0.159524
     75 C                    -0.600752
     76 H                     0.223467
     77 H                     0.220232
     78 H                     0.232482
  ----------------------------------------
  Sum of atomic charges =     0.000000

 -----------------------------------------------------------------
                    Cartesian Multipole Moments
 -----------------------------------------------------------------
    Charge (ESU x 10^10)
                 0.0000
    Dipole Moment (Debye)
         X       2.5943      Y      -4.1300      Z       5.2160
       Tot       7.1410
    Quadrupole Moments (Debye-Ang)
        XX    -290.9391     XY      38.9793     YY    -287.8947
        XZ     -53.3094     YZ      43.5178     ZZ    -318.6392
    Octopole Moments (Debye-Ang^2)
       XXX    1760.8019    XXY    -845.3264    XYY     714.2166
       YYY   -1592.0925    XXZ     886.8423    XYZ    -393.8955
       YYZ     769.0434    XZZ     932.5198    YZZ    -880.3608
       ZZZ    1945.3279
    Hexadecapole Moments (Debye-Ang^3)
      XXXX  -24668.9369   XXXY    8891.7859   XXYY   -7902.7905
      XYYY    7484.8234   YYYY  -14580.2212   XXXZ  -10124.0753
      XXYZ    4595.2978   XYYZ   -4363.5031   YYYZ    7578.4164
      XXZZ   -9673.7375   XYZZ    4699.2282   YYZZ   -7760.5060
      XZZZ  -10067.6046   YZZZ    9004.6116   ZZZZ  -21772.4410
 -----------------------------------------------------------------
Archival summary:
1\1\ctcp037\OPT\ProcedureUnspecified\BasisUnspecified\34431\mewes\WedJan1618:14:392019WedJan1618:14:392019\0\\#,OPT,ProcedureUnspecified,BasisUnspecified,\\0,1\N\C,1,1.39881\C,2,1.39395,1,121.978\H,3,1.08053,2,120.745,1,-3.04736,0\C,3,1.38352,2,120.328,1,177.039,0\H,5,1.08259,3,119.245,2,-179.941,0\C,5,1.38356,3,120.357,2,-0.701796,0\H,7,1.08147,5,120.706,3,-178.897,0\C,7,1.38624,5,119.115,3,2.4471,0\H,9,1.08108,7,118.627,5,177.737,0\C,9,1.38772,7,121.713,5,-0.577041,0\C,1,1.39974,2,119.15,3,-153.83,0\C,12,1.39276,1,120.643,2,151.595,0\H,13,1.08198,12,120.137,1,1.89961,0\C,13,1.38335,12,119.993,1,-177.442,0\H,15,1.08206,13,119.481,12,-179.885,0\C,15,1.38493,13,120.134,12,1.04869,0\H,17,1.08151,15,120.475,13,179.111,0\C,17,1.38664,15,119.515,13,-1.65194,0\H,19,1.08134,17,118.702,15,-178.789,0\C,19,1.38796,17,121.502,15,-0.195213,0\C,1,1.4147,2,121.596,3,24.6747,0\C,22,1.38353,1,122.274,2,-72.5026,0\H,23,1.08294,22,117.697,1,-1.87438,0\C,22,1.38752,1,119.236,2,107.847,0\H,25,1.08219,22,119.909,1,0.248502,0\C,25,1.38087,22,119.639,1,179.076,0\H,27,1.08299,25,118.9,22,-177.854,0\C,27,1.39391,25,122.592,22,2.45459,0\C,29,1.39778,27,117.987,25,-0.572346,0\C,29,1.50255,27,117.881,25,-176.639,0\H,31,1.09146,29,107.831,27,10.4487,0\H,31,1.09294,29,111.256,27,-105.702,0\C,21,1.51641,19,124.073,17,-172.628,0\C,34,1.52405,21,112.319,19,-19.2069,0\H,35,1.08965,34,110.877,21,59.8861,0\H,35,1.08974,34,110.94,21,177.422,0\H,35,1.09059,34,112.124,21,-61.281,0\C,31,1.53091,29,112.246,27,131.661,0\H,39,1.09113,31,109.531,29,-152.042,0\H,39,1.09777,31,108.36,29,-37.4894,0\C,39,1.49737,31,110.8,29,87.8843,0\C,42,1.36993,39,119.495,31,126.208,0\H,43,1.08419,42,118.664,39,8.11081,0\C,43,1.40536,42,123.73,39,-169.414,0\C,45,1.4029,43,120.282,42,-178.332,0\N,46,1.1598,45,178.974,43,-3.42321,0\C,45,1.4369,43,117.08,42,3.3027,0\C,48,1.38987,45,118.742,43,-5.08755,0\H,49,1.08195,48,115.669,45,-175.601,0\C,49,1.38499,48,123.643,45,3.12982,0\C,48,1.41035,45,122.621,43,175.82,0\N,52,1.15756,48,178.128,45,164.431,0\C,51,1.5271,49,117.817,48,-161.228,0\C,54,1.50987,51,110.37,49,-26.436,0\C,55,1.37901,54,127.533,51,-70.8109,0\H,56,1.08127,55,120.687,54,-0.52154,0\C,56,1.38389,55,118.064,54,177.874,0\H,58,1.08177,56,119.501,55,-178.537,0\C,58,1.41243,56,121.673,55,0.754009,0\H,60,1.08084,58,119.079,56,179.9,0\C,60,1.36995,58,120.787,56,-0.424756,0\H,62,1.0812,60,120.915,58,-179.987,0\C,62,1.40553,60,118.127,58,0.0604242,0\C,64,1.4157,62,131.013,60,-179.088,0\C,65,1.40297,64,130.423,62,2.10567,0\H,66,1.08154,65,120.927,64,0.0202468,0\C,66,1.37024,65,118.063,64,179.961,0\H,68,1.08058,66,120.358,65,-179.497,0\C,68,1.41302,66,120.439,65,0.384983,0\H,70,1.08173,68,118.619,66,-179.3,0\C,70,1.38524,68,122.125,66,0.00282788,0\H,72,1.0799,70,120.634,68,-179.168,0\C,72,1.37903,70,118.158,68,-1.31942,0\C,34,1.54402,21,108.348,19,99.8617,0\H,75,1.0897,34,112.147,21,59.9255,0\H,75,1.09126,34,110.565,21,-60.4197,0\H,75,1.09136,34,110.31,21,179.594,0\\\@

 Total job time:  27945.57s(wall), 199882.20s(cpu) 
 Wed Jan 16 18:14:39 2019

        *************************************************************
        *                                                           *
        *  Thank you very much for using Q-Chem.  Have a nice day.  *
        *                                                           *
        *************************************************************


0 sent ACK to 0 
now end server 0 ... 
