mFile = /cm/shared/apps/q-chem/intel/QCHEM_5.0.1_Trunk/bin/mpi/machines
Process 0 of 1 is on ctcp003 - thread support 0
initial socket setup ...start
initial socket setup ...done 
now start server 0 ... 
ctcp003.cm.cluster 10.141.0
Q-Chem Developer Version! Running on 10.141.0.*
                  Welcome to Q-Chem
     A Quantum Leap Into The Future Of Chemistry


 Q-Chem 5.0, Q-Chem, Inc., Pleasanton, CA (2017)

 Yihan Shao,  Zhengting Gan,  E. Epifanovsky,  A. T. B. Gilbert,  M. Wormit,  
 J. Kussmann,  A. W. Lange,  A. Behn,  Jia Deng,  Xintian Feng,  D. Ghosh,  
 M. Goldey,  P. R. Horn,  L. D. Jacobson,  I. Kaliman,  T. Kus,  A. Landau,  
 Jie Liu,  E. I. Proynov,  R. M. Richard,  R. P. Steele,  E. J. Sundstrom,  
 H. L. Woodcock III,  P. M. Zimmerman,  D. Zuev,  B. Albrecht,  E. Alguire,  
 S. A. Baeppler,  Z. Benda,  Y. A. Bernard,  E. J. Berquist,  K. B. Bravaya,  
 D. Casanova,  Chun-Min Chang,  Yunqing Chen,  A. Chien,  K. D. Closser,  
 M. P. Coons,  S. Dasgupta,  M. Diedenhofen,  Hainam Do,  R. G. Edgar,  
 Po-Tung Fang,  S. Fatehi,  Qingguo Feng,  Qinghui Ge,  A. Ghysels,  
 J. Gomes,  J. Gonthier,  A. Gunina,  M. W. D. Hanson-Heine,  
 P. H. P. Harbach,  A. W. Hauser,  J. E. Herr,  E. G. Hohenstein,  
 Z. C. Holden,  Kerwin Hui,  T.-C. Jagau,  Hyunjun Ji,  B. Kaduk,  
 K. Khistyaev,  Jaehoon Kim,  P. Klunzinger,  K. Koh,  D. Kosenkov,  
 T. Kowalczyk,  C. M. Krauter,  A. Kunitsa,  Ka Un Lao,  A. Laurent,  
 K. V. Lawler,  Joonho Lee,  D. Lefrancois,  S. Lehtola,  D. S. Levine,  
 Yi-Pei Li,  You-Sheng Lin,  Fenglai Liu,  E. Livshits,  A. Luenser,  
 P. Manohar,  E. Mansoor,  S. F. Manzer,  Shan-Ping Mao,  Yuezhi Mao,  
 N. Mardirossian,  A. V. Marenich,  L. A. Martinez-Martinez,  S. A. Maurer,  
 N. J. Mayhall,  S. C. McKenzie,  J.-M. Mewes,  A. F. Morrison,  K. Nanda,  
 T. S. Nguyen-Beck,  R. Olivares-Amaya,  J. A. Parkhill,  T. M. Perrine,  
 F. Plasser,  S. Prager,  A. Prociuk,  D. R. Rehn,  F. Rob,  M. Schneider,  
 N. Sergueev,  S. M. Sharada,  S. Sharma,  D. W. Small,  T. Stauch,  
 T. Stein,  Yu-Chuan Su,  A. J. W. Thom,  T. Tsuchimochi,  L. Vogt,  
 O. Vydrov,  M. A. Watson,  J. Wenzel,  M. de Wergifosse,  T. A. Wesolowski,  
 A. White,  J. Witte,  A. Yamada,  Jun Yang,  K. Yao,  S. Yeganeh,  
 S. R. Yost,  Zhi-Qiang You,  A. Zech,  Igor Ying Zhang,  Xing Zhang,  
 Yan Zhao,  Ying Zhu,  B. R. Brooks,  G. K. L. Chan,  C. J. Cramer,  
 M. S. Gordon,  W. J. Hehre,  A. Klamt,  M. W. Schmidt,  C. D. Sherrill,  
 D. G. Truhlar,  A. Aspuru-Guzik,  R. Baer,  A. T. Bell,  N. A. Besley,  
 Jeng-Da Chai,  A. Dreuw,  B. D. Dunietz,  T. R. Furlani,  Chao-Ping Hsu,  
 Yousung Jung,  Jing Kong,  D. S. Lambrecht,  WanZhen Liang,  C. Ochsenfeld,  
 V. A. Rassolov,  L. V. Slipchenko,  J. E. Subotnik,  T. Van Voorhis,  
 J. M. Herbert,  A. I. Krylov,  P. M. W. Gill,  M. Head-Gordon

 Contributors to earlier versions of Q-Chem not listed above: 
 R. D. Adamson,  B. Austin,  J. Baker,  G. J. O. Beran,  K. Brandhorst,  
 S. T. Brown,  E. F. C. Byrd,  A. K. Chakraborty,  C.-L. Cheng,  
 Siu Hung Chien,  D. M. Chipman,  D. L. Crittenden,  H. Dachsel,  
 R. A. DiStasio Jr.,  R. J. Doerksen,  A. D. Dutoi,  L. Fusti-Molnar,  
 W. A. Goddard III,  A. Golubeva-Zadorozhnaya,  S. R. Gwaltney,  G. Hawkins,  
 A. Heyden,  S. Hirata,  G. Kedziora,  F. J. Keil,  C. Kelley,  Jihan Kim,  
 R. A. King,  R. Z. Khaliullin,  P. P. Korambath,  W. Kurlancheek,  
 A. M. Lee,  M. S. Lee,  S. V. Levchenko,  Ching Yeh Lin,  D. Liotard,  
 R. C. Lochan,  I. Lotan,  P. E. Maslen,  N. Nair,  D. P. O'Neill,  
 D. Neuhauser,  E. Neuscamman,  C. M. Oana,  R. Olson,  B. Peters,  
 R. Peverati,  P. A. Pieniazek,  Y. M. Rhee,  J. Ritchie,  M. A. Rohrdanz,  
 E. Rosta,  N. J. Russ,  H. F. Schaefer III,  N. E. Schultz,  N. Shenvi,  
 A. C. Simmonett,  A. Sodt,  D. Stuck,  K. S. Thanthiriwatte,  V. Vanovschi,  
 Tao Wang,  A. Warshel,  C. F. Williams,  Q. Wu,  X. Xu,  W. Zhang

 Please cite Q-Chem as follows:
 Y. Shao et al., Mol. Phys. 113, 184-215 (2015)
 DOI: 10.1080/00268976.2014.952696

 Q-Chem 5.0.1 for Intel X86 EM64T Linux

 Parts of Q-Chem use Armadillo 5.200.1 (Boston Tea Smuggler).
 http://arma.sourceforge.net/

 Q-Chem begins on Mon Apr 30 16:58:56 2018  

Host: ctcp003
0

     Scratch files written to /scratch/mewes/95939/qchem86915//
 Parallel job on  1  processors
The previous job contains 0 fragments, simply inherited here

Checking the input file for inconsistencies... 	...done.

--------------------------------------------------------------
User input:
--------------------------------------------------------------
$rem
threads 8
jobtype	sp
method PBEh-3c
basis def2-mSVP
mem_static	1024
mem_total	14000
sym_ignore	true
cis_n_roots             6
cis_singlets            true
cis_triplets		true
rpa                     false
calc_soc 		true
cis_moments             true
cis_relaxed_density	true
$end


$molecule
read tctopt.mol
$end

--------------------------------------------------------------
 Adding empirical dispersion correction 
 ----------------------------------------------------------------
 Doing -D3(BJ) with
 s6 =   1.00000
 s8 =   0.00000
 a1 =   0.48600
 a2 =   4.50000
 -D3 energy including 3body term =     -0.0786498828 hartrees
 ----------------------------------------------------------------
 Adding gCP correction 
 ----------------------------------------------------------------
 gCP energy =      0.1092771415 hartrees
 ----------------------------------------------------------------
             Standard Nuclear Orientation (Angstroms)
    I     Atom           X                Y                Z
 ----------------------------------------------------------------
    1      N       0.0000000000     0.0000000000     0.0000000000
    2      C       0.0000000000     0.0000000000     1.3733930000
    3      C       1.1526857293     0.0000000000    -0.7467285983
    4      C       2.4086346559     0.1032283341    -0.1145588389
    5      C       3.5326257807     0.1568995873    -0.9216462410
    6      H       4.5095357326     0.2552792719    -0.4683438917
    7      C       3.4469083712     0.0842404212    -2.3019147470
    8      H       4.3468230373     0.1295428215    -2.8987031793
    9      C       2.2045535386    -0.0647705688    -2.9138592152
   10      H       2.1304442075    -0.1502486442    -3.9881578714
   11      C       1.0669012978    -0.1108138810    -2.1503563500
   12      H       0.1066262062    -0.2410787473    -2.6240781733
   13      C       1.2208365743     0.0318138680     2.0816189520
   14      C       1.1688002795    -0.0084148718     3.4646167955
   15      H       2.0879539555     0.0154522364     4.0336632540
   16      C      -0.0323853455    -0.0769621703     4.1503706474
   17      H      -0.0331313355    -0.1186104483     5.2304977368
   18      C      -1.2333984221    -0.0842883190     3.4455826435
   19      H      -2.1794469623    -0.1392414629     3.9631558683
   20      C      -1.2256540056    -0.0325007149     2.0767048028
   21      H      -2.1681015585    -0.0381297679     1.5537428435
   22      C      -1.2679776696    -0.0103353179    -0.6786537691
   23      C      -2.0269508700    -1.1550934237    -0.6326365167
   24      H      -1.6333154828    -2.0226523513    -0.1176214340
   25      C      -1.7319943789     1.1371927838    -1.2975169232
   26      H      -1.1490869240     2.0490619056    -1.3063619940
   27      C      -2.9600658722     1.0627202013    -1.9209545365
   28      H      -3.3284854645     1.9297629768    -2.4542999257
   29      C      -3.3122724096    -1.2027097224    -1.1717965946
   30      C      -3.7560801272    -0.0871803606    -1.8885671161
   31      C      -5.0119912276    -0.0990219077    -2.7067530162
   32      H      -4.9927676168     0.7640592761    -3.3754003291
   33      H      -5.8948746458     0.0191702593    -2.0736163431
   34      C       2.5532668504     0.1528013322     1.3874029632
   35      C      -5.1383173719    -1.3996940588    -3.5068742860
   36      H      -5.6834922506    -1.2065613332    -4.4318568427
   37      H      -4.1360562822    -1.7271230626    -3.8129538416
   38      C      -5.8723037510    -2.4335461607    -2.7130006494
   39      C      -7.0086058441    -2.9904871973    -3.2330877075
   40      H      -7.2854101340    -2.7499619802    -4.2532677368
   41      C      -7.8708635105    -3.8320862953    -2.5026974972
   42      C      -9.0051938336    -4.3771078922    -3.1131182224
   43      N      -9.9432884860    -4.8145463033    -3.6414989016
   44      C      -5.5137689735    -2.6983266934    -1.3444140336
   45      C      -6.3701256439    -3.4957120139    -0.6080287093
   46      H      -6.1337586886    -3.7310413391     0.4215483012
   47      C      -7.5388956443    -4.0554556111    -1.1167317916
   48      C      -8.3485407031    -4.8231381605    -0.2581399184
   49      N      -8.9947174647    -5.4537369674     0.4685667622
   50      C      -4.1316242943    -2.4369257539    -0.7513293964
   51      C      -3.2942815473    -3.7021850375    -0.8934615967
   52      C      -2.9192953790    -4.3498667009    -2.0544371297
   53      H      -3.2052438676    -3.9574802186    -3.0219880751
   54      C      -2.2083935781    -5.5388173603    -1.9570268535
   55      H      -1.9214314607    -6.0646456760    -2.8582683575
   56      C      -1.8798442391    -6.0760862449    -0.7160221127
   57      H      -1.3395756584    -7.0119181070    -0.6628474821
   58      C      -2.2604957901    -5.4303039119     0.4512759869
   59      H      -2.0226936170    -5.8587891315     1.4172846737
   60      C      -2.9663116790    -4.2417683015     0.3526259850
   61      C      -3.5119724063    -3.3713824640     1.3881770584
   62      C      -3.4631801446    -3.4630495849     2.7720002407
   63      H      -2.9480399248    -4.2833159576     3.2567313296
   64      C      -4.1144091164    -2.5016708188     3.5304115312
   65      H      -4.1087628167    -2.5752577015     4.6105159938
   66      C      -4.8019613527    -1.4612526128     2.9133362321
   67      H      -5.3334883699    -0.7365147024     3.5168838628
   68      C      -4.8464875409    -1.3683696104     1.5265633386
   69      H      -5.4144955709    -0.5800864804     1.0480081762
   70      C      -4.1993581236    -2.3272317127     0.7707579475
   71      C       3.4654684401    -1.0052647878     1.8393925379
   72      H       4.4491306438    -0.9339231453     1.3779011101
   73      H       3.6171613190    -0.9886435844     2.9177213400
   74      H       3.0361494325    -1.9706857256     1.5747435302
   75      C       3.1832743127     1.5038654048     1.7878049197
   76      H       4.1637106629     1.6282936347     1.3296090853
   77      H       3.3147214233     1.5647393905     2.8675108053
   78      H       2.5559788943     2.3392524436     1.4787640029
 ----------------------------------------------------------------
 Nuclear Repulsion Energy =  5563.6582187975 hartrees
 There are      158 alpha and      158 beta electrons
 Requested basis set is def2-mSVP
 There are 391 shells and 767 basis functions

 Total QAlloc Memory Limit  14000 MB
 Mega-Array Size      1001 MB
 MEM_STATIC part      1024 MB
 A cutoff of  1.0D-11 yielded  35241 shell pairs
 There are    141589 function pairs (    156328 Cartesian)
 
 -------------------------------------------------------
 OpenMP Integral Computing Module                       
 Release: version 1.0, May 2013, Q-Chem Inc. Pittsburgh 
 -------------------------------------------------------
 Integral Job Info:
 Integral job number is                      11
 Integral operator is                         1
 short-range coefficients                     0
 long-range coefficients              100000000
 Omega coefficients                           0
 if combine SR and LR in K                    0
 Integral screening is                        0
 Integral computing path is                   2
 max size of driver memory is            800000
 size of driver memory is                593474
 size of scratch memory is              1809772
 max col of scratch BK array               1296
 max len of scratch array in speh3          155
 max len of scratch index in speh4           18
 max int batch size is                      520
 min int batch size is                       52
 fixed nKL is                                52
 max L of basis functions is                  2
 order of int derivative is                   0
 number of shells is                        391
 number of basis is                         814
 number of cartesian basis is               814
 number of contracted shell pairs         35241
 number of primitive shell pairs          73690
 maxK2 (contraction) of shell pair           25
 max number of K2 of shell pair               1
 max number of CS2 of shell pair           8377
 max number of PS2 of shell pair          13085
 mem total for path MDJ                  387496
 -------------------------------------------------------
 Smallest overlap matrix eigenvalue = 2.80E-04

 Scale SEOQF with 1.000000e-02/1.000000e-02/1.000000e-01

 Standard Electronic Orientation quadrupole field applied
 Nucleus-field energy     =    -0.0000001213 hartrees
 Guess from superposition of atomic densities
 Warning:  Energy on first SCF cycle will be non-variational
 A restricted hybrid HF-DFT SCF calculation will be
 performed using Pulay DIIS extrapolation
 Exchange:     0.4200 Hartree-Fock + 0.5800 PBEh-3c
 Correlation:  1.0000 PBEh-3c
 Using SG-1 standard quadrature grid
 Dispersion:   Grimme D3
 SCF converges when DIIS error is below 1.0E-08
 using 8 threads for integral computing
 -------------------------------------------------------
 OpenMP Integral computing Module                
 Release: version 1.0, May 2013, Q-Chem Inc. Pittsburgh 
 -------------------------------------------------------
 ---------------------------------------
  Cycle       Energy         DIIS Error
 ---------------------------------------
    1   -1871.4302343842      3.05E-02
    2   -1855.1027041751      2.27E-03
    3   -1855.0009744573      2.74E-03
    4   -1855.4619781417      9.04E-04
    5   -1855.5156678934      2.25E-04
    6   -1855.5184204792      9.98E-05
    7   -1855.5190915746      2.45E-05
    8   -1855.5191349979      8.98E-06
    9   -1855.5191410244      2.38E-06
   10   -1855.5191413747      1.15E-06
   11   -1855.5191414766      3.91E-07
   12   -1855.5191414931      1.50E-07
   13   -1855.5191414928      6.14E-08
   14   -1855.5191414922      2.05E-08
   15   -1855.5191414826      7.68E-09 Convergence criterion met
 ---------------------------------------
 SCF time:  CPU 3276.41 s  wall 731.42 s
 SCF   energy in the final basis set = -1855.51914148
 Total energy in the final basis set = -1855.51914148
 
 Direct TDDFT/TDA calculation will be performed
 Exchange:     0.4200 Hartree-Fock + 0.5800 PBEh-3c
 Correlation:  1.0000 PBEh-3c
 Using SG-1 standard quadrature grid
 Dispersion:   Grimme D3
 Triplet excitation energies requested
 Singlet excitation energies requested
 CIS energy converged when residual is below 10e- 6
 ---------------------------------------------------
 Iter    Rts Conv    Rts Left    Ttl Dev     Max Dev
 ---------------------------------------------------
   1         0           6      0.000162    0.000047
   2         0           6      0.000261    0.000076
   3         0           6      0.000240    0.000064
   4         0           6      0.000225    0.000052
   5         0           6      0.000182    0.000069
   6         0           6      0.000105    0.000046
   7         1           5      0.000053    0.000022
   8         1           5      0.000031    0.000014
   9         2           4      0.000018    0.000006
  10         2           4      0.000008    0.000003
  11         5           1      0.000003    0.000001
  12         6           0      0.000002    0.000001    Roots Converged
 ---------------------------------------------------
 Triplets done: starting singlet calculation
 ---------------------------------------------------
 Iter    Rts Conv    Rts Left    Ttl Dev     Max Dev
 ---------------------------------------------------
  13         0           6      0.000229    0.000083
  14         0           6      0.000365    0.000176
  15         0           6      0.000158    0.000051
  16         0           6      0.000082    0.000026
  17         1           5      0.000043    0.000016
  18         1           5      0.000020    0.000009
  19         2           4      0.000013    0.000006
  20         4           2      0.000006    0.000003
  21         5           1      0.000003    0.000001
  22         6           0      0.000002    0.000001    Roots Converged
 ---------------------------------------------------
 
 ---------------------------------------------------
         TDDFT/TDA Excitation Energies              
 ---------------------------------------------------

 Excited state   1: excitation energy (eV) =    3.0101
 Total energy for state  1:                 -1855.40852215 au
    Multiplicity: Triplet
    Trans. Mom.:  0.0000 X   0.0000 Y   0.0000 Z
    Strength   :     0.0000000000
    D(148) --> V(  1) amplitude = -0.2199
    D(150) --> V(  1) amplitude = -0.3935
    D(151) --> V(  1) amplitude =  0.5414
    D(152) --> V(  1) amplitude = -0.5200
    D(157) --> V(  1) amplitude =  0.2196

 Excited state   2: excitation energy (eV) =    3.1236
 Total energy for state  2:                 -1855.40435239 au
    Multiplicity: Triplet
    Trans. Mom.:  0.0000 X   0.0000 Y   0.0000 Z
    Strength   :     0.0000000000
    D(158) --> V(  1) amplitude =  0.9925

 Excited state   3: excitation energy (eV) =    3.1241
 Total energy for state  3:                 -1855.40433319 au
    Multiplicity: Singlet
    Trans. Mom.: -0.0956 X  -0.0575 Y  -0.0219 Z
    Strength   :     0.0009884198
    D(158) --> V(  1) amplitude =  0.9975

 Excited state   4: excitation energy (eV) =    3.3581
 Total energy for state  4:                 -1855.39573387 au
    Multiplicity: Triplet
    Trans. Mom.:  0.0000 X   0.0000 Y   0.0000 Z
    Strength   :     0.0000000000
    D(157) --> V(  2) amplitude = -0.6231
    D(157) --> V(  3) amplitude =  0.5496

 Excited state   5: excitation energy (eV) =    3.4053
 Total energy for state  5:                 -1855.39399848 au
    Multiplicity: Triplet
    Trans. Mom.:  0.0000 X   0.0000 Y   0.0000 Z
    Strength   :     0.0000000000
    D(158) --> V(  7) amplitude =  0.5503
    D(158) --> V(  8) amplitude = -0.6451

 Excited state   6: excitation energy (eV) =    3.6852
 Total energy for state  6:                 -1855.38371354 au
    Multiplicity: Triplet
    Trans. Mom.:  0.0000 X   0.0000 Y   0.0000 Z
    Strength   :     0.0000000000
    D(158) --> V(  4) amplitude =  0.4021
    D(158) --> V(  6) amplitude = -0.4833
    D(158) --> V(  7) amplitude =  0.3409
    D(158) --> V(  8) amplitude =  0.3467

 Excited state   7: excitation energy (eV) =    3.7726
 Total energy for state  7:                 -1855.38050250 au
    Multiplicity: Triplet
    Trans. Mom.:  0.0000 X   0.0000 Y   0.0000 Z
    Strength   :     0.0000000000
    D(158) --> V(  2) amplitude =  0.5996
    D(158) --> V(  4) amplitude = -0.3475
    D(158) --> V(  5) amplitude = -0.4792
    D(158) --> V(  8) amplitude =  0.2219
    D(158) --> V( 10) amplitude = -0.3126

 Excited state   8: excitation energy (eV) =    3.8626
 Total energy for state  8:                 -1855.37719232 au
    Multiplicity: Singlet
    Trans. Mom.:  0.0219 X   0.0878 Y  -0.0653 Z
    Strength   :     0.0011778328
    D(158) --> V(  2) amplitude =  0.8952
    D(158) --> V(  3) amplitude = -0.2594
    D(158) --> V(  5) amplitude = -0.2810

 Excited state   9: excitation energy (eV) =    4.0165
 Total energy for state  9:                 -1855.37153925 au
    Multiplicity: Singlet
    Trans. Mom.:  0.2989 X   0.0292 Y   0.0818 Z
    Strength   :     0.0095360996
    D(158) --> V(  2) amplitude =  0.2313
    D(158) --> V(  4) amplitude =  0.8123
    D(158) --> V(  6) amplitude = -0.4043

 Excited state  10: excitation energy (eV) =    4.0375
 Total energy for state 10:                 -1855.37076644 au
    Multiplicity: Singlet
    Trans. Mom.:  0.5577 X   0.0466 Y   0.3450 Z
    Strength   :     0.0427558595
    D(157) --> V(  1) amplitude =  0.9795

 Excited state  11: excitation energy (eV) =    4.1431
 Total energy for state 11:                 -1855.36688533 au
    Multiplicity: Singlet
    Trans. Mom.:  0.2441 X   0.1157 Y   0.0164 Z
    Strength   :     0.0074329010
    D(158) --> V(  3) amplitude =  0.5488
    D(158) --> V(  5) amplitude = -0.6331
    D(158) --> V(  6) amplitude = -0.4635

 Excited state  12: excitation energy (eV) =    4.3823
 Total energy for state 12:                 -1855.35809401 au
    Multiplicity: Singlet
    Trans. Mom.: -0.1067 X  -0.0205 Y   0.1524 Z
    Strength   :     0.0037616122
    D(158) --> V(  2) amplitude =  0.3368
    D(158) --> V(  3) amplitude =  0.7569
    D(158) --> V(  5) amplitude =  0.2216
    D(158) --> V(  6) amplitude =  0.4633
 
 ---------------------------------------------------
 Calculating Relaxed Density
 ---------------------------------------------------
 Iter    Rts Conv    Rts Left    Ttl Dev     Max Dev
 ---------------------------------------------------
   1         0           6      0.000715    0.000320
   2         0           6      0.000239    0.000095
   3         0           6      0.000066    0.000025
   4         0           6      0.000022    0.000008
   5         3           3      0.000006    0.000003
   6         6           0      0.000000    0.000000    Roots Converged
 ---------------------------------------------------
 Triplets done- using as guess for singlets
 ---------------------------------------------------
 Iter    Rts Conv    Rts Left    Ttl Dev     Max Dev
 ---------------------------------------------------
   1         0           6      0.001515    0.000333
   2         0           6      0.000481    0.000105
   3         0           6      0.000127    0.000026
   4         0           6      0.000047    0.000009
   5         0           6      0.000014    0.000003
   6         6           0      0.000000    0.000000    Roots Converged
 ---------------------------------------------------
  SETman timing summary (seconds)
  CPU time             25902.92s
  System time              0.04s
  Wall time             3828.64s



*********SPIN-ORBIT COUPLING JOB BEGINS HERE*********


=======================================================================================
    SPIN-ORBIT COUPLING BETWEEN THE SINGLET GROUND STATE AND EXCITED TRIPLET STATE
=======================================================================================

SOC between the singlet ground state and excited triplet states (ms=0):
T1(ms=0)      0.000000  +  0.769473i    cm-1
T2(ms=0)      0.000000  +  0.418256i    cm-1
T3(ms=0)      0.000000  +  0.695867i    cm-1
T4(ms=0)      0.000000  +  -0.297351i    cm-1
T5(ms=0)      0.000000  +  -0.086071i    cm-1
T6(ms=0)      0.000000  +  -0.320667i    cm-1
SOC between the singlet ground state and excited triplet states (ms=1):
T1(ms=1)      -0.178608  + (0.337147i)    cm-1
T2(ms=1)      -0.581307  + (0.088867i)    cm-1
T3(ms=1)      0.417975  + (0.540424i)    cm-1
T4(ms=1)      0.551889  + (0.317949i)    cm-1
T5(ms=1)      -0.636501  + (-0.174779i)    cm-1
T6(ms=1)      2.855409  + (-0.028087i)    cm-1
SOC between the singlet ground state and excited triplet states (ms=-1):
T1(ms=-1)     -0.178608  - (0.337147i)    cm-1
T2(ms=-1)     -0.581307  - (0.088867i)    cm-1
T3(ms=-1)     0.417975  - (0.540424i)    cm-1
T4(ms=-1)     0.551889  - (0.317949i)    cm-1
T5(ms=-1)     -0.636501  - (-0.174779i)    cm-1
T6(ms=-1)     2.855409  - (-0.028087i)    cm-1
Total SOC between the singlet ground state and excited triplet states:
T1      0.939802    cm-1
T2      0.930896    cm-1
T3      1.190694    cm-1
T4      0.948558    cm-1
T5      0.937428    cm-1
T6      4.051065    cm-1




=======================================================================================
                     SPIN-ORBIT COUPLING BETWEEN EXCITED TRIPLET STATES
=======================================================================================

SOC between the T1 (ms=0) state and excited triplet states (ms=1):
T2(ms=1)      -0.040156  + (0.063448i)    cm-1
T3(ms=1)      -0.092809  + (-0.110534i)    cm-1
T4(ms=1)      0.003579  + (-0.000146i)    cm-1
T5(ms=1)      0.001871  + (0.052255i)    cm-1
T6(ms=1)      0.018980  + (-0.023272i)    cm-1
SOC between the T1 (ms=0) state and excited triplet states (ms=-1):
T2(ms=-1)     0.040156  + (0.063448i)    cm-1
T3(ms=-1)     0.092809  + (-0.110534i)    cm-1
T4(ms=-1)     -0.003579  + (-0.000146i)    cm-1
T5(ms=-1)     -0.001871  + (0.052255i)    cm-1
T6(ms=-1)     -0.018980  + (-0.023272i)    cm-1
SOC between the T1 (ms=1) state and excited triplet states (ms=0):
T2(ms=0)      0.040156  + (0.063448i)    cm-1
T3(ms=0)      0.092809  + (-0.110534i)    cm-1
T4(ms=0)      -0.003579  + (-0.000146i)    cm-1
T5(ms=0)      -0.001871  + (0.052255i)    cm-1
T6(ms=0)      -0.018980  + (-0.023272i)    cm-1
SOC between the T1 (ms=1) state and excited triplet states (ms=1):
T2(ms=1)      0.000000  + (0.040144i)    cm-1
T3(ms=1)      0.000000  + (0.432430i)    cm-1
T4(ms=1)      0.000000  + (-0.012049i)    cm-1
T5(ms=1)      0.000000  + (0.005476i)    cm-1
T6(ms=1)      0.000000  + (-0.052248i)    cm-1
SOC between the T1 (ms=-1) state and excited triplet states (ms=0):
T2(ms=0)      -0.040156  + (0.063448i)    cm-1
T3(ms=0)      -0.092809  + (-0.110534i)    cm-1
T4(ms=0)      0.003579  + (-0.000146i)    cm-1
T5(ms=0)      0.001871  + (0.052255i)    cm-1
T6(ms=0)      0.018980  + (-0.023272i)    cm-1
SOC between the T1 (ms=-1) state and excited triplet states (ms=-1):
T2(ms=-1)     0.000000  + (-0.040144i)    cm-1
T3(ms=-1)     0.000000  + (-0.432430i)    cm-1
T4(ms=-1)     0.000000  + (0.012049i)    cm-1
T5(ms=-1)     0.000000  + (-0.005476i)    cm-1
T6(ms=-1)     0.000000  + (0.052248i)    cm-1
Total SOC between the T1 state and excited triplet states:
T2      0.160549    cm-1
T3      0.676252    cm-1
T4      0.018484    cm-1
T5      0.104862    cm-1
T6      0.095221    cm-1



SOC between the T2 (ms=0) state and excited triplet states (ms=1):
T3(ms=1)      0.018414  + (0.049334i)    cm-1
T4(ms=1)      -0.038817  + (0.053992i)    cm-1
T5(ms=1)      -0.381564  + (-0.256211i)    cm-1
T6(ms=1)      -0.073248  + (0.412047i)    cm-1
SOC between the T2 (ms=0) state and excited triplet states (ms=-1):
T3(ms=-1)     -0.018414  + (0.049334i)    cm-1
T4(ms=-1)     0.038817  + (0.053992i)    cm-1
T5(ms=-1)     0.381564  + (-0.256211i)    cm-1
T6(ms=-1)     0.073248  + (0.412047i)    cm-1
SOC between the T2 (ms=1) state and excited triplet states (ms=0):
T3(ms=0)      -0.018414  + (0.049334i)    cm-1
T4(ms=0)      0.038817  + (0.053992i)    cm-1
T5(ms=0)      0.381564  + (-0.256211i)    cm-1
T6(ms=0)      0.073248  + (0.412047i)    cm-1
SOC between the T2 (ms=1) state and excited triplet states (ms=1):
T3(ms=1)      0.000000  + (-0.027749i)    cm-1
T4(ms=1)      0.000000  + (0.103730i)    cm-1
T5(ms=1)      0.000000  + (0.139684i)    cm-1
T6(ms=1)      0.000000  + (0.507354i)    cm-1
SOC between the T2 (ms=-1) state and excited triplet states (ms=0):
T3(ms=0)      0.018414  + (0.049334i)    cm-1
T4(ms=0)      -0.038817  + (0.053992i)    cm-1
T5(ms=0)      -0.381564  + (-0.256211i)    cm-1
T6(ms=0)      -0.073248  + (0.412047i)    cm-1
SOC between the T2 (ms=-1) state and excited triplet states (ms=-1):
T3(ms=-1)     0.000000  + (0.027749i)    cm-1
T4(ms=-1)     0.000000  + (-0.103730i)    cm-1
T5(ms=-1)     0.000000  + (-0.139684i)    cm-1
T6(ms=-1)     0.000000  + (-0.507354i)    cm-1
Total SOC between the T2 state and excited triplet states:
T3      0.112390    cm-1
T4      0.198008    cm-1
T5      0.940194    cm-1
T6      1.102456    cm-1



SOC between the T3 (ms=0) state and excited triplet states (ms=1):
T4(ms=1)      0.003490  + (0.004891i)    cm-1
T5(ms=1)      -0.204756  + (0.142390i)    cm-1
T6(ms=1)      0.059398  + (0.052131i)    cm-1
SOC between the T3 (ms=0) state and excited triplet states (ms=-1):
T4(ms=-1)     -0.003490  + (0.004891i)    cm-1
T5(ms=-1)     0.204756  + (0.142390i)    cm-1
T6(ms=-1)     -0.059398  + (0.052131i)    cm-1
SOC between the T3 (ms=1) state and excited triplet states (ms=0):
T4(ms=0)      -0.003490  + (0.004891i)    cm-1
T5(ms=0)      0.204756  + (0.142390i)    cm-1
T6(ms=0)      -0.059398  + (0.052131i)    cm-1
SOC between the T3 (ms=1) state and excited triplet states (ms=1):
T4(ms=1)      0.000000  + (0.014672i)    cm-1
T5(ms=1)      0.000000  + (0.110919i)    cm-1
T6(ms=1)      0.000000  + (-0.087274i)    cm-1
SOC between the T3 (ms=-1) state and excited triplet states (ms=0):
T4(ms=0)      0.003490  + (0.004891i)    cm-1
T5(ms=0)      -0.204756  + (0.142390i)    cm-1
T6(ms=0)      0.059398  + (0.052131i)    cm-1
SOC between the T3 (ms=-1) state and excited triplet states (ms=-1):
T4(ms=-1)     0.000000  + (-0.014672i)    cm-1
T5(ms=-1)     0.000000  + (-0.110919i)    cm-1
T6(ms=-1)     0.000000  + (0.087274i)    cm-1
Total SOC between the T3 state and excited triplet states:
T4      0.023978    cm-1
T5      0.522882    cm-1
T6      0.200541    cm-1



SOC between the T4 (ms=0) state and excited triplet states (ms=1):
T5(ms=1)      -0.427843  + (-0.353022i)    cm-1
T6(ms=1)      -0.118003  + (0.093682i)    cm-1
SOC between the T4 (ms=0) state and excited triplet states (ms=-1):
T5(ms=-1)     0.427843  + (-0.353022i)    cm-1
T6(ms=-1)     0.118003  + (0.093682i)    cm-1
SOC between the T4 (ms=1) state and excited triplet states (ms=0):
T5(ms=0)      0.427843  + (-0.353022i)    cm-1
T6(ms=0)      0.118003  + (0.093682i)    cm-1
SOC between the T4 (ms=1) state and excited triplet states (ms=1):
T5(ms=1)      0.000000  + (0.711500i)    cm-1
T6(ms=1)      0.000000  + (0.256769i)    cm-1
SOC between the T4 (ms=-1) state and excited triplet states (ms=0):
T5(ms=0)      -0.427843  + (-0.353022i)    cm-1
T6(ms=0)      -0.118003  + (0.093682i)    cm-1
SOC between the T4 (ms=-1) state and excited triplet states (ms=-1):
T5(ms=-1)     0.000000  + (-0.711500i)    cm-1
T6(ms=-1)     0.000000  + (-0.256769i)    cm-1
Total SOC between the T4 state and excited triplet states:
T5      1.497719    cm-1
T6      0.471873    cm-1



SOC between the T5 (ms=0) state and excited triplet states (ms=1):
T6(ms=1)      -0.498503  + (0.179839i)    cm-1
SOC between the T5 (ms=0) state and excited triplet states (ms=-1):
T6(ms=-1)     0.498503  + (0.179839i)    cm-1
SOC between the T5 (ms=1) state and excited triplet states (ms=0):
T6(ms=0)      0.498503  + (0.179839i)    cm-1
SOC between the T5 (ms=1) state and excited triplet states (ms=1):
T6(ms=1)      0.000000  + (-0.234064i)    cm-1
SOC between the T5 (ms=-1) state and excited triplet states (ms=0):
T6(ms=0)      -0.498503  + (0.179839i)    cm-1
SOC between the T5 (ms=-1) state and excited triplet states (ms=-1):
T6(ms=-1)     0.000000  + (0.234064i)    cm-1
Total SOC between the T5 state and excited triplet states:
T6      1.110388    cm-1







=======================================================================================
         SPIN-ORBIT COUPLING BETWEEN EXCITED SINGLET STATES AND TRIPLET STATES
=======================================================================================

SOC between the S1 state and excited triplet states (ms=0):
T1(ms=0)      0.000000  +  -0.032279i    cm-1
T2(ms=0)      0.000000  +  0.006214i    cm-1
T3(ms=0)      0.000000  +  -0.041066i    cm-1
T4(ms=0)      0.000000  +  -0.093307i    cm-1
T5(ms=0)      0.000000  +  -0.131853i    cm-1
T6(ms=0)      0.000000  +  -0.529682i    cm-1
SOC between the S1 state and excited triplet states (ms=1):
T1(ms=1)      (-0.033308)  + (0.061413i)    cm-1
T2(ms=1)      (0.006231)  + (0.000161i)    cm-1
T3(ms=1)      (0.020726)  + (-0.040884i)    cm-1
T4(ms=1)      (-0.036652)  + (0.061447i)    cm-1
T5(ms=1)      (-0.358092)  + (-0.249144i)    cm-1
T6(ms=1)      (-0.076823)  + (0.435482i)    cm-1
SOC between the S1 state and excited triplet states (ms=-1):
T1(ms=-1)    -(-0.033308)  + (0.061413i)    cm-1
T2(ms=-1)    -(0.006231)  + (0.000161i)    cm-1
T3(ms=-1)    -(0.020726)  + (-0.040884i)    cm-1
T4(ms=-1)    -(-0.036652)  + (0.061447i)    cm-1
T5(ms=-1)    -(-0.358092)  + (-0.249144i)    cm-1
T6(ms=-1)    -(-0.076823)  + (0.435482i)    cm-1
Total SOC between the S1 state and excited triplet states:
T1      0.103942    cm-1
T2      0.010784    cm-1
T3      0.076737    cm-1
T4      0.137638    cm-1
T5      0.630864    cm-1
T6      0.819547    cm-1



SOC between the S2 state and excited triplet states (ms=0):
T1(ms=0)      0.000000  +  -0.010423i    cm-1
T2(ms=0)      0.000000  +  0.269339i    cm-1
T3(ms=0)      0.000000  +  0.142572i    cm-1
T4(ms=0)      0.000000  +  0.334112i    cm-1
T5(ms=0)      0.000000  +  -0.282460i    cm-1
T6(ms=0)      0.000000  +  -0.068091i    cm-1
SOC between the S2 state and excited triplet states (ms=1):
T1(ms=1)      (0.026395)  + (0.028786i)    cm-1
T2(ms=1)      (-0.101828)  + (-0.124023i)    cm-1
T3(ms=1)      (-0.004031)  + (0.163101i)    cm-1
T4(ms=1)      (-0.045252)  + (-0.142617i)    cm-1
T5(ms=1)      (0.282836)  + (-0.245832i)    cm-1
T6(ms=1)      (0.013803)  + (-0.212956i)    cm-1
SOC between the S2 state and excited triplet states (ms=-1):
T1(ms=-1)    -(0.026395)  + (0.028786i)    cm-1
T2(ms=-1)    -(-0.101828)  + (-0.124023i)    cm-1
T3(ms=-1)    -(-0.004031)  + (0.163101i)    cm-1
T4(ms=-1)    -(-0.045252)  + (-0.142617i)    cm-1
T5(ms=-1)    -(0.282836)  + (-0.245832i)    cm-1
T6(ms=-1)    -(0.013803)  + (-0.212956i)    cm-1
Total SOC between the S2 state and excited triplet states:
T1      0.056207    cm-1
T2      0.352200    cm-1
T3      0.271225    cm-1
T4      0.395482    cm-1
T5      0.600536    cm-1
T6      0.309384    cm-1



SOC between the S3 state and excited triplet states (ms=0):
T1(ms=0)      0.000000  +  0.017844i    cm-1
T2(ms=0)      0.000000  +  0.093846i    cm-1
T3(ms=0)      0.000000  +  0.136142i    cm-1
T4(ms=0)      0.000000  +  1.027440i    cm-1
T5(ms=0)      0.000000  +  0.238367i    cm-1
T6(ms=0)      0.000000  +  0.248173i    cm-1
SOC between the S3 state and excited triplet states (ms=1):
T1(ms=1)      (-0.050216)  + (-0.021909i)    cm-1
T2(ms=1)      (0.516378)  + (0.800809i)    cm-1
T3(ms=1)      (0.036124)  + (0.028104i)    cm-1
T4(ms=1)      (-0.033794)  + (0.528113i)    cm-1
T5(ms=1)      (-0.015470)  + (0.194713i)    cm-1
T6(ms=1)      (-0.661563)  + (0.440446i)    cm-1
SOC between the S3 state and excited triplet states (ms=-1):
T1(ms=-1)    -(-0.050216)  + (-0.021909i)    cm-1
T2(ms=-1)    -(0.516378)  + (0.800809i)    cm-1
T3(ms=-1)    -(0.036124)  + (0.028104i)    cm-1
T4(ms=-1)    -(-0.033794)  + (0.528113i)    cm-1
T5(ms=-1)    -(-0.015470)  + (0.194713i)    cm-1
T6(ms=-1)    -(-0.661563)  + (0.440446i)    cm-1
Total SOC between the S3 state and excited triplet states:
T1      0.079509    cm-1
T2      1.350811    cm-1
T3      0.150745    cm-1
T4      1.271111    cm-1
T5      0.364861    cm-1
T6      1.151046    cm-1



SOC between the S4 state and excited triplet states (ms=0):
T1(ms=0)      0.000000  +  -0.116883i    cm-1
T2(ms=0)      0.000000  +  0.242600i    cm-1
T3(ms=0)      0.000000  +  -0.933385i    cm-1
T4(ms=0)      0.000000  +  0.128758i    cm-1
T5(ms=0)      0.000000  +  -0.225766i    cm-1
T6(ms=0)      0.000000  +  0.075094i    cm-1
SOC between the S4 state and excited triplet states (ms=1):
T1(ms=1)      (0.095380)  + (-0.407359i)    cm-1
T2(ms=1)      (0.129161)  + (0.257693i)    cm-1
T3(ms=1)      (-0.408834)  + (0.092954i)    cm-1
T4(ms=1)      (-0.001667)  + (0.063336i)    cm-1
T5(ms=1)      (-0.105795)  + (0.178970i)    cm-1
T6(ms=1)      (-0.072346)  + (0.021592i)    cm-1
SOC between the S4 state and excited triplet states (ms=-1):
T1(ms=-1)    -(0.095380)  + (-0.407359i)    cm-1
T2(ms=-1)    -(0.129161)  + (0.257693i)    cm-1
T3(ms=-1)    -(-0.408834)  + (0.092954i)    cm-1
T4(ms=-1)    -(-0.001667)  + (0.063336i)    cm-1
T5(ms=-1)    -(-0.105795)  + (0.178970i)    cm-1
T6(ms=-1)    -(-0.072346)  + (0.021592i)    cm-1
Total SOC between the S4 state and excited triplet states:
T1      0.603107    cm-1
T2      0.474374    cm-1
T3      1.105793    cm-1
T4      0.156867    cm-1
T5      0.370697    cm-1
T6      0.130535    cm-1



SOC between the S5 state and excited triplet states (ms=0):
T1(ms=0)      0.000000  +  -0.111370i    cm-1
T2(ms=0)      0.000000  +  1.379134i    cm-1
T3(ms=0)      0.000000  +  -0.045224i    cm-1
T4(ms=0)      0.000000  +  0.523439i    cm-1
T5(ms=0)      0.000000  +  -0.733290i    cm-1
T6(ms=0)      0.000000  +  0.301096i    cm-1
SOC between the S5 state and excited triplet states (ms=1):
T1(ms=1)      (-0.070544)  + (0.026329i)    cm-1
T2(ms=1)      (0.913837)  + (-0.383651i)    cm-1
T3(ms=1)      (-0.031755)  + (-0.073176i)    cm-1
T4(ms=1)      (0.027806)  + (0.271961i)    cm-1
T5(ms=1)      (0.417106)  + (-0.006571i)    cm-1
T6(ms=1)      (-0.519605)  + (0.440221i)    cm-1
SOC between the S5 state and excited triplet states (ms=-1):
T1(ms=-1)    -(-0.070544)  + (0.026329i)    cm-1
T2(ms=-1)    -(0.913837)  + (-0.383651i)    cm-1
T3(ms=-1)    -(-0.031755)  + (-0.073176i)    cm-1
T4(ms=-1)    -(0.027806)  + (0.271961i)    cm-1
T5(ms=-1)    -(0.417106)  + (-0.006571i)    cm-1
T6(ms=-1)    -(-0.519605)  + (0.440221i)    cm-1
Total SOC between the S5 state and excited triplet states:
T1      0.154086    cm-1
T2      1.966363    cm-1
T3      0.121538    cm-1
T4      0.650739    cm-1
T5      0.941145    cm-1
T6      1.009073    cm-1



SOC between the S6 state and excited triplet states (ms=0):
T1(ms=0)      0.000000  +  -0.068287i    cm-1
T2(ms=0)      0.000000  +  0.644981i    cm-1
T3(ms=0)      0.000000  +  -0.081595i    cm-1
T4(ms=0)      0.000000  +  -0.574595i    cm-1
T5(ms=0)      0.000000  +  0.599236i    cm-1
T6(ms=0)      0.000000  +  -0.994216i    cm-1
SOC between the S6 state and excited triplet states (ms=1):
T1(ms=1)      (0.077210)  + (-0.030164i)    cm-1
T2(ms=1)      (-0.455155)  + (0.404350i)    cm-1
T3(ms=1)      (-0.027509)  + (-0.047505i)    cm-1
T4(ms=1)      (-0.293906)  + (-0.142777i)    cm-1
T5(ms=1)      (0.538348)  + (0.047984i)    cm-1
T6(ms=1)      (-0.310373)  + (0.259189i)    cm-1
SOC between the S6 state and excited triplet states (ms=-1):
T1(ms=-1)    -(0.077210)  + (-0.030164i)    cm-1
T2(ms=-1)    -(-0.455155)  + (0.404350i)    cm-1
T3(ms=-1)    -(-0.027509)  + (-0.047505i)    cm-1
T4(ms=-1)    -(-0.293906)  + (-0.142777i)    cm-1
T5(ms=-1)    -(0.538348)  + (0.047984i)    cm-1
T6(ms=-1)    -(-0.310373)  + (0.259189i)    cm-1
Total SOC between the S6 state and excited triplet states:
T1      0.135667    cm-1
T2      1.075793    cm-1
T3      0.112626    cm-1
T4      0.737354    cm-1
T5      0.971249    cm-1
T6      1.146947    cm-1






            *********SOC CODE ENDS HERE*********



 
 --------------------------------------------------------------
 
                    Orbital Energies (a.u.)
 --------------------------------------------------------------
 
 Alpha MOs
 -- Occupied --
-14.680 -14.662 -14.659 -10.529 -10.527 -10.513 -10.511 -10.504
-10.504 -10.501 -10.499 -10.496 -10.494 -10.493 -10.492 -10.487
-10.480 -10.478 -10.477 -10.476 -10.474 -10.474 -10.470 -10.468
-10.468 -10.467 -10.467 -10.467 -10.467 -10.466 -10.466 -10.465
-10.464 -10.464 -10.462 -10.450 -10.449 -10.443 -10.443 -10.442
-10.440 -10.440 -10.437 -10.436 -10.434 -10.426 -10.426  -1.097
 -1.041  -1.030  -1.019  -1.001  -0.988  -0.969  -0.960  -0.956
 -0.938  -0.935  -0.908  -0.900  -0.892  -0.885  -0.860  -0.857
 -0.850  -0.845  -0.836  -0.825  -0.816  -0.808  -0.794  -0.776
 -0.769  -0.747  -0.732  -0.726  -0.714  -0.713  -0.707  -0.690
 -0.682  -0.679  -0.672  -0.668  -0.665  -0.646  -0.617  -0.616
 -0.615  -0.612  -0.598  -0.586  -0.583  -0.571  -0.566  -0.561
 -0.540  -0.538  -0.535  -0.532  -0.531  -0.527  -0.523  -0.522
 -0.517  -0.511  -0.509  -0.504  -0.502  -0.499  -0.494  -0.492
 -0.489  -0.488  -0.484  -0.477  -0.474  -0.467  -0.462  -0.453
 -0.452  -0.450  -0.442  -0.441  -0.439  -0.438  -0.435  -0.432
 -0.429  -0.428  -0.427  -0.424  -0.421  -0.417  -0.415  -0.412
 -0.410  -0.403  -0.399  -0.398  -0.397  -0.395  -0.393  -0.374
 -0.372  -0.365  -0.350  -0.338  -0.324  -0.313  -0.306  -0.302
 -0.299  -0.289  -0.287  -0.283  -0.271  -0.217
 -- Virtual --
 -0.078  -0.040  -0.029  -0.019  -0.010  -0.005   0.013   0.013
  0.019   0.033   0.045   0.048   0.058   0.062   0.076   0.109
  0.114   0.120   0.129   0.130   0.131   0.137   0.147   0.152
  0.153   0.155   0.159   0.160   0.165   0.175   0.179   0.187
  0.190   0.191   0.193   0.199   0.201   0.202   0.204   0.211
  0.212   0.216   0.218   0.219   0.223   0.223   0.226   0.231
  0.233   0.237   0.239   0.241   0.245   0.249   0.251   0.252
  0.259   0.261   0.264   0.266   0.270   0.271   0.277   0.281
  0.288   0.291   0.291   0.295   0.297   0.300   0.306   0.306
  0.310   0.318   0.325   0.332   0.337   0.339   0.347   0.350
  0.361   0.367   0.374   0.376   0.380   0.381   0.394   0.398
  0.399   0.409   0.413   0.421   0.425   0.436   0.441   0.451
  0.458   0.464   0.467   0.473   0.476   0.486   0.488   0.490
  0.499   0.502   0.506   0.507   0.508   0.514   0.517   0.520
  0.524   0.526   0.531   0.534   0.537   0.541   0.546   0.548
  0.549   0.555   0.560   0.561   0.563   0.566   0.569   0.573
  0.574   0.577   0.582   0.584   0.585   0.587   0.592   0.594
  0.598   0.600   0.605   0.609   0.610   0.615   0.618   0.620
  0.623   0.627   0.627   0.631   0.633   0.635   0.637   0.640
  0.641   0.644   0.650   0.654   0.655   0.660   0.665   0.665
  0.670   0.676   0.680   0.685   0.688   0.690   0.696   0.696
  0.700   0.704   0.708   0.713   0.715   0.717   0.720   0.725
  0.730   0.735   0.738   0.744   0.750   0.751   0.755   0.760
  0.767   0.770   0.773   0.775   0.781   0.792   0.794   0.800
  0.804   0.807   0.813   0.816   0.818   0.826   0.830   0.833
  0.848   0.854   0.867   0.871   0.878   0.884   0.890   0.897
  0.907   0.909   0.917   0.917   0.923   0.925   0.933   0.938
  0.944   0.945   0.949   0.955   0.957   0.961   0.964   0.967
  0.969   0.971   0.980   0.982   0.987   0.989   0.995   0.997
  1.003   1.006   1.007   1.009   1.010   1.014   1.023   1.032
  1.038   1.043   1.044   1.047   1.048   1.050   1.054   1.056
  1.059   1.062   1.069   1.072   1.075   1.083   1.084   1.087
  1.092   1.098   1.102   1.107   1.110   1.113   1.117   1.119
  1.124   1.129   1.130   1.135   1.141   1.143   1.149   1.156
  1.161   1.166   1.171   1.178   1.181   1.186   1.192   1.198
  1.209   1.214   1.227   1.233   1.239   1.252   1.261   1.264
  1.269   1.276   1.280   1.297   1.299   1.304   1.308   1.315
  1.318   1.323   1.329   1.334   1.335   1.341   1.346   1.350
  1.355   1.365   1.374   1.378   1.381   1.388   1.391   1.395
  1.406   1.416   1.424   1.426   1.432   1.451   1.462   1.467
  1.472   1.495   1.498   1.502   1.507   1.509   1.514   1.517
  1.526   1.532   1.536   1.537   1.545   1.548   1.551   1.554
  1.555   1.558   1.562   1.568   1.573   1.578   1.581   1.584
  1.587   1.596   1.601   1.607   1.616   1.624   1.630   1.637
  1.648   1.668   1.669   1.681   1.687   1.709   1.713   1.718
  1.741   1.743   1.758   1.760   1.764   1.778   1.780   1.789
  1.790   1.802   1.807   1.822   1.829   1.832   1.834   1.837
  1.844   1.849   1.857   1.868   1.869   1.885   1.889   1.899
  1.903   1.909   1.911   1.915   1.919   1.927   1.929   1.938
  1.944   1.948   1.956   1.968   1.975   1.977   1.989   1.993
  1.993   2.004   2.013   2.018   2.021   2.028   2.033   2.040
  2.045   2.050   2.056   2.057   2.059   2.073   2.078   2.081
  2.094   2.104   2.107   2.115   2.131   2.137   2.140   2.142
  2.145   2.155   2.161   2.164   2.167   2.179   2.182   2.188
  2.190   2.193   2.197   2.205   2.212   2.219   2.224   2.228
  2.237   2.242   2.249   2.259   2.265   2.266   2.268   2.275
  2.278   2.285   2.289   2.294   2.304   2.310   2.316   2.322
  2.324   2.333   2.336   2.340   2.346   2.349   2.354   2.357
  2.363   2.367   2.369   2.380   2.382   2.392   2.396   2.402
  2.410   2.421   2.429   2.438   2.449   2.463   2.470   2.473
  2.491   2.497   2.509   2.513   2.523   2.539   2.543   2.565
  2.586   2.592   2.597   2.616   2.619   2.634   2.644   2.660
  2.671   2.676   2.682   2.689   2.697   2.700   2.705   2.711
  2.717   2.719   2.729   2.733   2.738   2.739   2.747   2.755
  2.764   2.774   2.775   2.791   2.794   2.797   2.802   2.807
  2.813   2.819   2.823   2.825   2.833   2.850   2.854   2.857
  2.876   2.878   2.887   2.895   2.899   2.915   2.918   2.945
  2.948   2.968   2.973   2.977   2.984   3.009   3.019   3.020
  3.027   3.059   3.064   3.079   3.139   3.214   3.277   3.311
  3.366   3.369   3.378   3.405   3.415   3.489   3.569   3.572
  3.587   3.645  13.198  13.252  13.264  13.344  13.371  13.416
 13.623  13.646  13.663  13.693  13.718  13.733  13.742  13.764
 13.785  13.805  13.826  13.872  13.893  13.903  13.925  13.979
 14.062  14.117  14.124  14.171  14.172  14.184  14.193  14.214
 14.222  14.247  14.254  14.272  14.287  14.311  14.316  14.390
 14.546  14.567  14.580  14.588  14.602  14.608  19.485  19.545
 19.634
 --------------------------------------------------------------
 
          Ground-State Mulliken Net Atomic Charges

     Atom                 Charge (a.u.)
  ----------------------------------------
      1 N                    -0.707757
      2 C                     0.297730
      3 C                     0.306472
      4 C                     0.142600
      5 C                    -0.290808
      6 H                     0.207811
      7 C                    -0.232792
      8 H                     0.210195
      9 C                    -0.228356
     10 H                     0.214336
     11 C                    -0.304875
     12 H                     0.248416
     13 C                     0.141087
     14 C                    -0.290402
     15 H                     0.206672
     16 C                    -0.234802
     17 H                     0.206836
     18 C                    -0.221975
     19 H                     0.214239
     20 C                    -0.301511
     21 H                     0.261782
     22 C                     0.170325
     23 C                    -0.268389
     24 H                     0.280647
     25 C                    -0.214920
     26 H                     0.245433
     27 C                    -0.304809
     28 H                     0.219415
     29 C                     0.219441
     30 C                     0.068670
     31 C                    -0.521841
     32 H                     0.249772
     33 H                     0.251706
     34 C                    -0.211517
     35 C                    -0.536337
     36 H                     0.251574
     37 H                     0.258002
     38 C                     0.139244
     39 C                    -0.315551
     40 H                     0.246437
     41 C                     0.071622
     42 C                    -0.005832
     43 N                    -0.159341
     44 C                     0.165446
     45 C                    -0.284325
     46 H                     0.279996
     47 C                     0.080778
     48 C                    -0.005574
     49 N                    -0.158919
     50 C                    -0.421140
     51 C                     0.152076
     52 C                    -0.276892
     53 H                     0.216269
     54 C                    -0.223531
     55 H                     0.228210
     56 C                    -0.215540
     57 H                     0.230449
     58 C                    -0.320918
     59 H                     0.214940
     60 C                     0.135735
     61 C                     0.155445
     62 C                    -0.316780
     63 H                     0.214024
     64 C                    -0.215468
     65 H                     0.231069
     66 C                    -0.236226
     67 H                     0.231208
     68 C                    -0.266153
     69 H                     0.225079
     70 C                     0.065418
     71 C                    -0.601491
     72 H                     0.216450
     73 H                     0.215660
     74 H                     0.235715
     75 C                    -0.594249
     76 H                     0.215161
     77 H                     0.217178
     78 H                     0.232256
  ----------------------------------------
  Sum of atomic charges =     0.000000

 -----------------------------------------------------------------
                    Cartesian Multipole Moments
 -----------------------------------------------------------------
    Charge (ESU x 10^10)
                -0.0000
    Dipole Moment (Debye)
         X       5.4783      Y       3.7050      Z      -0.6027
       Tot       6.6410
    Quadrupole Moments (Debye-Ang)
        XX    -356.9142     XY     -64.0840     YY    -293.2706
        XZ      -4.0431     YZ      -9.3772     ZZ    -249.4520
    Octopole Moments (Debye-Ang^2)
       XXX    3264.8064    XXY    1220.0529    XYY    1072.8688
       YYY    1568.7582    XXZ     215.9850    XYZ      93.8053
       YYZ      99.0625    XZZ     687.8515    YZZ     482.5956
       ZZZ     215.9849
    Hexadecapole Moments (Debye-Ang^3)
      XXXX  -45265.0690   XXXY  -15364.8780   XXYY  -11853.9923
      XYYY  -10116.9536   YYYY  -13310.2554   XXXZ   -4676.0654
      XXYZ   -1428.0867   XYYZ   -1351.4468   YYYZ   -1313.2484
      XXZZ   -7227.2057   XYZZ   -3007.2799   YYZZ   -3564.5178
      XZZZ   -2850.4659   YZZZ   -1266.5852   ZZZZ   -7224.7212
 -----------------------------------------------------------------
 -----------------------------------------------------------------
               TDA Excited-State Multipoles, State  1
 -----------------------------------------------------------------
    Charge (ESU x 10^10)
                -0.0000
    Dipole Moment (Debye)
         X       6.0781      Y       3.8626      Z      -0.3468
       Tot       7.2099
    Quadrupole Moments (Debye-Ang)
        XX    -362.0398     XY     -66.6386     YY    -293.6140
        XZ      -5.7913     YZ      -9.9379     ZZ    -250.1063
    Octopole Moments (Debye-Ang^2)
       XXX    3311.7847    XXY    1244.3090    XYY    1083.7141
       YYY    1569.4051    XXZ     228.2471    XYZ      98.2225
       YYZ      99.5664    XZZ     695.9839    YZZ     485.6795
       ZZZ     222.9885
    Hexadecapole Moments (Debye-Ang^3)
      XXXX  -45653.0481   XXXY  -15575.2820   XXYY  -11962.0131
      XYYY  -10166.1025   YYYY  -13306.0871   XXXZ   -4766.5854
      XXYZ   -1460.3201   XYYZ   -1359.0941   YYYZ   -1309.2481
      XXZZ   -7287.7359   XYZZ   -3032.7213   YYZZ   -3571.2705
      XZZZ   -2894.8334   YZZZ   -1286.8956   ZZZZ   -7239.2760
 -----------------------------------------------------------------
 -----------------------------------------------------------------
               TDA Excited-State Multipoles, State  2
 -----------------------------------------------------------------
    Charge (ESU x 10^10)
                -0.0000
    Dipole Moment (Debye)
         X      35.0270      Y      17.8169      Z       7.5146
       Tot      40.0100
    Quadrupole Moments (Debye-Ang)
        XX    -536.4230     XY    -166.6964     YY    -353.1626
        XZ     -55.0663     YZ     -30.2171     ZZ    -246.4226
    Octopole Moments (Debye-Ang^2)
       XXX    5027.6116    XXY    2075.0968    XYY    1548.2935
       YYY    1882.2915    XXZ     600.2517    XYZ     272.5392
       YYZ     191.7674    XZZ     903.4847    YZZ     574.7075
       ZZZ     344.7456
    Hexadecapole Moments (Debye-Ang^3)
      XXXX  -59889.3552   XXXY  -22811.8512   XXYY  -15788.3599
      XYYY  -12396.0062   YYYY  -14932.3106   XXXZ   -8177.0517
      XXYZ   -3012.4235   XYYZ   -2113.8618   YYYZ   -1711.3868
      XXZZ   -8647.0894   XYZZ   -3737.3787   YYZZ   -3928.5099
      XZZZ   -3507.7299   YZZZ   -1536.9402   ZZZZ   -7122.4260
 -----------------------------------------------------------------
 -----------------------------------------------------------------
               TDA Excited-State Multipoles, State  3
 -----------------------------------------------------------------
    Charge (ESU x 10^10)
                -0.0000
    Dipole Moment (Debye)
         X      35.3127      Y      17.9569      Z       7.5944
       Tot      40.3374
    Quadrupole Moments (Debye-Ang)
        XX    -538.2583     XY    -167.7456     YY    -353.7666
        XZ     -55.5531     YZ     -30.4215     ZZ    -246.3751
    Octopole Moments (Debye-Ang^2)
       XXX    5045.5953    XXY    2083.9827    XYY    1553.2321
       YYY    1885.4974    XXZ     603.9811    XYZ     274.2867
       YYZ     192.6748    XZZ     905.4727    YZZ     575.5625
       ZZZ     346.0034
    Hexadecapole Moments (Debye-Ang^3)
      XXXX  -60041.0165   XXXY  -22889.8887   XXYY  -15829.9372
      XYYY  -12420.1046   YYYY  -14948.9934   XXXZ   -8210.8579
      XXYZ   -3027.8621   XYYZ   -2121.3334   YYYZ   -1715.3014
      XXZZ   -8660.5563   XYZZ   -3744.3205   YYZZ   -3931.9238
      XZZZ   -3514.0140   YZZZ   -1539.5663   ZZZZ   -7121.1875
 -----------------------------------------------------------------
 -----------------------------------------------------------------
               TDA Excited-State Multipoles, State  4
 -----------------------------------------------------------------
    Charge (ESU x 10^10)
                 0.0000
    Dipole Moment (Debye)
         X       5.7637      Y       3.8015      Z      -0.5527
       Tot       6.9266
    Quadrupole Moments (Debye-Ang)
        XX    -359.5834     XY     -65.1077     YY    -293.6873
        XZ      -5.0199     YZ      -9.1596     ZZ    -250.0353
    Octopole Moments (Debye-Ang^2)
       XXX    3290.2208    XXY    1230.5987    XYY    1077.2116
       YYY    1572.0432    XXZ     224.7871    XYZ      96.4847
       YYZ      96.1133    XZZ     692.0321    YZZ     485.9159
       ZZZ     216.7259
    Hexadecapole Moments (Debye-Ang^3)
      XXXX  -45488.4425   XXXY  -15465.3514   XXYY  -11900.2324
      XYYY  -10139.1632   YYYY  -13333.6307   XXXZ   -4749.8011
      XXYZ   -1459.3424   XYYZ   -1355.9372   YYYZ   -1293.0008
      XXZZ   -7255.6989   XYZZ   -3024.9614   YYZZ   -3578.7655
      XZZZ   -2859.6830   YZZZ   -1267.1570   ZZZZ   -7235.4206
 -----------------------------------------------------------------
 -----------------------------------------------------------------
               TDA Excited-State Multipoles, State  5
 -----------------------------------------------------------------
    Charge (ESU x 10^10)
                -0.0000
    Dipole Moment (Debye)
         X       5.1480      Y       3.7224      Z      -0.6281
       Tot       6.3838
    Quadrupole Moments (Debye-Ang)
        XX    -356.9588     XY     -63.9609     YY    -292.8133
        XZ      -2.4629     YZ      -9.4384     ZZ    -251.3320
    Octopole Moments (Debye-Ang^2)
       XXX    3257.6241    XXY    1218.6470    XYY    1072.0008
       YYY    1567.7177    XXZ     215.0969    XYZ      94.0099
       YYZ      99.1886    XZZ     685.3206    YZZ     482.5683
       ZZZ     215.6313
    Hexadecapole Moments (Debye-Ang^3)
      XXXX  -45235.2574   XXXY  -15351.8794   XXYY  -11843.9226
      XYYY  -10111.0203   YYYY  -13299.4994   XXXZ   -4652.0876
      XXYZ   -1426.3080   XYYZ   -1348.2609   YYYZ   -1312.6778
      XXZZ   -7226.0866   XYZZ   -3004.4315   YYZZ   -3563.1787
      XZZZ   -2836.1704   YZZZ   -1267.2692   ZZZZ   -7255.2352
 -----------------------------------------------------------------
 -----------------------------------------------------------------
               TDA Excited-State Multipoles, State  6
 -----------------------------------------------------------------
    Charge (ESU x 10^10)
                 0.0000
    Dipole Moment (Debye)
         X       8.4356      Y       4.4404      Z       0.4888
       Tot       9.5454
    Quadrupole Moments (Debye-Ang)
        XX    -365.8040     XY     -67.7614     YY    -297.6927
        XZ      -7.5287     YZ      -8.7559     ZZ    -248.1237
    Octopole Moments (Debye-Ang^2)
       XXX    3344.3490    XXY    1245.9381    XYY    1094.2162
       YYY    1589.5062    XXZ     225.1008    XYZ      94.0463
       YYZ     101.5704    XZZ     707.8309    YZZ     488.1042
       ZZZ     231.8280
    Hexadecapole Moments (Debye-Ang^3)
      XXXX  -45744.4665   XXXY  -15573.3970   XXYY  -11978.9940
      XYYY  -10204.7318   YYYY  -13433.8551   XXXZ   -4788.8289
      XXYZ   -1450.5289   XYYZ   -1364.1778   YYYZ   -1317.7579
      XXZZ   -7295.4364   XYZZ   -3039.0666   YYZZ   -3587.8076
      XZZZ   -2882.5838   YZZZ   -1263.5680   ZZZZ   -7181.0730
 -----------------------------------------------------------------
 -----------------------------------------------------------------
               TDA Excited-State Multipoles, State  7
 -----------------------------------------------------------------
    Charge (ESU x 10^10)
                 0.0000
    Dipole Moment (Debye)
         X      15.7001      Y       8.2548      Z       1.0868
       Tot      17.7712
    Quadrupole Moments (Debye-Ang)
        XX    -385.6995     XY     -83.4782     YY    -315.5480
        XZ     -10.4889     YZ      -9.3979     ZZ    -246.3866
    Octopole Moments (Debye-Ang^2)
       XXX    3561.5126    XXY    1342.6813    XYY    1171.5586
       YYY    1685.5817    XXZ     235.6568    XYZ     101.0300
       YYZ     112.7521    XZZ     755.2119    YZZ     509.5474
       ZZZ     246.0035
    Hexadecapole Moments (Debye-Ang^3)
      XXXX  -47081.5137   XXXY  -16295.4272   XXYY  -12407.4230
      XYYY  -10556.7311   YYYY  -13970.4874   XXXZ   -4977.6889
      XXYZ   -1534.6240   XYYZ   -1413.5814   YYYZ   -1373.6360
      XXZZ   -7467.5982   XYZZ   -3142.4923   YYZZ   -3673.8981
      XZZZ   -2923.2649   YZZZ   -1269.2922   ZZZZ   -7128.3682
 -----------------------------------------------------------------
 -----------------------------------------------------------------
               TDA Excited-State Multipoles, State  8
 -----------------------------------------------------------------
    Charge (ESU x 10^10)
                 0.0000
    Dipole Moment (Debye)
         X      22.6508      Y      14.2393      Z       1.6319
       Tot      26.8045
    Quadrupole Moments (Debye-Ang)
        XX    -410.7781     XY    -105.6674     YY    -341.7089
        XZ      -8.5948     YZ     -10.7148     ZZ    -244.3036
    Octopole Moments (Debye-Ang^2)
       XXX    3796.4983    XXY    1459.4948    XYY    1267.9141
       YYY    1833.3902    XXZ     236.4715    XYZ     108.3818
       YYZ     126.5465    XZZ     808.2549    YZZ     543.2118
       ZZZ     264.5666
    Hexadecapole Moments (Debye-Ang^3)
      XXXX  -48603.6154   XXXY  -17089.6991   XXYY  -12888.8510
      XYYY  -11027.4046   YYYY  -14784.2976   XXXZ   -5112.6026
      XXYZ   -1621.3581   XYYZ   -1464.3387   YYYZ   -1462.7625
      XXZZ   -7687.8483   XYZZ   -3289.0705   YYZZ   -3802.3163
      XZZZ   -2922.0065   YZZZ   -1279.5147   ZZZZ   -7070.1955
 -----------------------------------------------------------------
 -----------------------------------------------------------------
               TDA Excited-State Multipoles, State  9
 -----------------------------------------------------------------
    Charge (ESU x 10^10)
                 0.0000
    Dipole Moment (Debye)
         X      18.7001      Y       7.8163      Z       3.0072
       Tot      20.4898
    Quadrupole Moments (Debye-Ang)
        XX    -394.2221     XY     -83.9905     YY    -314.2559
        XZ     -14.4723     YZ      -7.5314     ZZ    -244.3251
    Octopole Moments (Debye-Ang^2)
       XXX    3639.4465    XXY    1356.1353    XYY    1177.5079
       YYY    1674.9690    XXZ     260.1107    XYZ      99.6404
       YYZ     109.9827    XZZ     777.9667    YZZ     514.3985
       ZZZ     264.0760
    Hexadecapole Moments (Debye-Ang^3)
      XXXX  -47539.9213   XXXY  -16428.6663   XXYY  -12468.1832
      XYYY  -10561.4691   YYYY  -13915.2352   XXXZ   -5147.2039
      XXYZ   -1561.1640   XYYZ   -1416.6798   YYYZ   -1347.9748
      XXZZ   -7557.6034   XYZZ   -3179.9603   YYZZ   -3684.6276
      XZZZ   -2953.6775   YZZZ   -1255.2056   ZZZZ   -7094.1876
 -----------------------------------------------------------------
 -----------------------------------------------------------------
               TDA Excited-State Multipoles, State 10
 -----------------------------------------------------------------
    Charge (ESU x 10^10)
                 0.0000
    Dipole Moment (Debye)
         X      18.2074      Y       5.6785      Z       6.1485
       Tot      20.0389
    Quadrupole Moments (Debye-Ang)
        XX    -490.8943     XY    -124.3504     YY    -296.7032
        XZ     -55.0895     YZ     -27.7525     ZZ    -252.1091
    Octopole Moments (Debye-Ang^2)
       XXX    4561.0912    XXY    1858.3444    XYY    1350.8009
       YYY    1566.5587    XXZ     607.0161    XYZ     261.2292
       YYZ     152.6311    XZZ     783.6004    YZZ     509.9017
       ZZZ     307.7594
    Hexadecapole Moments (Debye-Ang^3)
      XXXX  -57115.7293   XXXY  -21339.3951   XXYY  -14866.1778
      XYYY  -11457.6219   YYYY  -13145.6939   XXXZ   -7875.8622
      XXYZ   -2850.7860   XYYZ   -1987.8227   YYYZ   -1471.1915
      XXZZ   -8209.0678   XYZZ   -3450.3853   YYZZ   -3672.2185
      XZZZ   -3498.1793   YZZZ   -1532.0588   ZZZZ   -7281.9356
 -----------------------------------------------------------------
 -----------------------------------------------------------------
               TDA Excited-State Multipoles, State 11
 -----------------------------------------------------------------
    Charge (ESU x 10^10)
                -0.0000
    Dipole Moment (Debye)
         X      18.3658      Y       9.6535      Z       2.4947
       Tot      20.8977
    Quadrupole Moments (Debye-Ang)
        XX    -386.9728     XY     -85.5646     YY    -323.7400
        XZ     -12.6342     YZ      -9.4213     ZZ    -243.7802
    Octopole Moments (Debye-Ang^2)
       XXX    3585.2108    XXY    1342.4849    XYY    1189.9230
       YYY    1732.9588    XXZ     242.1595    XYZ      99.6564
       YYZ     120.4173    XZZ     773.2988    YZZ     515.9301
       ZZZ     261.6283
    Hexadecapole Moments (Debye-Ang^3)
      XXXX  -47062.7676   XXXY  -16260.6507   XXYY  -12424.5427
      XYYY  -10639.8470   YYYY  -14260.5939   XXXZ   -5018.1820
      XXYZ   -1533.7740   XYYZ   -1429.0202   YYYZ   -1408.8907
      XXZZ   -7506.7861   XYZZ   -3165.0988   YYZZ   -3708.3733
      XZZZ   -2937.5514   YZZZ   -1267.7507   ZZZZ   -7080.0642
 -----------------------------------------------------------------
 -----------------------------------------------------------------
               TDA Excited-State Multipoles, State 12
 -----------------------------------------------------------------
    Charge (ESU x 10^10)
                 0.0000
    Dipole Moment (Debye)
         X      28.4121      Y      14.5031      Z       5.3231
       Tot      32.3407
    Quadrupole Moments (Debye-Ang)
        XX    -476.2513     XY    -133.3156     YY    -337.7779
        XZ     -38.5080     YZ     -21.9767     ZZ    -246.8922
    Octopole Moments (Debye-Ang^2)
       XXX    4402.4489    XXY    1753.6971    XYY    1381.7655
       YYY    1797.8049    XXZ     449.0898    XYZ     197.0065
       YYZ     155.7211    XZZ     854.2623    YZZ     550.4798
       ZZZ     314.8883
    Hexadecapole Moments (Debye-Ang^3)
      XXXX  -53972.5364   XXXY  -19759.0269   XXYY  -14195.3291
      XYYY  -11536.8738   YYYY  -14494.4245   XXXZ   -6723.0844
      XXYZ   -2302.8674   XYYZ   -1766.4472   YYYZ   -1542.7700
      XXZZ   -8176.1195   XYZZ   -3483.9086   YYZZ   -3811.9812
      XZZZ   -3313.4086   YZZZ   -1438.5081   ZZZZ   -7148.0517
 -----------------------------------------------------------------
Archival summary:
1\1\ctcp003\SP\ProcedureUnspecified\BasisUnspecified\34431\mewes\MonApr3018:38:562018MonApr3018:38:562018\0\\#,ProcedureUnspecified,BasisUnspecified,\\0,1\N\C,1,1.37339\C,1,1.37342,2,122.936\C,3,1.40986,1,120.256,2,-4.86255,0\C,4,1.38478,3,117.682,1,-177.238,0\H,5,1.08144,4,119.501,3,178.836,0\C,5,1.38484,4,121.913,3,-1.3568,0\H,7,1.08077,5,119.777,4,-179.999,0\C,7,1.39288,5,119.915,4,-0.858185,0\H,9,1.08024,7,120.436,5,-178.274,0\C,9,1.37088,7,119.94,5,1.37605,0\H,11,1.07866,9,119.884,7,-179.084,0\C,2,1.41175,1,120.11,3,1.49274,0\C,13,1.38456,2,117.901,1,-178.18,0\H,14,1.08131,13,119.543,2,-179.945,0\C,14,1.38485,13,121.915,2,-0.038231,0\H,16,1.08093,14,119.823,13,179.275,0\C,16,1.39256,14,119.849,13,-1.08642,0\H,18,1.07977,16,120.885,14,179.879,0\C,18,1.36988,16,120.044,14,0.420788,0\H,20,1.07784,18,118.666,16,-179.924,0\C,1,1.43821,2,118.156,3,179.533,0\C,22,1.37427,1,118.495,2,-70.5033,0\H,23,1.08298,22,118.848,1,-2.08557,0\C,22,1.38388,1,120.045,2,106.045,0\H,25,1.0823,22,121.447,1,1.52009,0\C,25,1.37927,22,117.123,1,-179.481,0\H,27,1.08257,25,118.846,22,-177.105,0\C,23,1.39464,22,121.633,1,174.617,0\C,29,1.39826,23,117.61,22,6.57119,0\C,30,1.49896,29,122.645,23,169.425,0\H,31,1.09196,30,108.255,29,-164.325,0\H,31,1.09285,30,111.088,29,79.1142,0\C,13,1.5073,2,122.357,1,3.88357,0\C,31,1.53229,30,111.149,29,-42.6075,0\H,35,1.09092,31,109.492,30,-149.783,0\H,35,1.09792,31,108.872,30,-34.5295,0\C,35,1.49593,31,110.486,30,90.0403,0\C,38,1.36816,35,119.15,31,122.705,0\H,39,1.08408,38,118.651,35,6.80278,0\C,39,1.40899,38,123.666,35,-171.111,0\C,41,1.3987,39,120.187,38,-179.131,0\N,42,1.16214,41,178.69,39,-8.37765,0\C,38,1.43934,35,120.632,31,-48.0128,0\C,44,1.38255,38,117.275,35,169.375,0\H,45,1.08226,44,119.791,38,179.241,0\C,45,1.39216,44,123.868,38,0.476447,0\C,47,1.40785,45,118.634,44,-178.386,0\N,48,1.15901,47,178.592,45,-8.14186,0\C,44,1.52657,38,124.294,35,-25.1493,0\C,50,1.52389,44,108.608,38,-91.5473,0\C,51,1.38129,50,128.089,44,61.3287,0\H,52,1.08254,51,120.634,50,1.20668,0\C,52,1.3887,51,118.781,50,-176.581,0\H,54,1.08216,52,119.561,51,179.065,0\C,54,1.39165,52,120.927,51,0.197876,0\H,56,1.0819,54,119.714,52,178.998,0\C,56,1.38727,54,120.388,52,0.080896,0\H,58,1.0832,56,120.399,54,178.732,0\C,58,1.38583,56,118.626,54,-0.274935,0\C,60,1.45866,58,130.673,56,178.603,0\C,61,1.38771,60,130.948,58,1.41355,0\H,62,1.08313,61,120.865,60,0.491733,0\C,62,1.38692,61,118.882,60,-177.964,0\H,64,1.08262,62,119.735,61,178.288,0\C,64,1.3914,62,120.52,61,-0.162097,0\H,66,1.08261,64,119.732,62,177.962,0\C,66,1.39059,64,120.534,62,-0.036143,0\H,68,1.08307,66,120.401,64,177.592,0\C,68,1.38182,66,118.955,64,0.129656,0\C,34,1.54192,13,109.128,2,-125.757,0\H,71,1.08888,34,111.161,13,-178.403,0\H,71,1.08907,34,111.173,13,-59.2827,0\H,71,1.08922,34,111.179,13,61.0784,0\C,34,1.54357,13,108.155,2,114.75,0\H,75,1.08935,34,110.991,13,178.564,0\H,75,1.08938,34,110.809,13,59.1092,0\H,75,1.08944,34,111.259,13,-60.9672,0\\\@

 Total job time:  6000.41s(wall), 32100.55s(cpu) 
 Mon Apr 30 18:38:56 2018

        *************************************************************
        *                                                           *
        *  Thank you very much for using Q-Chem.  Have a nice day.  *
        *                                                           *
        *************************************************************


0 sent ACK to 0 
now end server 0 ... 
