mFile = /cm/shared/apps/q-chem/intel/QCHEM_5.1.0_Trunk/bin/mpi/machines
Process 0 of 1 is on ctcp003 - thread support 0
initial socket setup ...start
initial socket setup ...done 
now start server 0 ... 
Q-Chem Developer Version!
                  Welcome to Q-Chem
     A Quantum Leap Into The Future Of Chemistry


 Q-Chem 5.1, Q-Chem, Inc., Pleasanton, CA (2018)

 Yihan Shao,  Zhengting Gan,  E. Epifanovsky,  A. T. B. Gilbert,  M. Wormit,  
 J. Kussmann,  A. W. Lange,  A. Behn,  Jia Deng,  Xintian Feng,  D. Ghosh,  
 M. Goldey,  P. R. Horn,  L. D. Jacobson,  I. Kaliman,  T. Kus,  A. Landau,  
 Jie Liu,  E. I. Proynov,  R. M. Richard,  R. P. Steele,  E. J. Sundstrom,  
 H. L. Woodcock III,  P. M. Zimmerman,  D. Zuev,  B. Albrecht,  E. Alguire,  
 S. A. Baeppler,  D. Barton,  Z. Benda,  Y. A. Bernard,  E. J. Berquist,  
 K. B. Bravaya,  H. Burton,  D. Casanova,  Chun-Min Chang,  Yunqing Chen,  
 A. Chien,  K. D. Closser,  M. P. Coons,  S. Coriani,  S. Dasgupta,  
 A. L. Dempwolff,  M. Diedenhofen,  Hainam Do,  R. G. Edgar,  Po-Tung Fang,  
 S. Faraji,  S. Fatehi,  Qingguo Feng,  K. D. Fenk,  J. Fosso-Tande,  
 Qinghui Ge,  A. Ghysels,  G. Gidofalvi,  J. Gomes,  J. Gonthier,  A. Gunina,  
 D. Hait,  M. W. D. Hanson-Heine,  P. H. P. Harbach,  A. W. Hauser,  
 J. E. Herr,  E. G. Hohenstein,  Z. C. Holden,  Kerwin Hui,  B. C. Huynh,  
 T.-C. Jagau,  Hyunjun Ji,  B. Kaduk,  K. Khistyaev,  Jaehoon Kim,  
 P. Klunzinger,  K. Koh,  D. Kosenkov,  L. Koulias,  T. Kowalczyk,  
 C. M. Krauter,  A. Kunitsa,  Ka Un Lao,  A. Laurent,  K. V. Lawler,  
 Joonho Lee,  D. Lefrancois,  S. Lehtola,  D. S. Levine,  Yi-Pei Li,  
 You-Sheng Lin,  Fenglai Liu,  E. Livshits,  A. Luenser,  P. Manohar,  
 E. Mansoor,  S. F. Manzer,  Shan-Ping Mao,  Yuezhi Mao,  N. Mardirossian,  
 A. V. Marenich,  T. Markovich,  L. A. Martinez-Martinez,  S. A. Maurer,  
 N. J. Mayhall,  S. C. McKenzie,  J.-M. Mewes,  A. F. Morrison,  
 J. W. Mullinax,  K. Nanda,  T. S. Nguyen-Beck,  R. Olivares-Amaya,  
 J. A. Parkhill,  T. M. Perrine,  F. Plasser,  P. Pokhilko,  S. Prager,  
 A. Prociuk,  E. Ramos,  D. R. Rehn,  F. Rob,  M. Schneider,  N. Sergueev,  
 S. M. Sharada,  S. Sharma,  D. W. Small,  T. Stauch,  T. Stein,  
 Yu-Chuan Su,  A. J. W. Thom,  A. Tkatchenko,  T. Tsuchimochi,  N. M. Tubman,  
 L. Vogt,  M. L. Vidal,  O. Vydrov,  M. A. Watson,  J. Wenzel,  
 M. de Wergifosse,  T. A. Wesolowski,  A. White,  J. Witte,  A. Yamada,  
 Jun Yang,  K. Yao,  S. Yeganeh,  S. R. Yost,  Zhi-Qiang You,  A. Zech,  
 Igor Ying Zhang,  Xing Zhang,  Yan Zhao,  Ying Zhu,  B. R. Brooks,  
 G. K. L. Chan,  C. J. Cramer,  M. S. Gordon,  W. J. Hehre,  A. Klamt,  
 M. W. Schmidt,  C. D. Sherrill,  D. G. Truhlar,  A. Aspuru-Guzik,  R. Baer,  
 A. T. Bell,  N. A. Besley,  Jeng-Da Chai,  A. E. DePrince, III,  
 R. A. DiStasio Jr.,  A. Dreuw,  B. D. Dunietz,  T. R. Furlani,  
 Chao-Ping Hsu,  Yousung Jung,  Jing Kong,  D. S. Lambrecht,  WanZhen Liang,  
 C. Ochsenfeld,  V. A. Rassolov,  L. V. Slipchenko,  J. E. Subotnik,  
 T. Van Voorhis,  J. M. Herbert,  A. I. Krylov,  P. M. W. Gill,  M. Head-Gordon

 Contributors to earlier versions of Q-Chem not listed above: 
 R. D. Adamson,  B. Austin,  J. Baker,  G. J. O. Beran,  K. Brandhorst,  
 S. T. Brown,  E. F. C. Byrd,  A. K. Chakraborty,  C.-L. Cheng,  
 Siu Hung Chien,  D. M. Chipman,  D. L. Crittenden,  H. Dachsel,  
 R. J. Doerksen,  A. D. Dutoi,  L. Fusti-Molnar,  W. A. Goddard III,  
 A. Golubeva-Zadorozhnaya,  S. R. Gwaltney,  G. Hawkins,  A. Heyden,  
 S. Hirata,  G. Kedziora,  F. J. Keil,  C. Kelley,  Jihan Kim,  R. A. King,  
 R. Z. Khaliullin,  P. P. Korambath,  W. Kurlancheek,  A. M. Lee,  M. S. Lee,  
 S. V. Levchenko,  Ching Yeh Lin,  D. Liotard,  R. C. Lochan,  I. Lotan,  
 P. E. Maslen,  N. Nair,  D. P. O'Neill,  D. Neuhauser,  E. Neuscamman,  
 C. M. Oana,  R. Olson,  B. Peters,  R. Peverati,  P. A. Pieniazek,  
 Y. M. Rhee,  J. Ritchie,  M. A. Rohrdanz,  E. Rosta,  N. J. Russ,  
 H. F. Schaefer III,  N. E. Schultz,  N. Shenvi,  A. C. Simmonett,  A. Sodt,  
 D. Stuck,  K. S. Thanthiriwatte,  V. Vanovschi,  Tao Wang,  A. Warshel,  
 C. F. Williams,  Q. Wu,  X. Xu,  W. Zhang

 Please cite Q-Chem as follows:
 Y. Shao et al., Mol. Phys. 113, 184-215 (2015)
 DOI: 10.1080/00268976.2014.952696

 Q-Chem 5.1.1 for Intel X86 EM64T Linux

 Parts of Q-Chem use Armadillo 8.300.2 (Tropical Shenanigans).
 http://arma.sourceforge.net/

 Q-Chem begins on Tue Dec 11 15:11:04 2018  

Host: ctcp003
0

     Scratch files written to /scratch/mewes1/141695/qchem80485//
 Parallel job on  1  processors
The previous job contains 0 fragments, simply inherited here
Symmetry turned off for PCM/SM12/SMD calculation
Input Ideriv = 2
Curr. Ideriv = -1
Max.  Ideriv = 2
Input Ideriv = 2
Curr. Ideriv = 2
Max.  Ideriv = 2

Checking the input file for inconsistencies... 	...done.

--------------------------------------------------------------
User input:
--------------------------------------------------------------
$rem
threads 4
jobtype opt
method PBEh-3c
basis def2-mSVP
mem_static      1024
mem_total       4000
sym_ignore      true
unrestricted true
scf_algorithm	diis
scf_max_cycles	250
solvent_method  pcm
geom_opt_tol_energy 25
geom_opt_tol_gradient 75
$end

$pcm
theory  iefpcm
$end

$solvent
dielectric      1.0001
$end

$molecule
read ANDBA_an.mol
$end
--------------------------------------------------------------
 Adding empirical dispersion correction 
 ----------------------------------------------------------------
 Doing -D3(BJ) with
 s6 =   1.00000
 s8 =   0.00000
 a1 =   0.48600
 a2 =   4.50000
 -D3 energy including 3body term =     -0.0448115077 hartrees
 ----------------------------------------------------------------
 Adding gCP correction 
 ----------------------------------------------------------------
 gCP energy =      0.0629498329 hartrees
 ----------------------------------------------------------------
             Standard Nuclear Orientation (Angstroms)
    I     Atom           X                Y                Z
 ----------------------------------------------------------------
    1      C      -6.2266800000     4.0061400000     1.7760100000
    2      C      -6.7673000000     2.7064100000     2.0202900000
    3      B      -5.8788300000     1.4261700000     1.8722600000
    4      C      -4.4045200000     1.5864200000     1.3714700000
    5      C      -3.8408600000     2.8816600000     1.1566600000
    6      B      -4.7056200000     4.1759900000     1.4008800000
    7      C      -2.5191500000     3.0060600000     0.6812100000
    8      C      -1.8097600000     1.8412100000     0.4081700000
    9      C      -2.3682200000     0.5874500000     0.6128900000
   10      C      -3.6533800000     0.4306400000     1.1021700000
   11      C      -7.0644200000     5.1401500000     1.8305100000
   12      C      -8.4107700000     4.9457900000     2.1245600000
   13      C      -8.9158400000     3.6831300000     2.4006700000
   14      C      -8.1211300000     2.5514800000     2.3573100000
   15      H      -6.6848200000     6.1328800000     1.6196400000
   16      C      -0.4710800000     1.6341200000    -0.1419100000
   17      C     -10.3402100000     3.8225700000     2.6640200000
   18      C     -11.3370000000     2.9083600000     3.0007800000
   19      C       1.7294800000     1.9383400000    -1.0776800000
   20      C       1.8818200000     0.5269500000    -1.1780800000
   21      C       0.8379700000    -0.3167900000    -0.7509200000
   22      C     -12.9486000000     4.7736100000     2.9731300000
   23      C     -12.6564400000     3.3938100000     3.1606800000
   24      H     -13.4499300000     2.7059600000     3.4209000000
   25      H       2.7928300000     0.1088900000    -1.5855100000
   26      C      -0.2958700000     0.2810300000    -0.2476200000
   27      H      -4.0696100000    -0.5600400000     1.2417400000
   28      C       0.5394200000     2.5026000000    -0.5546700000
   29      H       2.5281300000     2.5882600000    -1.4096400000
   30      H       0.4149500000     3.5753400000    -0.4835100000
   31      H      -2.0732100000     3.9766900000     0.4996900000
   32      C      -1.3904400000    -0.4065800000     0.1929500000
   33      C       0.8604300000    -1.7254100000    -0.8085700000
   34      C      -0.2670900000    -2.4649500000    -0.3542400000
   35      C      -1.4087500000    -1.8000000000     0.1532800000
   36      H      -0.2562900000    -3.5457900000    -0.4016300000
   37      H      -2.2736200000    -2.3549400000     0.4937000000
   38      H      -8.5492300000     1.5741100000     2.5457300000
   39      H     -11.1072700000     1.8588400000     3.1333200000
   40      C     -10.6419600000     5.1442900000     2.5032300000
   41      C      -9.5346200000     5.8813900000     2.1802500000
   42      C      -9.6540900000     7.2522900000     1.9489000000
   43      C     -10.9402000000     7.8373900000     2.0631300000
   44      C     -12.0711100000     7.0458900000     2.4091600000
   45      C     -11.9099500000     5.6651900000     2.6344500000
   46      H     -11.0642600000     8.8964500000     1.8798800000
   47      H     -13.0481900000     7.5038900000     2.4894500000
   48      H      -8.7926000000     7.8486400000     1.6777700000
   49      H     -13.9634500000     5.1301100000     3.0879300000
   50      H       1.7243000000    -2.2456800000    -1.2001700000
   51      H      -6.3495100000     0.3505800000     2.0154800000
   52      H      -4.2461600000     5.2503300000     1.2188700000
 ----------------------------------------------------------------
 Nuclear Repulsion Energy =  2779.8024211143 hartrees
 There are      111 alpha and      110 beta electrons
 Requested basis set is def2-mSVP
 There are 274 shells and 546 basis functions

 Total QAlloc Memory Limit   4000 MB
 Mega-Array Size      1001 MB
 MEM_STATIC part      1024 MB
 Discretize the solute cavity surface with Lebedev spheres
	Using 302 Lebedev grid points for each H atom
	Using 302 Lebedev grid points for other atoms
	Atomic van der Waals radii will be scaled by 1.20
 Remove points where switching function is < 1.0e-08
 Keep 5573 surface tesserae and discard 10131 interior tesserae
 Molecular Surface Area = 456.653 Angst**2
 A cutoff of  1.0D-11 yielded  16930 shell pairs
 There are     70964 function pairs (     79144 Cartesian)
 
 -------------------------------------------------------
 OpenMP Integral Computing Module                       
 Release: version 1.0, May 2013, Q-Chem Inc. Pittsburgh 
 -------------------------------------------------------
 Integral Job Info:
 Integral job number is                      11
 Integral operator is                         1
 short-range coefficients                     0
 long-range coefficients              100000000
 Omega coefficients                           0
 if combine SR and LR in K                    0
 Integral screening is                        0
 Integral computing path is                   2
 max size of driver memory is            800000
 size of driver memory is                593474
 size of scratch memory is              1809772
 max col of scratch BK array               1296
 max len of scratch array in speh3          155
 max len of scratch index in speh4           18
 max int batch size is                      520
 min int batch size is                       52
 fixed nKL is                                52
 max L of basis functions is                  2
 order of int derivative is                   0
 number of shells is                        274
 number of basis is                         580
 number of cartesian basis is               580
 number of contracted shell pairs         16930
 number of primitive shell pairs          37844
 maxK2 (contraction) of shell pair           25
 max number of K2 of shell pair               1
 max number of CS2 of shell pair           3813
 max number of PS2 of shell pair           6980
 mem total for path MDJ                  686940
 -------------------------------------------------------
 Smallest overlap matrix eigenvalue = 1.85E-04

 Scale SEOQF with 1.000000e-02/1.000000e-02/1.000000e-01

 Standard Electronic Orientation quadrupole field applied
 Nucleus-field energy     =    -0.0000000122 hartrees
 Guess from superposition of atomic densities
 Warning:  Energy on first SCF cycle will be non-variational
 SAD guess density has 220.000000 electrons

 -----------------------------------------------------------------------
  General SCF calculation program by
  Eric Jon Sundstrom, Paul Horn, Yuezhi Mao, Dmitri Zuev, Alec White,
  David Stuck, Shaama M.S., Shane Yost, Joonho Lee, David Small,
  Daniel Levine, Susi Lehtola, Hugh Burton, Evgeny Epifanovsky
 -----------------------------------------------------------------------
 Exchange:     0.4200 Hartree-Fock + 0.5800 PBEh-3c
 Correlation:  1.0000 PBEh-3c
 Using SG-1 standard quadrature grid
 Dispersion:   Grimme D3
 using 4 threads for integral computing
 -------------------------------------------------------
 OpenMP Integral computing Module                
 Release: version 2.0, May 2017, Q-Chem Inc. Pleasanton 
 -------------------------------------------------------
 -------------------------------------------------------
 OpenMP BLAS3 based DFT computing Module                
 Release: version 1.0, May 2013, Q-Chem Inc. Pittsburgh 
 -------------------------------------------------------
 A unrestricted SCF calculation will be
 performed using DIIS
 SCF converges when DIIS error is below 1.0e-08
 ---------------------------------------
  Cycle       Energy         DIIS error
 ---------------------------------------
 Using non-symmetric K matrix
    1   -1288.7766001464      1.84e-02  
    2   -1276.9112847458      1.27e-03  
    3   -1276.9615993261      1.19e-03  
    4   -1277.2003951177      4.09e-04  
    5   -1277.2290087772      1.25e-04  
    6   -1277.2314127541      7.18e-05  
    7   -1277.2323426066      1.60e-05  
    8   -1277.2324503093      9.93e-06  
    9   -1277.2325312225      7.09e-06  
   10   -1277.2325915408      4.72e-06  
   11   -1277.2326249779      3.01e-06  
   12   -1277.2326497986      1.94e-06  
   13   -1277.2326601423      1.09e-06  
   14   -1277.2326629838      4.57e-07  
   15   -1277.2326631614      2.81e-07  
   16   -1277.2326631961      9.28e-08  
   17   -1277.2326632002      5.43e-08  
   18   -1277.2326632012      2.36e-08  
   19   -1277.2326632015      8.25e-09  Convergence criterion met
 ---------------------------------------
 SCF time:   CPU 3752.16s  wall 973.00s 
<S^2> =          0.803880095

************** Final PCM Free Energy Summary **************
 G_electrostatic  =      -0.00000593 hartree =      -0.00372107 kcal/mol
 G_cavitation     =       0.00000000 hartree =       0.00000000 kcal/mol
 G_dispersion     =       0.00000000 hartree =       0.00000000 kcal/mol
 G_repulsion      =       0.00000000 hartree =       0.00000000 kcal/mol
 --------------------------------------------------
 Non-electrostatic Free Energy =       0.00000000 hartree =       0.00000000 kcal/mol
 Total                         =      -0.00000593 hartree =      -0.00372107 kcal/mol
 --------------------------------------------------
 SCF Energy (H0 + V/2)                       =   -1277.23266320 
 Solute Internal Energy (H0)                 =   -1277.23265727 
 Total Free Energy (H0 + V/2 + non-elec)     =   -1277.23266320 hartree
                                             = -801475.59282951 kcal/mol
***********************************************************

 SCF   energy in the final basis set =    -1277.2326632015
 Total energy in the final basis set =    -1277.2326632015
 
 --------------------------------------------------------------
 
                    Orbital Energies (a.u.)
 --------------------------------------------------------------
 
 Alpha MOs
 -- Occupied --
-10.372 -10.372 -10.372 -10.372 -10.367 -10.367 -10.367 -10.367
-10.366 -10.366 -10.365 -10.365 -10.364 -10.364 -10.356 -10.356
-10.354 -10.354 -10.340 -10.340 -10.338 -10.338 -10.338 -10.338
-10.337 -10.337 -10.336 -10.335 -10.310 -10.310 -10.308 -10.308
 -6.806  -6.803  -0.918  -0.918  -0.851  -0.850  -0.828  -0.828
 -0.795  -0.789  -0.749  -0.749  -0.740  -0.739  -0.707  -0.700
 -0.699  -0.692  -0.629  -0.628  -0.625  -0.614  -0.588  -0.577
 -0.564  -0.550  -0.542  -0.537  -0.500  -0.499  -0.483  -0.481
 -0.478  -0.466  -0.465  -0.437  -0.431  -0.426  -0.413  -0.400
 -0.397  -0.390  -0.388  -0.388  -0.387  -0.385  -0.385  -0.385
 -0.374  -0.374  -0.361  -0.360  -0.344  -0.336  -0.322  -0.321
 -0.317  -0.315  -0.301  -0.298  -0.294  -0.294  -0.291  -0.283
 -0.262  -0.253  -0.251  -0.242  -0.233  -0.208  -0.206  -0.203
 -0.203  -0.202  -0.176  -0.158  -0.147  -0.144  -0.044
 -- Virtual --
  0.026   0.060   0.075   0.095   0.103   0.125   0.149   0.166
  0.183   0.185   0.186   0.218   0.232   0.232   0.248   0.248
  0.257   0.269   0.271   0.272   0.277   0.279   0.280   0.294
  0.296   0.301   0.306   0.308   0.309   0.314   0.333   0.346
  0.351   0.354   0.354   0.357   0.364   0.365   0.365   0.369
  0.370   0.375   0.384   0.390   0.391   0.397   0.399   0.400
  0.416   0.418   0.428   0.444   0.451   0.455   0.467   0.468
  0.481   0.487   0.494   0.513   0.515   0.525   0.526   0.534
  0.544   0.554   0.573   0.574   0.591   0.592   0.592   0.599
  0.607   0.611   0.614   0.623   0.624   0.625   0.629   0.632
  0.636   0.642   0.644   0.645   0.653   0.654   0.659   0.666
  0.672   0.674   0.676   0.678   0.681   0.682   0.690   0.692
  0.693   0.697   0.699   0.701   0.705   0.706   0.709   0.712
  0.716   0.725   0.726   0.728   0.739   0.742   0.747   0.747
  0.755   0.762   0.763   0.764   0.766   0.771   0.775   0.791
  0.794   0.796   0.808   0.816   0.822   0.822   0.828   0.831
  0.836   0.847   0.848   0.850   0.854   0.863   0.868   0.876
  0.889   0.892   0.910   0.918   0.928   0.930   0.933   0.948
  0.954   0.960   0.961   0.963   0.969   0.994   0.999   1.001
  1.011   1.017   1.018   1.027   1.030   1.034   1.048   1.050
  1.051   1.053   1.063   1.069   1.084   1.088   1.098   1.100
  1.101   1.105   1.112   1.116   1.129   1.132   1.132   1.136
  1.155   1.159   1.160   1.173   1.183   1.205   1.207   1.216
  1.230   1.231   1.234   1.236   1.238   1.246   1.266   1.274
  1.275   1.286   1.299   1.314   1.346   1.350   1.353   1.357
  1.359   1.367   1.393   1.397   1.404   1.405   1.409   1.418
  1.426   1.435   1.437   1.451   1.455   1.471   1.476   1.478
  1.479   1.491   1.500   1.503   1.507   1.509   1.513   1.518
  1.537   1.539   1.543   1.543   1.556   1.589   1.605   1.606
  1.608   1.609   1.609   1.617   1.621   1.623   1.624   1.626
  1.633   1.638   1.640   1.652   1.660   1.664   1.672   1.673
  1.676   1.705   1.709   1.714   1.723   1.739   1.743   1.757
  1.790   1.818   1.828   1.872   1.877   1.916   1.919   1.920
  1.925   1.926   1.930   1.931   1.932   1.949   1.952   2.002
  2.007   2.014   2.029   2.031   2.031   2.045   2.052   2.060
  2.060   2.065   2.067   2.102   2.105   2.116   2.127   2.130
  2.162   2.172   2.173   2.185   2.186   2.198   2.199   2.205
  2.235   2.244   2.247   2.248   2.252   2.259   2.261   2.268
  2.273   2.273   2.276   2.296   2.307   2.327   2.327   2.355
  2.360   2.365   2.367   2.373   2.396   2.403   2.419   2.420
  2.421   2.427   2.433   2.435   2.442   2.445   2.445   2.456
  2.462   2.479   2.482   2.485   2.493   2.498   2.500   2.506
  2.523   2.526   2.529   2.544   2.565   2.569   2.573   2.575
  2.614   2.633   2.652   2.690   2.707   2.721   2.728   2.741
  2.742   2.782   2.797   2.802   2.806   2.817   2.821   2.836
  2.837   2.881   2.882   2.885   2.889   2.890   2.893   2.901
  2.901   2.912   2.919   2.923   2.925   2.942   2.945   2.961
  2.973   2.973   2.982   3.003   3.013   3.049   3.077   3.100
  3.104   3.114   3.130   3.169   3.170   3.173   3.319   3.338
  3.342   3.516   3.541   3.550   3.590   3.626   3.626   3.774
  3.791   9.446   9.573  13.238  13.266  13.605  13.612  13.618
 13.621  13.809  13.820  13.903  13.912  13.932  13.948  14.070
 14.082  14.082  14.098  14.161  14.189  14.250  14.251  14.322
 14.350  14.404  14.426  14.431  14.431  14.567  14.572  14.664
 14.677  14.718  14.718
 
 Beta MOs
 -- Occupied --
-10.373 -10.373 -10.373 -10.373 -10.367 -10.367 -10.365 -10.365
-10.365 -10.365 -10.363 -10.363 -10.363 -10.363 -10.357 -10.357
-10.355 -10.355 -10.341 -10.340 -10.338 -10.338 -10.337 -10.337
-10.337 -10.337 -10.335 -10.334 -10.310 -10.309 -10.307 -10.307
 -6.804  -6.801  -0.918  -0.918  -0.849  -0.848  -0.827  -0.827
 -0.794  -0.789  -0.748  -0.748  -0.739  -0.738  -0.704  -0.699
 -0.698  -0.690  -0.627  -0.626  -0.624  -0.614  -0.587  -0.576
 -0.560  -0.548  -0.542  -0.538  -0.499  -0.498  -0.482  -0.478
 -0.477  -0.464  -0.464  -0.436  -0.430  -0.426  -0.410  -0.398
 -0.397  -0.389  -0.388  -0.388  -0.387  -0.384  -0.383  -0.383
 -0.374  -0.373  -0.361  -0.359  -0.343  -0.335  -0.320  -0.317
 -0.315  -0.311  -0.301  -0.298  -0.290  -0.290  -0.290  -0.283
 -0.255  -0.251  -0.249  -0.240  -0.232  -0.204  -0.203  -0.199
 -0.199  -0.199  -0.163  -0.150  -0.143  -0.136
 -- Virtual --
  0.030   0.044   0.082   0.083   0.096   0.105   0.125   0.161
  0.175   0.184   0.192   0.195   0.225   0.232   0.232   0.248
  0.249   0.257   0.270   0.272   0.277   0.279   0.280   0.281
  0.298   0.300   0.301   0.307   0.309   0.310   0.316   0.340
  0.351   0.352   0.355   0.355   0.358   0.364   0.365   0.365
  0.370   0.376   0.377   0.385   0.390   0.394   0.399   0.400
  0.402   0.416   0.418   0.429   0.447   0.452   0.455   0.468
  0.469   0.485   0.495   0.503   0.514   0.517   0.528   0.529
  0.540   0.552   0.555   0.574   0.576   0.593   0.594   0.595
  0.600   0.608   0.612   0.615   0.625   0.626   0.627   0.631
  0.633   0.640   0.642   0.645   0.646   0.654   0.655   0.660
  0.666   0.675   0.676   0.676   0.680   0.684   0.684   0.691
  0.693   0.694   0.699   0.699   0.701   0.706   0.707   0.709
  0.711   0.716   0.726   0.729   0.729   0.742   0.743   0.750
  0.751   0.758   0.763   0.764   0.766   0.769   0.772   0.778
  0.792   0.793   0.796   0.809   0.816   0.823   0.823   0.829
  0.833   0.838   0.849   0.850   0.852   0.855   0.863   0.868
  0.877   0.890   0.893   0.911   0.921   0.929   0.932   0.934
  0.948   0.957   0.961   0.962   0.966   0.973   0.995   1.000
  1.002   1.013   1.019   1.019   1.027   1.031   1.034   1.048
  1.050   1.051   1.054   1.064   1.069   1.084   1.088   1.098
  1.100   1.101   1.105   1.112   1.117   1.130   1.132   1.132
  1.137   1.155   1.159   1.160   1.173   1.183   1.206   1.208
  1.217   1.230   1.232   1.235   1.237   1.239   1.246   1.268
  1.275   1.276   1.287   1.301   1.316   1.347   1.351   1.354
  1.358   1.360   1.367   1.394   1.398   1.405   1.407   1.410
  1.419   1.430   1.436   1.439   1.454   1.456   1.473   1.477
  1.479   1.481   1.492   1.502   1.504   1.508   1.511   1.516
  1.519   1.538   1.541   1.545   1.546   1.558   1.591   1.606
  1.607   1.611   1.611   1.611   1.618   1.623   1.624   1.626
  1.629   1.637   1.640   1.641   1.653   1.662   1.664   1.673
  1.676   1.677   1.706   1.711   1.715   1.723   1.740   1.744
  1.759   1.791   1.819   1.828   1.873   1.880   1.917   1.921
  1.921   1.926   1.927   1.931   1.933   1.934   1.950   1.952
  2.003   2.008   2.014   2.031   2.034   2.035   2.051   2.060
  2.061   2.061   2.067   2.068   2.106   2.107   2.118   2.131
  2.134   2.164   2.172   2.173   2.184   2.185   2.200   2.201
  2.207   2.237   2.244   2.249   2.250   2.254   2.261   2.263
  2.267   2.274   2.275   2.276   2.296   2.309   2.328   2.329
  2.359   2.361   2.365   2.372   2.375   2.398   2.405   2.420
  2.422   2.423   2.432   2.435   2.438   2.443   2.446   2.453
  2.459   2.463   2.481   2.484   2.487   2.495   2.500   2.500
  2.509   2.525   2.527   2.531   2.547   2.566   2.570   2.574
  2.576   2.615   2.635   2.657   2.690   2.708   2.723   2.728
  2.742   2.743   2.783   2.798   2.802   2.807   2.818   2.822
  2.837   2.837   2.882   2.883   2.885   2.889   2.892   2.895
  2.901   2.902   2.912   2.920   2.924   2.925   2.943   2.945
  2.961   2.973   2.974   2.984   3.003   3.014   3.049   3.077
  3.100   3.105   3.114   3.132   3.169   3.170   3.174   3.320
  3.338   3.342   3.516   3.541   3.551   3.590   3.626   3.626
  3.775   3.791   9.449   9.576  13.238  13.266  13.605  13.612
 13.618  13.622  13.809  13.820  13.903  13.913  13.932  13.948
 14.071  14.083  14.084  14.099  14.161  14.189  14.251  14.251
 14.322  14.350  14.405  14.427  14.431  14.431  14.568  14.572
 14.665  14.677  14.718  14.718
 --------------------------------------------------------------
 
          Ground-State Mulliken Net Atomic Charges

     Atom                 Charge (a.u.)    Spin (a.u.)
  --------------------------------------------------------
      1 C                    -0.102272       0.040733
      2 C                    -0.096242       0.038356
      3 B                     0.072397       0.260296
      4 C                    -0.096040       0.038770
      5 C                    -0.102161       0.040613
      6 B                     0.074774       0.262353
      7 C                    -0.373736      -0.056269
      8 C                     0.079521       0.072951
      9 C                     0.077729       0.072118
     10 C                    -0.369647      -0.055315
     11 C                    -0.374619      -0.056214
     12 C                     0.079631       0.072826
     13 C                     0.076871       0.071843
     14 C                    -0.368412      -0.055022
     15 H                     0.181982       0.002439
     16 C                     0.129800      -0.059649
     17 C                     0.133858      -0.059463
     18 C                    -0.367522       0.107090
     19 C                    -0.222530      -0.076914
     20 C                    -0.364439       0.123456
     21 C                     0.245593      -0.059306
     22 C                    -0.363685       0.124159
     23 C                    -0.222904      -0.076602
     24 H                     0.197031       0.003752
     25 H                     0.190125      -0.007526
     26 C                     0.049404       0.031264
     27 H                     0.181745       0.002358
     28 C                    -0.370092       0.107049
     29 H                     0.196981       0.003772
     30 H                     0.198633      -0.006369
     31 H                     0.181878       0.002432
     32 C                     0.133369      -0.059632
     33 C                    -0.363821       0.124461
     34 C                    -0.222863      -0.076858
     35 C                    -0.368045       0.107415
     36 H                     0.197022       0.003764
     37 H                     0.198795      -0.006394
     38 H                     0.181853       0.002333
     39 H                     0.198852      -0.006375
     40 C                     0.049899       0.031176
     41 C                     0.129218      -0.059472
     42 C                    -0.370919       0.106664
     43 C                    -0.222410      -0.076642
     44 C                    -0.364397       0.122789
     45 C                     0.245458      -0.059088
     46 H                     0.197056       0.003761
     47 H                     0.190200      -0.007484
     48 H                     0.198769      -0.006343
     49 H                     0.190000      -0.007572
     50 H                     0.189959      -0.007589
     51 H                     0.027950      -0.019520
     52 H                     0.030401      -0.019377
  --------------------------------------------------------
  Sum of atomic charges =    -1.000000
  Sum of spin   charges =     1.000000

 -----------------------------------------------------------------
                    Cartesian Multipole Moments
 -----------------------------------------------------------------
    Charge (ESU x 10^10)
                -4.8032
    Dipole Moment (Debye)
         X      25.7855      Y     -13.2590      Z      -6.7738
       Tot      29.7755
    Quadrupole Moments (Debye-Ang)
        XX    -399.5940     XY     104.0844     YY    -240.9197
        XZ      48.6152     YZ     -29.4070     ZZ    -224.7143
    Octopole Moments (Debye-Ang^2)
       XXX    4982.7179    XXY   -1445.3672    XYY    1483.2193
       YYY   -1778.0574    XXZ    -666.6811    XYZ     245.9940
       YYZ    -375.2627    XZZ    1261.1937    YZZ    -646.5057
       ZZZ    -807.1179
    Hexadecapole Moments (Debye-Ang^3)
      XXXX  -77148.5743   XXXY   22683.1079   XXYY  -16825.7495
      XYYY   15772.4384   YYYY  -17352.9264   XXXZ   10939.3710
      XXYZ   -3319.5187   XYYZ    3617.9693   YYYZ   -3963.5540
      XXZZ  -12587.8702   XYZZ    5763.3905   YYZZ   -4118.0104
      XZZZ    8283.4323   YZZZ   -3793.1083   ZZZZ   -4403.8698
 -----------------------------------------------------------------
 Calculating analytic gradient of the SCF energy
  2.439212764711052E-004  2.438999879483762E-004
  2.439137878880018E-004  2.439074984859437E-004
  2.439035560558811E-004  2.439176551697207E-004
  2.439148792494985E-004  2.439063908684283E-004
  2.438982719984390E-004  2.439230072182155E-004
  2.439067188493605E-004  2.439144924341399E-004
  2.439210735701346E-004  2.439001972244257E-004
  2.439377787110961E-004  2.438835059512408E-004
  2.439015122526257E-004  2.439197079456899E-004
  2.438974844609111E-004  2.439237740659674E-004
  2.439066497700138E-004  2.439146380272414E-004
  2.439113043025538E-004  2.439099100240915E-004
  2.439046409975269E-004  2.439166256533809E-004
  2.439219036935042E-004  2.438993758473582E-004
  2.439082289140296E-004  2.439129867152440E-004
  2.438975847324181E-004  2.439236875234279E-004
  2.438833376304004E-004  2.439379479646273E-004
  2.439100765145754E-004  2.439111426279909E-004
  2.438938875993022E-004  2.439273859699987E-004
  2.438936933506744E-004  2.439275970812513E-004
  2.439153483421636E-004  2.439058777513811E-004
  2.439126859018129E-004  2.439085872433979E-004
  2.439153957726593E-004  2.439058844361925E-004
  2.439083285180560E-004  2.439129000485757E-004
  2.439073306641847E-004  2.439139389409818E-004
  2.439050837831740E-004  2.439161992681498E-004
  2.439104199235107E-004  2.439108081154923E-004
  2.439129280819455E-004  2.439083499110931E-004
  2.439347202464045E-004  2.438865644224432E-004
  2.439086491542803E-004  2.439125773951225E-004
  2.439094111757409E-004  2.439118745556132E-004
  2.438863458368930E-004  2.439349381275704E-004
  2.439123739130811E-004  2.439088469351838E-004
  2.439120331491417E-004  2.439092481838187E-004
  2.439153701196584E-004  2.439059108560476E-004
  2.439081764771348E-004  2.439130433313910E-004
  2.439081347793082E-004  2.439131476477779E-004
  2.439044731379434E-004  2.439168051880537E-004
  2.439101843090253E-004  2.439110357105777E-004
  2.439259195176506E-004  2.438953607240779E-004
  2.439281689612037E-004  2.438931197730456E-004
  2.439037520688300E-004  2.439174680114753E-004
  2.439106709560885E-004  2.439106284455774E-004
  2.439074906822145E-004  2.439137955065547E-004
  2.439125142195451E-004  2.439087491129133E-004
  2.438980256288347E-004  2.439232465931463E-004
  2.439092391960882E-004  2.439120523395116E-004
  2.439152223107137E-004  2.439060150238571E-004
  2.439238472391676E-004  2.438974321282545E-004
  2.439129523875585E-004  2.439083387771184E-004
  2.439068417829566E-004  2.439143890401121E-004
  2.439036776952483E-004  2.439176088734633E-004
  2.439245530869059E-004  2.438967300118521E-004
  2.439096514918513E-004  2.439115905718387E-004
  2.439024473767855E-004  2.439188222525752E-004
  2.439211584966855E-004  2.439001346735725E-004
  2.439153167148339E-004  2.439059313028817E-004
  2.439164973292282E-004  2.439047771926726E-004
  2.439034775453022E-004  2.439178011409155E-004
  2.439087631787522E-004  2.439124880639580E-004
  2.438956436284303E-004  2.439256342128181E-004
  2.439189614185174E-004  2.439023283217445E-004
  2.439181119556511E-004  2.439031359572698E-004
  2.439040036254758E-004  2.439172789866491E-004
  2.439169507547110E-004  2.439043261929073E-004
  2.439115002783203E-004  2.439097448928394E-004
  2.439214458931548E-004  2.438998290187208E-004
  2.439011955171580E-004  2.439200972343955E-004
  2.439109790264564E-004  2.439102640561496E-004
  2.439039173770007E-004  2.439173508329488E-004
  2.439107531853707E-004  2.439105344841444E-004
  2.439127634786753E-004  2.439085018581473E-004
  2.439095138844780E-004  2.439117653843664E-004
  2.439159937260984E-004  2.439052833213310E-004
  2.439123522609223E-004  2.439089121069932E-004
  2.439162211738180E-004  2.439050462235862E-004
  2.439072700189768E-004  2.439140103187950E-004
  2.439082238893173E-004  2.439130138219836E-004
  2.439116556179920E-004  2.439096413242622E-004
  2.439142667866003E-004  2.439070209863648E-004
  2.439119787338321E-004  2.439092859786147E-004
  2.439155770204472E-004  2.439057022282899E-004
  2.438957402414714E-004  2.439255442450466E-004
  2.439087110464411E-004  2.439125376009681E-004
  2.439171863727638E-004  2.439040798909164E-004
  2.439102651664388E-004  2.439110224373162E-004
  2.439089716571275E-004  2.439122946656719E-004
  2.439102476910283E-004  2.439110485007475E-004
  2.439130902483899E-004  2.439081960424740E-004
  2.439110392614403E-004  2.439102340268224E-004
  2.439090684651660E-004  2.439122236014276E-004
  2.439080923931972E-004  2.439131994549430E-004
  2.439127610995312E-004  2.439085036121117E-004
  2.439040350264530E-004  2.439172363064127E-004
  2.439226598079951E-004  2.438986337206699E-004
  2.439131328022146E-004  2.439081036899370E-004
  2.439193603521614E-004  2.439019158685255E-004
  2.439097732098682E-004  2.439115039189686E-004
  2.439077332121727E-004  2.439135180941524E-004
  2.438979114321586E-004  2.439233615901225E-004
  2.439120951637959E-004  2.439091948482219E-004
  2.439170771092044E-004  2.439041705576579E-004
  2.439247497362848E-004  2.438965283310456E-004
  2.439148719659444E-004  2.439064136055129E-004
  2.439054308248396E-004  2.439158172185736E-004
  2.439152526948450E-004  2.439060256534188E-004
  2.439053472315223E-004  2.439159280310466E-004
  2.439096986768572E-004  2.439115687829150E-004
  2.439087138320355E-004  2.439125660555022E-004
  2.439101818657285E-004  2.439111231234873E-004
  2.439117067209503E-004  2.439095642977692E-004
  2.439132642075208E-004  2.439080316186401E-004
  2.439136237175462E-004  2.439076674409370E-004
  2.439113736104807E-004  2.439098887448054E-004
  2.439117274591933E-004  2.439095694428949E-004
  2.439086406097048E-004  2.439126466552900E-004
  2.439103269630998E-004  2.439109448649895E-004
  2.439041086768729E-004  2.439171671574459E-004
  2.439128906707871E-004  2.439083880646906E-004
  2.439113961941863E-004  2.439098347817333E-004
  2.439184242217254E-004  2.439028535079503E-004
  2.438996151166812E-004  2.439216766903294E-004
  2.439105913561919E-004  2.439106404269030E-004
  2.438964862604505E-004  2.439248004127418E-004
  2.439050426247078E-004  2.439162407788672E-004
  2.439150755765577E-004  2.439061668984456E-004
  2.439246608448070E-004  2.438966166492569E-004
  2.439108764938723E-004  2.439104124005945E-004
  2.439093321504067E-004  2.439119123229235E-004
  2.439014882857244E-004  2.439197953613955E-004
  2.439106251346472E-004  2.439106500798640E-004
  2.439131574808262E-004  2.439080880900748E-004
  2.439280354676467E-004  2.438932494937408E-004
  2.439038632663819E-004  2.439174250711723E-004
  2.439095706368808E-004  2.439116715820076E-004
  2.439060931829922E-004  2.439151843326435E-004
  2.439155793568331E-004  2.439056959345550E-004
  2.439119643430324E-004  2.439093028781495E-004
  2.439158556131788E-004  2.439054310832560E-004
  2.439131168335224E-004  2.439081575291310E-004
  2.439105142644659E-004  2.439107453595308E-004
  2.439128501461942E-004  2.439084330430327E-004
  2.439120495000251E-004  2.439092530656536E-004
  2.439108048179701E-004  2.439104652107537E-004
  2.439129501601830E-004  2.439083356432232E-004
  2.439056909889263E-004  2.439155844195596E-004
  2.439121135058369E-004  2.439091458794538E-004
  2.439062183379316E-004  2.439150619035286E-004
  2.439086714673310E-004  2.439126044747944E-004
  2.439135863136716E-004  2.439076780966515E-004
  2.439133084072405E-004  2.439079863057342E-004
  2.439156407949519E-004  2.439056564511718E-004
  2.439117418864551E-004  2.439095246169446E-004
  2.439088525240217E-004  2.439124422820132E-004
  2.439061368189621E-004  2.439151599516825E-004
  2.439117012700155E-004  2.439095653367353E-004
 Gradient of SCF Energy
            1           2           3           4           5           6
    1  -0.0216404  -0.0085947  -0.0112627   0.0200164   0.0045298   0.0158575
    2  -0.0128882   0.0229705  -0.0302785   0.0099048  -0.0248787   0.0327567
    3   0.0044407  -0.0027596   0.0121221  -0.0095461  -0.0032984   0.0005808
            7           8           9          10          11          12
    1   0.0038949  -0.0122648   0.0144140  -0.0102720   0.0127449  -0.0186670
    2   0.0202113  -0.0358875   0.0294292  -0.0130444   0.0163777  -0.0325524
    3  -0.0001970   0.0038810  -0.0060557   0.0049983  -0.0033535   0.0083054
           13          14          15          16          17          18
    1   0.0090616  -0.0012967  -0.0022581  -0.0029973  -0.0017039  -0.0003070
    2   0.0308523  -0.0166994   0.0006350  -0.0526846   0.0514389  -0.0144415
    3  -0.0071473   0.0033810  -0.0001739  -0.0000417  -0.0078150   0.0026341
           19          20          21          22          23          24
    1   0.0080110   0.0014392  -0.0218302  -0.0056639  -0.0043833   0.0009869
    2   0.0331194  -0.0402344   0.0120641   0.0388598  -0.0323972  -0.0004937
    3  -0.0024275  -0.0015274   0.0096157  -0.0057626   0.0068128  -0.0001221
           25          26          27          28          29          30
    1  -0.0007452  -0.0242676   0.0025277   0.0024054  -0.0005458  -0.0010756
    2  -0.0000916   0.0099497  -0.0005861   0.0160260   0.0004922  -0.0000469
    3   0.0002503   0.0091577  -0.0014950  -0.0002609   0.0001861   0.0004581
           31          32          33          34          35          36
    1   0.0019507   0.0369499   0.0306147  -0.0191926  -0.0091044  -0.0008488
    2  -0.0012502   0.0348803   0.0231534  -0.0258745  -0.0100608   0.0004123
    3  -0.0011079  -0.0139536  -0.0120112   0.0075662   0.0038934   0.0002934
           37          38          39          40          41          42
    1  -0.0005192  -0.0021388   0.0016065   0.0233526  -0.0356481   0.0104707
    2   0.0014375   0.0017325   0.0003728  -0.0128786  -0.0358102   0.0125909
    3   0.0003196  -0.0001450  -0.0001994  -0.0033030   0.0126994  -0.0038225
           43          44          45          46          47          48
    1   0.0183690  -0.0293467   0.0254050   0.0006852   0.0005195   0.0009029
    2   0.0278638  -0.0248028  -0.0089098  -0.0000940  -0.0005260  -0.0009463
    3  -0.0082795   0.0099374  -0.0027701  -0.0002414  -0.0000871  -0.0001819
           49          50          51          52
    1   0.0010188  -0.0005045   0.0033695  -0.0040247
    2  -0.0000720   0.0007053   0.0090006  -0.0088064
    3  -0.0002185   0.0001688  -0.0038005   0.0004031
 Max gradient component =       5.268E-02
 RMS gradient           =       1.554E-02
 Computing fast IEFPCM-SWIG gradient.
 Updating gradient with PCM contributions...
 -- total gradient after adding PCM contribution --
---------------------------------------------------
  Atom         X              Y              Z     
---------------------------------------------------
   1      -0.021640      -0.012888       0.004441
   2      -0.008594       0.022971      -0.002760
   3      -0.011262      -0.030278       0.012122
   4       0.020016       0.009905      -0.009546
   5       0.004530      -0.024879      -0.003298
   6       0.015857       0.032756       0.000581
   7       0.003895       0.020210      -0.000197
   8      -0.012263      -0.035887       0.003880
   9       0.014415       0.029427      -0.006056
  10      -0.010271      -0.013044       0.004998
  11       0.012744       0.016377      -0.003353
  12      -0.018668      -0.032551       0.008305
  13       0.009060       0.030852      -0.007147
  14      -0.001297      -0.016698       0.003381
  15      -0.002257       0.000637      -0.000174
  16      -0.002999      -0.052685      -0.000041
  17      -0.001702       0.051439      -0.007815
  18      -0.000307      -0.014441       0.002634
  19       0.008011       0.033120      -0.002427
  20       0.001439      -0.040235      -0.001527
  21      -0.021831       0.012065       0.009616
  22      -0.005664       0.038861      -0.005763
  23      -0.004383      -0.032398       0.006813
  24       0.000986      -0.000495      -0.000122
  25      -0.000744      -0.000092       0.000250
  26      -0.024267       0.009949       0.009158
  27       0.002527      -0.000588      -0.001495
  28       0.002406       0.016026      -0.000261
  29      -0.000545       0.000493       0.000186
  30      -0.001076      -0.000045       0.000458
  31       0.001952      -0.001248      -0.001108
  32       0.036949       0.034882      -0.013953
  33       0.030615       0.023154      -0.012011
  34      -0.019193      -0.025875       0.007566
  35      -0.009104      -0.010061       0.003893
  36      -0.000849       0.000411       0.000293
  37      -0.000521       0.001437       0.000320
  38      -0.002140       0.001730      -0.000145
  39       0.001607       0.000371      -0.000199
  40       0.023352      -0.012878      -0.003303
  41      -0.035647      -0.035812       0.012699
  42       0.010470       0.012591      -0.003822
  43       0.018369       0.027864      -0.008280
  44      -0.029347      -0.024804       0.009938
  45       0.025406      -0.008910      -0.002770
  46       0.000685      -0.000092      -0.000242
  47       0.000518      -0.000525      -0.000087
  48       0.000904      -0.000945      -0.000182
  49       0.001017      -0.000072      -0.000218
  50      -0.000503       0.000705       0.000168
  51       0.003368       0.008998      -0.003800
  52      -0.004024      -0.008804       0.000403
---------------------------------------------------
 Number of fixed atoms: 0
 Gradient time:  CPU 337.66 s  wall 126.92 s
 Geometry Optimization Parameters
   NAtoms,    NIC,     NZ,  NCons,   NDum,   NFix, NCnnct, MaxDiis
       52     434       0       0       0       0       0       0


** GEOMETRY OPTIMIZATION IN DELOCALIZED INTERNAL COORDINATES **
   Searching for a Minimum

   Optimization Cycle:   1

                       Coordinates (Angstroms)
     ATOM                X               Y               Z
      1  C        -6.2266800000    4.0061400000    1.7760100000
      2  C        -6.7673000000    2.7064100000    2.0202900000
      3  B        -5.8788300000    1.4261700000    1.8722600000
      4  C        -4.4045200000    1.5864200000    1.3714700000
      5  C        -3.8408600000    2.8816600000    1.1566600000
      6  B        -4.7056200000    4.1759900000    1.4008800000
      7  C        -2.5191500000    3.0060600000    0.6812100000
      8  C        -1.8097600000    1.8412100000    0.4081700000
      9  C        -2.3682200000    0.5874500000    0.6128900000
     10  C        -3.6533800000    0.4306400000    1.1021700000
     11  C        -7.0644200000    5.1401500000    1.8305100000
     12  C        -8.4107700000    4.9457900000    2.1245600000
     13  C        -8.9158400000    3.6831300000    2.4006700000
     14  C        -8.1211300000    2.5514800000    2.3573100000
     15  H        -6.6848200000    6.1328800000    1.6196400000
     16  C        -0.4710800000    1.6341200000   -0.1419100000
     17  C       -10.3402100000    3.8225700000    2.6640200000
     18  C       -11.3370000000    2.9083600000    3.0007800000
     19  C         1.7294800000    1.9383400000   -1.0776800000
     20  C         1.8818200000    0.5269500000   -1.1780800000
     21  C         0.8379700000   -0.3167900000   -0.7509200000
     22  C       -12.9486000000    4.7736100000    2.9731300000
     23  C       -12.6564400000    3.3938100000    3.1606800000
     24  H       -13.4499300000    2.7059600000    3.4209000000
     25  H         2.7928300000    0.1088900000   -1.5855100000
     26  C        -0.2958700000    0.2810300000   -0.2476200000
     27  H        -4.0696100000   -0.5600400000    1.2417400000
     28  C         0.5394200000    2.5026000000   -0.5546700000
     29  H         2.5281300000    2.5882600000   -1.4096400000
     30  H         0.4149500000    3.5753400000   -0.4835100000
     31  H        -2.0732100000    3.9766900000    0.4996900000
     32  C        -1.3904400000   -0.4065800000    0.1929500000
     33  C         0.8604300000   -1.7254100000   -0.8085700000
     34  C        -0.2670900000   -2.4649500000   -0.3542400000
     35  C        -1.4087500000   -1.8000000000    0.1532800000
     36  H        -0.2562900000   -3.5457900000   -0.4016300000
     37  H        -2.2736200000   -2.3549400000    0.4937000000
     38  H        -8.5492300000    1.5741100000    2.5457300000
     39  H       -11.1072700000    1.8588400000    3.1333200000
     40  C       -10.6419600000    5.1442900000    2.5032300000
     41  C        -9.5346200000    5.8813900000    2.1802500000
     42  C        -9.6540900000    7.2522900000    1.9489000000
     43  C       -10.9402000000    7.8373900000    2.0631300000
     44  C       -12.0711100000    7.0458900000    2.4091600000
     45  C       -11.9099500000    5.6651900000    2.6344500000
     46  H       -11.0642600000    8.8964500000    1.8798800000
     47  H       -13.0481900000    7.5038900000    2.4894500000
     48  H        -8.7926000000    7.8486400000    1.6777700000
     49  H       -13.9634500000    5.1301100000    3.0879300000
     50  H         1.7243000000   -2.2456800000   -1.2001700000
     51  H        -6.3495100000    0.3505800000    2.0154800000
     52  H        -4.2461600000    5.2503300000    1.2188700000
   Point Group: c1    Number of degrees of freedom:   150


   Energy is  -1277.232663202


 Attempting to Generate Delocalized Internal Coordinates

150 Hessian modes will be used to form the next step
  Hessian Eigenvalues:
     0.008832    0.009593    0.010314    0.014311    0.015405    0.016387
     0.017212    0.017686    0.018208    0.019008    0.019078    0.019698
     0.019718    0.019771    0.019789    0.019838    0.019860    0.020215
     0.020217    0.020332    0.020334    0.020436    0.020451    0.020461
     0.020470    0.020963    0.020985    0.021082    0.021094    0.021665
     0.021717    0.021856    0.021889    0.022052    0.022070    0.022299
     0.022301    0.022323    0.022405    0.022790    0.022801    0.022960
     0.022988    0.023197    0.023265    0.023578    0.023596    0.025310
     0.025311    0.158652    0.159291    0.159881    0.159892    0.159901
     0.159912    0.159984    0.159993    0.159994    0.159995    0.159995
     0.159996    0.159997    0.159998    0.159998    0.159998    0.159999
     0.160000    0.220661    0.220661    0.222288    0.222292    0.228974
     0.231793    0.234123    0.234140    0.234150    0.236805    0.237825
     0.237838    0.239794    0.241409    0.248922    0.248954    0.249486
     0.249598    0.249660    0.249665    0.249733    0.249846    0.249873
     0.254367    0.255380    0.259669    0.259837    0.262136    0.263283
     0.344074    0.344770    0.350631    0.352094    0.355637    0.355691
     0.355719    0.355768    0.356919    0.356924    0.357204    0.357214
     0.357443    0.357544    0.357618    0.357619    0.357673    0.357697
     0.357771    0.357832    0.369192    0.374845    0.375188    0.389220
     0.402008    0.402063    0.402567    0.402679    0.414816    0.415064
     0.415279    0.415637    0.421626    0.423669    0.432166    0.432295
     0.432332    0.432379    0.441411    0.441572    0.456395    0.456817
     0.457877    0.458083    0.462706    0.463346    0.466380    0.466531
     0.476652    0.477209    0.487858    0.488201    0.492666    0.493029

 Minimum Search - Taking Simple RFO Step
 Searching for Lamda that Minimizes Along All modes
 Value Taken    Lamda =  -0.04007244
 Calculated Step too Large.  Step scaled by  0.912514
 Step Taken.  Stepsize is  0.300000

                             Maximum     Tolerance    Cnvgd?
         Gradient           0.061072      0.000075      NO
         Displacement       0.116821      0.001200      NO
         Energy change     *********      0.000000      NO


 New Cartesian Coordinates Obtained by Inverse Iteration

 Displacement from previous Coordinates is:  0.465641
 Adding empirical dispersion correction 
 ----------------------------------------------------------------
 Doing -D3(BJ) with
 s6 =   1.00000
 s8 =   0.00000
 a1 =   0.48600
 a2 =   4.50000
 -D3 energy including 3body term =     -0.0450793793 hartrees
 ----------------------------------------------------------------
 Adding gCP correction 
 ----------------------------------------------------------------
 gCP energy =      0.0636208648 hartrees
 ----------------------------------------------------------------
             Standard Nuclear Orientation (Angstroms)
    I     Atom           X                Y                Z
 ----------------------------------------------------------------
    1      C      -6.2044765797     4.0130673514     1.7583328464
    2      C      -6.7397937466     2.7141399747     2.0100750522
    3      B      -5.8648952702     1.4615438462     1.8563814629
    4      C      -4.4157665895     1.6112902670     1.3718692560
    5      C      -3.8536107646     2.9039804659     1.1494951368
    6      B      -4.7150834564     4.1685215503     1.3741577239
    7      C      -2.5320040932     3.0126957357     0.6778178334
    8      C      -1.8019676096     1.8670344134     0.4069621857
    9      C      -2.3745705034     0.5896322639     0.6194562467
   10      C      -3.6587620850     0.4622679154     1.1067743964
   11      C      -7.0519072518     5.1361540839     1.8197368170
   12      C      -8.3942308768     4.9687671925     2.1181529490
   13      C      -8.9045395297     3.6789955070     2.4015263223
   14      C      -8.0908605333     2.5671179711     2.3502623682
   15      H      -6.6584769355     6.1229211551     1.6051749490
   16      C      -0.4576074116     1.6589470538    -0.1400145493
   17      C     -10.3347035334     3.7998470598     2.6655655429
   18      C     -11.3394512081     2.9098914123     2.9904246484
   19      C       1.7388273869     1.8925633616    -1.0703129092
   20      C       1.8987283037     0.5169964398    -1.1729374111
   21      C       0.8598910181    -0.3407296685    -0.7523512887
   22      C     -12.9602368252     4.7465180814     2.9775780740
   23      C     -12.6498995688     3.4041086084     3.1459909178
   24      H     -13.4443132365     2.7138975803     3.3992106066
   25      H       2.8157092104     0.1103090185    -1.5806895173
   26      C      -0.2823172984     0.2742705685    -0.2454997350
   27      H      -4.0936666745    -0.5195285409     1.2577136245
   28      C       0.5651684373     2.4840821072    -0.5579772606
   29      H       2.5448209850     2.5333435758    -1.4029052538
   30      H       0.4722365061     3.5607359535    -0.5013929667
   31      H      -2.1014548329     3.9908039825     0.4984110555
   32      C      -1.4079312141    -0.4205752611     0.2023095997
   33      C       0.8484715605    -1.7532783407    -0.8011441675
   34      C      -0.2672470605    -2.4514654609    -0.3574951902
   35      C      -1.4095694888    -1.8004806384     0.1494040263
   36      H      -0.2593987937    -3.5327074310    -0.4083455621
   37      H      -2.2670461594    -2.3729784561     0.4801938981
   38      H      -8.4993719889     1.5803967758     2.5386296334
   39      H     -11.1322720934     1.8552929658     3.1200936140
   40      C     -10.6521009321     5.1497497219     2.5099810864
   41      C      -9.5222612312     5.9073453243     2.1814095651
   42      C      -9.6847403054     7.2604813646     1.9666746665
   43      C     -10.9772023671     7.8136282944     2.0922008753
   44      C     -12.0880150962     7.0503159630     2.4248544855
   45      C     -11.9400193349     5.6652260490     2.6457237990
   46      H     -11.1116668361     8.8730487580     1.9175941962
   47      H     -13.0611789047     7.5185768876     2.5048779439
   48      H      -8.8451324084     7.8874350022     1.6970718576
   49      H     -13.9835196814     5.0803050084     3.0971997807
   50      H       1.7012298139    -2.2964843047    -1.1886233295
   51      H      -6.3356978402     0.3723954178     2.0277694633
   52      H      -4.2488250705     5.2569060725     1.1916006344
 ----------------------------------------------------------------
 Nuclear Repulsion Energy =  2778.9749692031 hartrees
 There are      111 alpha and      110 beta electrons
 Discretize the solute cavity surface with Lebedev spheres
	Using 302 Lebedev grid points for each H atom
	Using 302 Lebedev grid points for other atoms
	Atomic van der Waals radii will be scaled by 1.20
 Remove points where switching function is < 1.0e-08
 Keep 5592 surface tesserae and discard 10112 interior tesserae
 Molecular Surface Area = 455.523 Angst**2
 Applying Cartesian multipole field
    Component          Value
    ---------          -----
     (2,0,0)        1.00000E-12
     (0,2,0)        2.00000E-12
     (0,0,2)       -3.00000E-11
 Nucleus-field energy     =    -0.0000000120 hartrees
 Requested basis set is def2-mSVP
 There are 274 shells and 546 basis functions
 A cutoff of  1.0D-11 yielded  16909 shell pairs
 There are     70525 function pairs (     78578 Cartesian)
 Smallest overlap matrix eigenvalue = 2.00E-04
 Guess MOs from SCF MO coefficient file

 -----------------------------------------------------------------------
  General SCF calculation program by
  Eric Jon Sundstrom, Paul Horn, Yuezhi Mao, Dmitri Zuev, Alec White,
  David Stuck, Shaama M.S., Shane Yost, Joonho Lee, David Small,
  Daniel Levine, Susi Lehtola, Hugh Burton, Evgeny Epifanovsky
 -----------------------------------------------------------------------
 Exchange:     0.4200 Hartree-Fock + 0.5800 PBEh-3c
 Correlation:  1.0000 PBEh-3c
 Using SG-1 standard quadrature grid
 Dispersion:   Grimme D3
 using 4 threads for integral computing
 -------------------------------------------------------
 OpenMP Integral computing Module                
 Release: version 2.0, May 2017, Q-Chem Inc. Pleasanton 
 -------------------------------------------------------
 -------------------------------------------------------
 OpenMP BLAS3 based DFT computing Module                
 Release: version 1.0, May 2013, Q-Chem Inc. Pittsburgh 
 -------------------------------------------------------
 A unrestricted SCF calculation will be
 performed using DIIS
 SCF converges when DIIS error is below 1.0e-08
 ---------------------------------------
  Cycle       Energy         DIIS error
 ---------------------------------------
 Using non-symmetric K matrix
    1   -1277.2457011444      2.17e-04  
    2   -1277.2539609125      9.90e-05  
    3   -1277.2536409120      1.07e-04  
    4   -1277.2554743871      2.11e-05  
    5   -1277.2555496394      5.92e-06  
    6   -1277.2555603589      2.86e-06  
    7   -1277.2555648745      1.56e-06  
    8   -1277.2555680048      1.12e-06  
    9   -1277.2555709919      7.74e-07  
   10   -1277.2555722215      5.34e-07  
   11   -1277.2555728491      3.76e-07  
   12   -1277.2555729774      1.50e-07  
   13   -1277.2555729993      6.82e-08  
   14   -1277.2555730023      3.68e-08  
   15   -1277.2555730026      1.65e-08  
   16   -1277.2555730027      6.85e-09  Convergence criterion met
 ---------------------------------------
 SCF time:   CPU 3141.83s  wall 814.00s 
<S^2> =          0.790731977

************** Final PCM Free Energy Summary **************
 G_electrostatic  =      -0.00000594 hartree =      -0.00372591 kcal/mol
 G_cavitation     =       0.00000000 hartree =       0.00000000 kcal/mol
 G_dispersion     =       0.00000000 hartree =       0.00000000 kcal/mol
 G_repulsion      =       0.00000000 hartree =       0.00000000 kcal/mol
 --------------------------------------------------
 Non-electrostatic Free Energy =       0.00000000 hartree =       0.00000000 kcal/mol
 Total                         =      -0.00000594 hartree =      -0.00372591 kcal/mol
 --------------------------------------------------
 SCF Energy (H0 + V/2)                       =   -1277.25557300 
 Solute Internal Energy (H0)                 =   -1277.25556707 
 Total Free Energy (H0 + V/2 + non-elec)     =   -1277.25557300 hartree
                                             = -801489.96894673 kcal/mol
***********************************************************

 SCF   energy in the final basis set =    -1277.2555730027
 Total energy in the final basis set =    -1277.2555730027
 
 --------------------------------------------------------------
 
                    Orbital Energies (a.u.)
 --------------------------------------------------------------
 
 Alpha MOs
 -- Occupied --
-10.368 -10.368 -10.368 -10.368 -10.368 -10.368 -10.365 -10.365
-10.365 -10.365 -10.363 -10.363 -10.363 -10.363 -10.360 -10.360
-10.358 -10.358 -10.345 -10.345 -10.342 -10.342 -10.339 -10.339
-10.339 -10.338 -10.336 -10.336 -10.306 -10.306 -10.303 -10.303
 -6.798  -6.795  -0.912  -0.912  -0.850  -0.849  -0.834  -0.834
 -0.795  -0.788  -0.750  -0.750  -0.743  -0.743  -0.708  -0.705
 -0.703  -0.691  -0.629  -0.627  -0.626  -0.615  -0.587  -0.576
 -0.567  -0.552  -0.540  -0.535  -0.498  -0.498  -0.486  -0.484
 -0.479  -0.470  -0.468  -0.438  -0.431  -0.426  -0.417  -0.400
 -0.397  -0.394  -0.387  -0.386  -0.384  -0.384  -0.382  -0.382
 -0.378  -0.373  -0.361  -0.360  -0.344  -0.334  -0.323  -0.322
 -0.315  -0.312  -0.300  -0.299  -0.299  -0.296  -0.288  -0.282
 -0.263  -0.253  -0.250  -0.242  -0.226  -0.212  -0.212  -0.206
 -0.203  -0.202  -0.176  -0.162  -0.150  -0.143  -0.047
 -- Virtual --
  0.029   0.063   0.076   0.095   0.103   0.125   0.149   0.169
  0.186   0.189   0.191   0.222   0.230   0.230   0.245   0.245
  0.260   0.272   0.272   0.274   0.278   0.281   0.281   0.293
  0.298   0.304   0.305   0.307   0.308   0.315   0.333   0.345
  0.350   0.350   0.352   0.360   0.365   0.366   0.368   0.369
  0.371   0.376   0.386   0.389   0.393   0.396   0.400   0.402
  0.418   0.423   0.428   0.443   0.453   0.454   0.466   0.468
  0.481   0.486   0.491   0.516   0.517   0.524   0.526   0.534
  0.543   0.560   0.567   0.576   0.590   0.591   0.592   0.602
  0.606   0.612   0.616   0.621   0.622   0.625   0.628   0.633
  0.636   0.638   0.646   0.646   0.655   0.655   0.662   0.664
  0.672   0.674   0.679   0.680   0.682   0.690   0.691   0.694
  0.699   0.702   0.704   0.706   0.710   0.712   0.714   0.714
  0.718   0.726   0.727   0.727   0.736   0.741   0.748   0.748
  0.750   0.762   0.764   0.764   0.766   0.771   0.778   0.791
  0.793   0.796   0.804   0.815   0.824   0.824   0.830   0.837
  0.841   0.848   0.849   0.855   0.857   0.860   0.869   0.876
  0.890   0.898   0.912   0.919   0.930   0.936   0.938   0.945
  0.961   0.963   0.965   0.971   0.975   1.003   1.005   1.007
  1.010   1.020   1.025   1.035   1.038   1.043   1.050   1.053
  1.058   1.060   1.071   1.073   1.075   1.088   1.098   1.098
  1.100   1.103   1.109   1.111   1.127   1.131   1.131   1.132
  1.159   1.163   1.163   1.175   1.185   1.203   1.204   1.219
  1.230   1.231   1.232   1.236   1.246   1.247   1.262   1.276
  1.276   1.287   1.299   1.318   1.343   1.344   1.351   1.354
  1.361   1.368   1.388   1.391   1.401   1.402   1.404   1.415
  1.420   1.432   1.434   1.448   1.453   1.470   1.471   1.472
  1.477   1.495   1.497   1.501   1.503   1.507   1.510   1.517
  1.529   1.532   1.540   1.540   1.555   1.590   1.606   1.608
  1.610   1.611   1.611   1.619   1.621   1.626   1.627   1.629
  1.635   1.637   1.642   1.652   1.656   1.662   1.668   1.675
  1.679   1.698   1.702   1.703   1.719   1.735   1.742   1.758
  1.799   1.837   1.839   1.882   1.899   1.911   1.912   1.913
  1.914   1.916   1.922   1.924   1.928   1.941   1.952   2.001
  2.009   2.014   2.020   2.021   2.029   2.046   2.054   2.066
  2.073   2.076   2.076   2.104   2.113   2.123   2.127   2.136
  2.160   2.167   2.168   2.184   2.188   2.203   2.204   2.205
  2.217   2.243   2.244   2.250   2.254   2.262   2.264   2.264
  2.279   2.281   2.294   2.306   2.317   2.329   2.330   2.351
  2.353   2.357   2.364   2.385   2.390   2.395   2.418   2.420
  2.428   2.431   2.436   2.443   2.447   2.449   2.454   2.462
  2.474   2.475   2.485   2.490   2.495   2.498   2.507   2.516
  2.518   2.519   2.527   2.544   2.565   2.574   2.592   2.595
  2.623   2.652   2.683   2.689   2.716   2.730   2.734   2.741
  2.743   2.786   2.792   2.795   2.817   2.818   2.822   2.830
  2.834   2.881   2.882   2.890   2.890   2.891   2.894   2.897
  2.903   2.915   2.918   2.924   2.937   2.948   2.952   2.965
  2.972   2.988   2.989   3.015   3.032   3.058   3.088   3.090
  3.102   3.113   3.146   3.173   3.175   3.196   3.341   3.351
  3.354   3.506   3.543   3.553   3.593   3.599   3.601   3.765
  3.782   9.488   9.617  13.238  13.266  13.598  13.605  13.613
 13.619  13.820  13.827  13.889  13.895  13.937  13.952  14.078
 14.091  14.094  14.114  14.173  14.199  14.258  14.259  14.333
 14.363  14.393  14.408  14.412  14.413  14.598  14.601  14.658
 14.671  14.684  14.684
 
 Beta MOs
 -- Occupied --
-10.369 -10.369 -10.369 -10.369 -10.369 -10.369 -10.364 -10.364
-10.364 -10.364 -10.362 -10.362 -10.361 -10.361 -10.361 -10.361
-10.359 -10.359 -10.345 -10.344 -10.341 -10.341 -10.339 -10.339
-10.338 -10.338 -10.336 -10.336 -10.305 -10.305 -10.303 -10.302
 -6.796  -6.792  -0.912  -0.912  -0.849  -0.848  -0.833  -0.833
 -0.794  -0.788  -0.749  -0.749  -0.742  -0.742  -0.705  -0.704
 -0.703  -0.689  -0.627  -0.626  -0.626  -0.615  -0.587  -0.575
 -0.563  -0.551  -0.540  -0.535  -0.497  -0.496  -0.484  -0.482
 -0.479  -0.469  -0.465  -0.437  -0.431  -0.426  -0.414  -0.399
 -0.395  -0.393  -0.387  -0.386  -0.384  -0.384  -0.380  -0.380
 -0.378  -0.372  -0.360  -0.359  -0.343  -0.333  -0.321  -0.317
 -0.311  -0.311  -0.300  -0.296  -0.295  -0.295  -0.288  -0.282
 -0.256  -0.251  -0.247  -0.240  -0.225  -0.209  -0.206  -0.202
 -0.199  -0.199  -0.163  -0.154  -0.147  -0.134
 -- Virtual --
  0.029   0.045   0.083   0.084   0.097   0.105   0.126   0.161
  0.177   0.187   0.196   0.202   0.229   0.230   0.230   0.246
  0.246   0.260   0.273   0.274   0.279   0.281   0.282   0.282
  0.299   0.299   0.304   0.306   0.307   0.309   0.318   0.341
  0.351   0.351   0.352   0.353   0.360   0.366   0.367   0.368
  0.372   0.375   0.379   0.387   0.390   0.396   0.398   0.400
  0.403   0.418   0.423   0.428   0.446   0.454   0.454   0.466
  0.471   0.484   0.492   0.504   0.517   0.520   0.527   0.528
  0.537   0.557   0.562   0.567   0.578   0.593   0.593   0.594
  0.602   0.607   0.613   0.617   0.623   0.624   0.627   0.630
  0.634   0.638   0.639   0.647   0.648   0.656   0.656   0.663
  0.665   0.675   0.676   0.682   0.682   0.685   0.691   0.691
  0.695   0.700   0.700   0.707   0.707   0.710   0.712   0.714
  0.715   0.718   0.727   0.728   0.729   0.738   0.744   0.751
  0.751   0.753   0.763   0.765   0.767   0.767   0.772   0.780
  0.791   0.793   0.797   0.804   0.816   0.825   0.825   0.831
  0.839   0.844   0.850   0.851   0.856   0.858   0.861   0.869
  0.876   0.891   0.899   0.913   0.923   0.931   0.937   0.939
  0.946   0.962   0.968   0.969   0.972   0.979   1.004   1.006
  1.009   1.012   1.021   1.026   1.036   1.038   1.043   1.050
  1.053   1.060   1.061   1.071   1.073   1.075   1.088   1.098
  1.098   1.100   1.103   1.109   1.112   1.128   1.131   1.132
  1.132   1.159   1.163   1.163   1.175   1.186   1.204   1.205
  1.220   1.231   1.232   1.232   1.237   1.247   1.248   1.264
  1.277   1.277   1.288   1.300   1.320   1.344   1.345   1.352
  1.355   1.362   1.369   1.390   1.393   1.402   1.404   1.406
  1.416   1.423   1.433   1.436   1.452   1.454   1.471   1.473
  1.474   1.479   1.497   1.499   1.502   1.506   1.509   1.512
  1.517   1.530   1.533   1.541   1.542   1.558   1.591   1.608
  1.608   1.613   1.613   1.613   1.622   1.623   1.628   1.628
  1.631   1.638   1.639   1.643   1.653   1.656   1.664   1.669
  1.676   1.683   1.700   1.703   1.705   1.720   1.736   1.743
  1.760   1.800   1.838   1.840   1.884   1.900   1.912   1.913
  1.914   1.915   1.917   1.923   1.924   1.929   1.942   1.956
  2.002   2.010   2.015   2.023   2.024   2.031   2.052   2.062
  2.067   2.074   2.076   2.077   2.107   2.117   2.124   2.128
  2.143   2.161   2.168   2.169   2.185   2.187   2.205   2.205
  2.206   2.220   2.244   2.244   2.252   2.256   2.264   2.265
  2.266   2.280   2.283   2.294   2.306   2.319   2.330   2.331
  2.352   2.353   2.360   2.366   2.388   2.394   2.397   2.420
  2.421   2.432   2.434   2.439   2.447   2.449   2.453   2.455
  2.465   2.476   2.477   2.486   2.491   2.496   2.500   2.508
  2.518   2.519   2.521   2.528   2.547   2.566   2.574   2.593
  2.596   2.624   2.653   2.688   2.690   2.718   2.730   2.736
  2.742   2.744   2.787   2.793   2.796   2.818   2.819   2.824
  2.831   2.834   2.881   2.883   2.891   2.891   2.892   2.896
  2.897   2.904   2.915   2.918   2.926   2.937   2.949   2.953
  2.966   2.974   2.989   2.989   3.016   3.032   3.058   3.088
  3.090   3.103   3.113   3.148   3.174   3.175   3.198   3.342
  3.351   3.354   3.507   3.544   3.554   3.593   3.599   3.601
  3.766   3.783   9.491   9.620  13.238  13.266  13.599  13.606
 13.613  13.619  13.820  13.827  13.889  13.895  13.937  13.952
 14.080  14.092  14.095  14.115  14.173  14.199  14.258  14.259
 14.334  14.363  14.394  14.409  14.412  14.413  14.598  14.602
 14.658  14.671  14.684  14.684
 --------------------------------------------------------------
 
          Ground-State Mulliken Net Atomic Charges

     Atom                 Charge (a.u.)    Spin (a.u.)
  --------------------------------------------------------
      1 C                    -0.084811       0.044519
      2 C                    -0.080679       0.042844
      3 B                     0.054287       0.265703
      4 C                    -0.079732       0.042977
      5 C                    -0.085034       0.044663
      6 B                     0.056803       0.267796
      7 C                    -0.384691      -0.055863
      8 C                     0.086368       0.075922
      9 C                     0.068217       0.076554
     10 C                    -0.376480      -0.056025
     11 C                    -0.385567      -0.055052
     12 C                     0.087522       0.075089
     13 C                     0.066940       0.076332
     14 C                    -0.374879      -0.055668
     15 H                     0.180913       0.002354
     16 C                     0.176524      -0.051878
     17 C                     0.177784      -0.052357
     18 C                    -0.381328       0.095479
     19 C                    -0.204939      -0.061583
     20 C                    -0.357872       0.098366
     21 C                     0.253492      -0.049894
     22 C                    -0.354999       0.099198
     23 C                    -0.206162      -0.061449
     24 H                     0.195890       0.003039
     25 H                     0.189901      -0.006049
     26 C                    -0.051551       0.027456
     27 H                     0.180889       0.002375
     28 C                    -0.386591       0.094576
     29 H                     0.195542       0.003050
     30 H                     0.197841      -0.005682
     31 H                     0.180772       0.002394
     32 C                     0.178209      -0.052846
     33 C                    -0.355647       0.100614
     34 C                    -0.206152      -0.062225
     35 C                    -0.381157       0.096436
     36 H                     0.195876       0.003076
     37 H                     0.198007      -0.005794
     38 H                     0.181094       0.002343
     39 H                     0.197876      -0.005740
     40 C                    -0.049667       0.027101
     41 C                     0.176054      -0.051249
     42 C                    -0.388669       0.093354
     43 C                    -0.204424      -0.060768
     44 C                    -0.357799       0.096628
     45 C                     0.253946      -0.049242
     46 H                     0.195562       0.003012
     47 H                     0.190144      -0.005939
     48 H                     0.197834      -0.005609
     49 H                     0.189747      -0.006109
     50 H                     0.189538      -0.006195
     51 H                     0.021254      -0.020078
     52 H                     0.024004      -0.019952
  --------------------------------------------------------
  Sum of atomic charges =    -1.000000
  Sum of spin   charges =     1.000000

 -----------------------------------------------------------------
                    Cartesian Multipole Moments
 -----------------------------------------------------------------
    Charge (ESU x 10^10)
                -4.8032
    Dipole Moment (Debye)
         X      25.7137      Y     -13.3028      Z      -6.8204
       Tot      29.7435
    Quadrupole Moments (Debye-Ang)
        XX    -395.5541     XY     102.3604     YY    -241.0011
        XZ      48.0443     YZ     -28.9662     ZZ    -224.3947
    Octopole Moments (Debye-Ang^2)
       XXX    4919.8564    XXY   -1415.9141    XYY    1472.3999
       YYY   -1779.0519    XXZ    -655.8095    XYZ     239.2006
       YYZ    -372.3823    XZZ    1257.9300    YZZ    -644.5309
       ZZZ    -806.1732
    Hexadecapole Moments (Debye-Ang^3)
      XXXX  -76321.4135   XXXY   22299.7621   XXYY  -16652.4964
      XYYY   15715.3345   YYYY  -17355.0956   XXXZ   10785.2387
      XXYZ   -3232.8949   XYYZ    3573.8423   YYYZ   -3947.3558
      XXZZ  -12550.9982   XYZZ    5741.8674   YYZZ   -4102.6886
      XZZZ    8271.8700   YZZZ   -3792.7041   ZZZZ   -4392.7326
 -----------------------------------------------------------------
 Calculating analytic gradient of the SCF energy
  2.503606908624544E-004  2.503399461569821E-004
  2.503534532130573E-004  2.503472062569243E-004
  2.503434828068499E-004  2.503571010608093E-004
  2.503544469625187E-004  2.503461959525777E-004
  2.503380520959012E-004  2.503626001206282E-004
  2.503463335992800E-004  2.503542503984593E-004
  2.503611429974448E-004  2.503394999555946E-004
  2.503779810775255E-004  2.503226764896127E-004
  2.503416440621680E-004  2.503589480795339E-004
  2.503372854299077E-004  2.503633457172928E-004
  2.503463320418604E-004  2.503543291495364E-004
  2.503509455559675E-004  2.503496413179218E-004
  2.503444874214957E-004  2.503561523090467E-004
  2.503613345420685E-004  2.503393178805848E-004
  2.503479456893508E-004  2.503526425006291E-004
  2.503373694828910E-004  2.503632748100757E-004
  2.503225739034762E-004  2.503780846460993E-004
  2.503510862440517E-004  2.503495050598010E-004
  2.503336689486500E-004  2.503669791955156E-004
  2.503329191802316E-004  2.503677436719715E-004
  2.503550306467137E-004  2.503455683995420E-004
  2.503521700354137E-004  2.503484762003859E-004
  2.503552626375077E-004  2.503453911100532E-004
  2.503478338105934E-004  2.503527672729788E-004
  2.503464139733265E-004  2.503542286201403E-004
  2.503446716072084E-004  2.503559849962728E-004
  2.503500212182291E-004  2.503505794571175E-004
  2.503532072198614E-004  2.503474441398213E-004
  2.503745289959884E-004  2.503261292226592E-004
  2.503478242045535E-004  2.503527753669875E-004
  2.503487826460855E-004  2.503518767475148E-004
  2.503257858549416E-004  2.503748713798464E-004
  2.503522768625448E-004  2.503483169165925E-004
  2.503518812828583E-004  2.503487733083465E-004
  2.503550671230424E-004  2.503455870603386E-004
  2.503477094210052E-004  2.503528830145372E-004
  2.503480354009475E-004  2.503526200347669E-004
  2.503436534214090E-004  2.503569985198697E-004
  2.503495572186008E-004  2.503510353060421E-004
  2.503651899595658E-004  2.503354650067643E-004
  2.503684411088031E-004  2.503322198172789E-004
  2.503431485726961E-004  2.503574445350160E-004
  2.503505503589994E-004  2.503501223618379E-004
  2.503467815631102E-004  2.503538789075389E-004
  2.503522605774750E-004  2.503483765223517E-004
  2.503376241988201E-004  2.503630216611857E-004
  2.503494750845755E-004  2.503511900722413E-004
  2.503546549251882E-004  2.503459551221308E-004
  2.503636363346949E-004  2.503370164707502E-004
  2.503525244999192E-004  2.503481409046439E-004
  2.503464306612211E-004  2.503541727265629E-004
  2.503435930235996E-004  2.503570674078899E-004
  2.503650019764676E-004  2.503356548905062E-004
  2.503493232926023E-004  2.503512918989282E-004
  2.503419066345371E-004  2.503587365560360E-004
  2.503608437960150E-004  2.503398244933370E-004
  2.503550508621651E-004  2.503455703210470E-004
  2.503566101842907E-004  2.503440386629071E-004
  2.503434798405911E-004  2.503571724732971E-004
  2.503482928628079E-004  2.503523320001777E-004
  2.503355570615931E-004  2.503650954819425E-004
  2.503587902418248E-004  2.503418732710959E-004
  2.503576602299235E-004  2.503429623985867E-004
  2.503431682926256E-004  2.503574887082921E-004
  2.503560922323350E-004  2.503445584905106E-004
  2.503514458574646E-004  2.503491728828184E-004
  2.503616381433849E-004  2.503390099698600E-004
  2.503411679508896E-004  2.503595002628974E-004
  2.503505732279140E-004  2.503500430009143E-004
  2.503434886503090E-004  2.503571534711215E-004
  2.503501680632375E-004  2.503504938363028E-004
  2.503526057453561E-004  2.503480334004591E-004
  2.503491152542822E-004  2.503515380616701E-004
  2.503556749055635E-004  2.503449755685524E-004
  2.503521046710264E-004  2.503485334712197E-004
  2.503554929333685E-004  2.503451483836559E-004
  2.503469451123114E-004  2.503537090719324E-004
  2.503478533461689E-004  2.503527581230801E-004
  2.503510790566338E-004  2.503495912616836E-004
  2.503544662379283E-004  2.503461962649867E-004
  2.503515860992583E-004  2.503490522872034E-004
  2.503545519321072E-004  2.503461010288398E-004
  2.503344984772305E-004  2.503661598546434E-004
  2.503486781351938E-004  2.503519437278025E-004
  2.503569333284921E-004  2.503437068739281E-004
  2.503501267485772E-004  2.503505349251620E-004
  2.503486973959217E-004  2.503519427245827E-004
  2.503506087054913E-004  2.503500619416908E-004
  2.503531623160199E-004  2.503474967435485E-004
  2.503505209904905E-004  2.503501266187872E-004
  2.503483389868251E-004  2.503523275034618E-004
  2.503476636794474E-004  2.503530014513983E-004
  2.503526014018847E-004  2.503480369786206E-004
  2.503435376460698E-004  2.503571070837727E-004
  2.503623585437330E-004  2.503383091045201E-004
  2.503527724268069E-004  2.503478368314224E-004
  2.503589967879001E-004  2.503416527282243E-004
  2.503486455810171E-004  2.503520064473048E-004
  2.503474797516355E-004  2.503531450820841E-004
  2.503374995884354E-004  2.503631472372029E-004
  2.503523253097623E-004  2.503483394161751E-004
  2.503568710457767E-004  2.503437498988061E-004
  2.503648779534327E-004  2.503357741534191E-004
  2.503551973317232E-004  2.503454616118550E-004
  2.503450995418234E-004  2.503555218532380E-004
  2.503548548298252E-004  2.503457976673023E-004
  2.503447490770306E-004  2.503559000652063E-004
  2.503495105418237E-004  2.503511307939067E-004
  2.503485480567709E-004  2.503521061463904E-004
  2.503492321654596E-004  2.503514459721425E-004
  2.503515022637201E-004  2.503491429631091E-004
  2.503533912305451E-004  2.503472793351037E-004
  2.503534667164417E-004  2.503471976749759E-004
  2.503507082644409E-004  2.503499279153072E-004
  2.503509369841231E-004  2.503497343565080E-004
  2.503480040799353E-004  2.503526563653805E-004
  2.503503650663860E-004  2.503502807996280E-004
  2.503439675919745E-004  2.503566821168555E-004
  2.503522524770628E-004  2.503484000774283E-004
  2.503509128806550E-004  2.503496919372752E-004
  2.503584790203159E-004  2.503421715814900E-004
  2.503396577542198E-004  2.503610084483954E-004
  2.503498571950079E-004  2.503507472466563E-004
  2.503360414568995E-004  2.503646193421722E-004
  2.503434543840407E-004  2.503572023534730E-004
  2.503549377987369E-004  2.503456780124455E-004
  2.503645025253894E-004  2.503361484515545E-004
  2.503503872584321E-004  2.503502768456953E-004
  2.503489765367948E-004  2.503516411483168E-004
  2.503410852259357E-004  2.503595716822653E-004
  2.503507876347518E-004  2.503498623676457E-004
  2.503527866449168E-004  2.503478324350349E-004
  2.503676472205317E-004  2.503330122100553E-004
  2.503438572714289E-004  2.503568049123013E-004
  2.503491953508215E-004  2.503514216357171E-004
  2.503458782549302E-004  2.503547730900681E-004
  2.503554155056304E-004  2.503452341164182E-004
  2.503516315293353E-004  2.503490094049779E-004
  2.503556175522199E-004  2.503450427379098E-004
  2.503527363703184E-004  2.503479119542448E-004
  2.503502244006444E-004  2.503504089317864E-004
  2.503523542487395E-004  2.503483036941347E-004
  2.503525417028265E-004  2.503481332776085E-004
  2.503503795959689E-004  2.503502648047794E-004
  2.503527936749022E-004  2.503478662966425E-004
  2.503454287074259E-004  2.503552200619887E-004
  2.503517943257762E-004  2.503488387521748E-004
  2.503458693035076E-004  2.503547842469634E-004
  2.503485118336879E-004  2.503521383366031E-004
  2.503533391252569E-004  2.503472989557730E-004
  2.503528693618908E-004  2.503477987968436E-004
  2.503553440221935E-004  2.503453267767650E-004
  2.503510531957492E-004  2.503495872365381E-004
  2.503485655937495E-004  2.503521028940390E-004
  2.503458675453177E-004  2.503548028122782E-004
  2.503514911835534E-004  2.503491492725228E-004
 Gradient of SCF Energy
            1           2           3           4           5           6
    1  -0.0079443  -0.0025639  -0.0029706   0.0068530   0.0007266   0.0052814
    2  -0.0059150   0.0085438  -0.0088859   0.0044325  -0.0100006   0.0106328
    3   0.0012996  -0.0018605   0.0050347  -0.0039133  -0.0014037   0.0010575
            7           8           9          10          11          12
    1  -0.0014863  -0.0045050   0.0041452  -0.0080198   0.0089821  -0.0044457
    2   0.0104845  -0.0106485   0.0097363  -0.0038094   0.0056044  -0.0104993
    3   0.0013992   0.0012500  -0.0016684   0.0038761  -0.0017494   0.0021463
           13          14          15          16          17          18
    1   0.0038898   0.0033361  -0.0013662   0.0027463  -0.0030033  -0.0031336
    2   0.0096593  -0.0088934  -0.0002992  -0.0130923   0.0136914  -0.0038140
    3  -0.0023226   0.0011866  -0.0000379  -0.0012135  -0.0016217   0.0012873
           19          20          21          22          23          24
    1  -0.0005710   0.0000255  -0.0024655  -0.0017393   0.0014608   0.0002602
    2   0.0095498  -0.0125505   0.0019025   0.0116468  -0.0089209   0.0007177
    3   0.0006508  -0.0001923   0.0009989  -0.0015710   0.0014204  -0.0001889
           25          26          27          28          29          30
    1  -0.0002631  -0.0100867   0.0011026   0.0030320  -0.0003491  -0.0009720
    2   0.0004297   0.0044241   0.0000979   0.0037019  -0.0007854  -0.0004415
    3   0.0000340   0.0034906  -0.0008695  -0.0010394   0.0000866   0.0004296
           31          32          33          34          35          36
[...]
     23  C       -12.6654764182    3.4156445106    3.1307907592
     24  H       -13.4603879181    2.7196901969    3.3709985320
     25  H         2.8430968702    0.1181884250   -1.5512189624
     26  C        -0.2607779706    0.2678339495   -0.2318717825
     27  H        -4.0862518070   -0.5171619796    1.2765388242
     28  C         0.5673279361    2.4806266141   -0.5660925935
     29  H         2.5494991805    2.5368055008   -1.3975064566
     30  H         0.4819860201    3.5594659173   -0.5308094695
     31  H        -2.1279559036    3.9815429231    0.4531748590
     32  C        -1.4004302040   -0.4317079504    0.2171123028
     33  C         0.8708127034   -1.7617006112   -0.7720116509
     34  C        -0.2389345959   -2.4522417696   -0.3378216749
     35  C        -1.3902603936   -1.8058715768    0.1613265175
     36  H        -0.2333017754   -3.5347867062   -0.3842170467
     37  H        -2.2416996263   -2.3943408680    0.4811384909
     38  H        -8.4977629177    1.5816388151    2.5315440267
     39  H       -11.1737511901    1.8508346955    3.0735734731
     40  C       -10.6634190092    5.1586209784    2.5240068600
     41  C        -9.5195209474    5.9166353240    2.1893851236
     42  C        -9.6852297558    7.2682144711    2.0007809239
     43  C       -10.9753952712    7.8256585328    2.1505483666
     44  C       -12.0814528323    7.0735429042    2.4760262947
     45  C       -11.9474480119    5.6785838056    2.6740041827
     46  H       -11.0955579936    8.8912904616    1.9975456912
     47  H       -13.0518648658    7.5456189263    2.5749451057
     48  H        -8.8545461218    7.9098473243    1.7350138568
     49  H       -13.9900345246    5.0916980812    3.1222973290
     50  H         1.7295403434   -2.3024934900   -1.1520145675
     51  H        -6.3267035695    0.3714399522    2.0632585352
     52  H        -4.2796203336    5.2440376564    1.0959297417

Z-matrix Print:
$molecule
-1 2
C 
C  1 1.373053
H  2 1.085956 1 120.418826
C  2 1.404214 1 120.594622 3 178.619678 0
C  1 1.426985 2 120.437605 3 -179.112862 0
C  5 1.377882 1 119.643333 2 -0.777869 0
H  6 1.085558 5 120.356770 1 -180.000000 0
C  6 1.409692 5 120.850188 1 1.283350 0
C  1 1.455234 2 131.080595 3 -1.671434 0
C  9 1.375457 1 135.202355 2 1.262686 0
H  10 1.083091 9 121.649584 1 1.209961 0
C  9 1.409277 1 106.417965 2 -177.244417 0
C  12 1.393410 9 124.028585 1 178.355042 0
C  10 1.411388 9 118.708087 1 -178.376065 0
H  14 1.083483 10 118.505343 9 179.927750 0
C  14 1.376786 10 122.578436 9 0.268611 0
H  16 1.083764 14 120.032963 10 179.542827 0
C  12 1.412466 9 111.099414 1 -0.290494 0
C  18 1.374699 12 117.549546 9 178.789105 0
H  19 1.082756 18 121.589019 12 -179.518725 0
C  19 1.413401 18 118.898551 12 0.066870 0
H  21 1.083245 19 118.312238 18 -179.863093 0
C  21 1.376582 19 122.887634 18 -0.127224 0
H  23 1.083670 21 120.203852 19 -179.686722 0
B  4 1.528757 2 120.069918 1 -176.021914 0
H  25 1.206658 4 119.941040 2 -2.684926 0
C  25 1.528423 4 119.927351 2 175.304378 0
C  27 1.404309 25 120.217749 4 -174.393864 0
H  28 1.085931 27 118.854614 25 -1.308084 0
C  28 1.373642 27 120.617200 25 177.433417 0
C  30 1.427040 28 120.308713 27 1.332540 0
C  31 1.377916 30 119.734201 28 -1.038909 0
H  32 1.085480 31 120.381283 30 -178.868366 0
C  32 1.409050 31 120.861938 30 -0.338547 0
C  30 1.454878 28 131.223392 27 -176.371200 0
C  35 1.375333 30 135.158875 28 0.337185 0
H  36 1.083293 35 121.666494 30 -1.296570 0
C  35 1.410586 30 106.352770 28 178.458422 0
C  38 1.392275 35 124.125670 30 -178.589619 0
C  36 1.411557 35 118.548196 30 178.170444 0
H  40 1.083553 36 118.481029 35 -179.809396 0
C  40 1.377283 36 122.622011 35 -0.108788 0
H  42 1.083638 40 119.924061 36 -179.683817 0
C  38 1.412734 35 111.089474 30 -0.184895 0
C  44 1.374052 38 117.790127 35 -178.930349 0
H  45 1.082785 44 121.547250 38 179.547983 0
C  45 1.412848 44 118.741529 38 -0.124526 0
H  47 1.083220 45 118.359323 44 -179.959952 0
C  47 1.376889 45 122.865762 44 0.437278 0
H  49 1.083605 47 120.066334 45 179.494082 0
B  8 1.536045 6 121.487361 5 177.224200 0
H  51 1.206276 8 119.926760 6 3.630273 0
$end

 
 --------------------------------------------------------------
 
                    Orbital Energies (a.u.)
 --------------------------------------------------------------
 
 Alpha MOs
 -- Occupied --
-10.369 -10.369 -10.368 -10.368 -10.368 -10.367 -10.365 -10.365
-10.365 -10.365 -10.363 -10.363 -10.363 -10.363 -10.362 -10.361
-10.360 -10.360 -10.348 -10.348 -10.343 -10.342 -10.340 -10.340
-10.338 -10.338 -10.336 -10.335 -10.305 -10.305 -10.303 -10.303
 -6.796  -6.793  -0.911  -0.911  -0.850  -0.849  -0.835  -0.835
 -0.794  -0.787  -0.750  -0.750  -0.745  -0.745  -0.708  -0.706
 -0.705  -0.691  -0.629  -0.627  -0.627  -0.615  -0.588  -0.576
 -0.568  -0.554  -0.539  -0.534  -0.497  -0.497  -0.487  -0.484
 -0.480  -0.472  -0.469  -0.439  -0.431  -0.426  -0.419  -0.401
 -0.397  -0.395  -0.388  -0.387  -0.383  -0.382  -0.382  -0.381
 -0.379  -0.372  -0.360  -0.359  -0.344  -0.333  -0.325  -0.322
 -0.316  -0.311  -0.300  -0.300  -0.300  -0.295  -0.287  -0.283
 -0.263  -0.253  -0.248  -0.241  -0.222  -0.216  -0.214  -0.208
 -0.203  -0.202  -0.176  -0.164  -0.152  -0.142  -0.049
 -- Virtual --
  0.030   0.064   0.076   0.095   0.103   0.125   0.148   0.170
  0.187   0.189   0.194   0.223   0.229   0.229   0.245   0.245
  0.261   0.273   0.274   0.275   0.279   0.280   0.281   0.293
  0.298   0.304   0.305   0.305   0.307   0.316   0.334   0.346
  0.348   0.348   0.351   0.359   0.364   0.367   0.368   0.369
  0.372   0.376   0.386   0.387   0.393   0.395   0.400   0.402
  0.418   0.424   0.427   0.441   0.454   0.454   0.465   0.469
  0.481   0.486   0.491   0.518   0.518   0.523   0.525   0.533
  0.542   0.562   0.564   0.575   0.588   0.590   0.591   0.603
  0.604   0.611   0.615   0.620   0.621   0.623   0.627   0.631
  0.635   0.636   0.644   0.646   0.653   0.655   0.660   0.664
  0.673   0.673   0.679   0.679   0.682   0.689   0.690   0.699
  0.701   0.702   0.706   0.707   0.712   0.713   0.715   0.717
  0.721   0.725   0.726   0.729   0.735   0.742   0.746   0.748
  0.749   0.761   0.763   0.765   0.765   0.771   0.778   0.789
  0.793   0.796   0.802   0.814   0.825   0.826   0.832   0.838
  0.842   0.847   0.848   0.854   0.858   0.860   0.869   0.875
  0.890   0.902   0.912   0.920   0.934   0.938   0.940   0.943
  0.961   0.965   0.968   0.975   0.976   1.005   1.006   1.008
  1.011   1.020   1.027   1.036   1.041   1.046   1.050   1.053
  1.061   1.061   1.071   1.071   1.076   1.090   1.096   1.096
  1.098   1.101   1.107   1.111   1.128   1.131   1.131   1.132
  1.160   1.164   1.165   1.177   1.187   1.200   1.201   1.222
  1.228   1.231   1.232   1.235   1.247   1.252   1.261   1.274
  1.276   1.286   1.299   1.320   1.338   1.339   1.352   1.355
  1.363   1.369   1.385   1.388   1.401   1.402   1.404   1.412
  1.417   1.431   1.434   1.448   1.451   1.467   1.469   1.470
  1.475   1.495   1.496   1.500   1.504   1.506   1.510   1.518
  1.528   1.531   1.539   1.540   1.556   1.590   1.607   1.608
  1.610   1.612   1.612   1.616   1.623   1.628   1.628   1.629
  1.636   1.637   1.641   1.653   1.654   1.662   1.667   1.674
  1.683   1.695   1.698   1.700   1.719   1.733   1.741   1.760
  1.803   1.845   1.846   1.883   1.904   1.905   1.908   1.911
  1.911   1.915   1.920   1.921   1.923   1.937   1.956   2.000
  2.009   2.015   2.015   2.016   2.027   2.046   2.052   2.064
  2.074   2.077   2.078   2.104   2.109   2.124   2.130   2.138
  2.158   2.165   2.166   2.180   2.185   2.202   2.204   2.205
  2.209   2.238   2.245   2.249   2.253   2.261   2.263   2.264
  2.280   2.282   2.299   2.310   2.319   2.327   2.328   2.346
  2.348   2.356   2.360   2.377   2.388   2.396   2.418   2.419
  2.426   2.431   2.433   2.442   2.452   2.454   2.457   2.461
  2.470   2.482   2.486   2.489   2.492   2.503   2.506   2.514
  2.514   2.515   2.525   2.540   2.565   2.574   2.603   2.605
  2.623   2.659   2.689   2.692   2.719   2.730   2.738   2.739
  2.741   2.782   2.789   2.799   2.819   2.823   2.823   2.827
  2.829   2.878   2.880   2.888   2.889   2.894   2.897   2.899
  2.906   2.912   2.919   2.922   2.944   2.951   2.955   2.966
  2.969   2.989   2.991   3.016   3.036   3.058   3.085   3.091
  3.104   3.109   3.155   3.173   3.175   3.213   3.339   3.358
  3.361   3.507   3.547   3.559   3.589   3.590   3.596   3.766
  3.779   9.500   9.628  13.238  13.267  13.598  13.602  13.610
 13.619  13.825  13.831  13.879  13.884  13.938  13.953  14.087
 14.097  14.098  14.118  14.175  14.203  14.259  14.260  14.336
 14.367  14.390  14.404  14.409  14.410  14.604  14.609  14.660
 14.672  14.676  14.676
 
 Beta MOs
 -- Occupied --
-10.370 -10.370 -10.368 -10.368 -10.368 -10.368 -10.364 -10.364
-10.364 -10.364 -10.363 -10.362 -10.362 -10.361 -10.361 -10.361
-10.360 -10.360 -10.348 -10.347 -10.342 -10.341 -10.339 -10.339
-10.338 -10.338 -10.336 -10.336 -10.304 -10.304 -10.302 -10.302
 -6.794  -6.791  -0.910  -0.910  -0.849  -0.848  -0.834  -0.834
 -0.793  -0.787  -0.749  -0.749  -0.744  -0.744  -0.706  -0.705
 -0.704  -0.689  -0.627  -0.626  -0.626  -0.615  -0.587  -0.576
 -0.564  -0.552  -0.539  -0.534  -0.496  -0.495  -0.485  -0.483
 -0.480  -0.471  -0.466  -0.438  -0.431  -0.426  -0.416  -0.400
 -0.395  -0.393  -0.387  -0.387  -0.383  -0.381  -0.380  -0.380
 -0.378  -0.371  -0.359  -0.358  -0.343  -0.332  -0.323  -0.317
 -0.312  -0.310  -0.299  -0.297  -0.297  -0.295  -0.286  -0.282
 -0.256  -0.251  -0.246  -0.240  -0.221  -0.213  -0.208  -0.204
 -0.199  -0.199  -0.163  -0.155  -0.149  -0.133
 -- Virtual --
  0.028   0.045   0.082   0.084   0.096   0.105   0.125   0.161
  0.177   0.188   0.197   0.205   0.229   0.229   0.229   0.245
  0.245   0.261   0.274   0.276   0.279   0.281   0.281   0.283
  0.299   0.299   0.305   0.305   0.306   0.307   0.318   0.342
  0.349   0.349   0.352   0.353   0.359   0.365   0.368   0.370
  0.372   0.374   0.379   0.387   0.388   0.396   0.397   0.400
  0.404   0.419   0.425   0.428   0.444   0.455   0.455   0.466
  0.472   0.484   0.492   0.505   0.519   0.521   0.525   0.527
  0.535   0.557   0.563   0.565   0.577   0.590   0.593   0.594
  0.603   0.605   0.612   0.616   0.622   0.623   0.624   0.629
  0.632   0.636   0.639   0.646   0.647   0.654   0.656   0.661
  0.665   0.674   0.676   0.681   0.682   0.685   0.689   0.690
  0.701   0.701   0.702   0.708   0.708   0.712   0.713   0.715
  0.717   0.722   0.726   0.728   0.730   0.737   0.745   0.749
  0.751   0.751   0.761   0.764   0.766   0.768   0.772   0.780
  0.789   0.793   0.796   0.803   0.815   0.826   0.827   0.833
  0.840   0.844   0.849   0.851   0.855   0.859   0.861   0.869
  0.876   0.891   0.904   0.913   0.924   0.935   0.939   0.941
  0.944   0.962   0.969   0.973   0.976   0.978   1.006   1.007
  1.010   1.012   1.022   1.027   1.036   1.042   1.047   1.050
  1.053   1.062   1.062   1.071   1.072   1.077   1.091   1.097
  1.097   1.098   1.101   1.108   1.112   1.129   1.131   1.132
  1.132   1.160   1.163   1.165   1.177   1.188   1.201   1.202
  1.223   1.228   1.231   1.233   1.236   1.247   1.254   1.263
  1.275   1.276   1.287   1.300   1.322   1.339   1.340   1.353
  1.357   1.364   1.370   1.386   1.389   1.402   1.404   1.406
  1.416   1.419   1.432   1.435   1.452   1.453   1.469   1.471
  1.471   1.477   1.498   1.499   1.500   1.505   1.508   1.511
  1.518   1.529   1.532   1.541   1.542   1.560   1.591   1.608
  1.608   1.613   1.613   1.614   1.619   1.624   1.629   1.630
  1.632   1.638   1.641   1.642   1.653   1.655   1.663   1.668
  1.675   1.687   1.696   1.699   1.702   1.719   1.735   1.742
  1.761   1.804   1.845   1.846   1.885   1.905   1.906   1.909
  1.912   1.913   1.916   1.921   1.923   1.924   1.937   1.960
  2.000   2.010   2.015   2.018   2.019   2.029   2.052   2.060
  2.065   2.074   2.077   2.078   2.106   2.114   2.125   2.131
  2.144   2.159   2.166   2.167   2.180   2.185   2.204   2.206
  2.206   2.212   2.239   2.245   2.251   2.255   2.262   2.264
  2.266   2.281   2.284   2.299   2.309   2.321   2.328   2.329
  2.347   2.349   2.359   2.362   2.380   2.390   2.400   2.419
  2.421   2.430   2.435   2.436   2.446   2.454   2.456   2.458
  2.464   2.472   2.486   2.487   2.490   2.493   2.505   2.507
  2.515   2.516   2.517   2.527   2.543   2.566   2.574   2.604
  2.606   2.624   2.661   2.690   2.698   2.722   2.730   2.740
  2.740   2.741   2.783   2.790   2.799   2.820   2.823   2.824
  2.828   2.830   2.879   2.881   2.889   2.889   2.896   2.899
  2.900   2.907   2.913   2.919   2.924   2.944   2.952   2.955
  2.968   2.970   2.989   2.992   3.017   3.037   3.059   3.085
  3.092   3.105   3.109   3.157   3.174   3.175   3.214   3.340
  3.358   3.361   3.508   3.548   3.559   3.589   3.591   3.597
  3.766   3.780   9.504   9.632  13.238  13.267  13.599  13.602
 13.610  13.619  13.825  13.831  13.879  13.885  13.939  13.953
 14.088  14.098  14.099  14.119  14.175  14.203  14.259  14.260
 14.336  14.367  14.391  14.405  14.409  14.410  14.605  14.609
 14.660  14.672  14.676  14.677
 --------------------------------------------------------------
 
          Ground-State Mulliken Net Atomic Charges

     Atom                 Charge (a.u.)    Spin (a.u.)
  --------------------------------------------------------
      1 C                    -0.079192       0.046418
      2 C                    -0.078474       0.045783
      3 B                     0.049157       0.269322
      4 C                    -0.077214       0.045541
      5 C                    -0.079900       0.046627
      6 B                     0.051340       0.270331
      7 C                    -0.392607      -0.056322
      8 C                     0.094914       0.076155
      9 C                     0.073979       0.077224
     10 C                    -0.384241      -0.056798
     11 C                    -0.393769      -0.055577
     12 C                     0.095614       0.075332
     13 C                     0.072496       0.077518
     14 C                    -0.382754      -0.056926
     15 H                     0.180195       0.002391
     16 C                     0.194455      -0.050154
     17 C                     0.195527      -0.050942
     18 C                    -0.391031       0.092471
     19 C                    -0.196864      -0.057107
     20 C                    -0.356346       0.090433
     21 C                     0.256430      -0.046778
     22 C                    -0.353115       0.091664
     23 C                    -0.199124      -0.057421
     24 H                     0.195918       0.002847
     25 H                     0.189851      -0.005575
     26 C                    -0.084242       0.026425
     27 H                     0.180242       0.002428
     28 C                    -0.397043       0.091282
     29 H                     0.195640       0.002833
     30 H                     0.197533      -0.005513
     31 H                     0.180125       0.002428
     32 C                     0.195063      -0.051132
     33 C                    -0.353661       0.092304
     34 C                    -0.198936      -0.057759
     35 C                    -0.390770       0.092896
     36 H                     0.195892       0.002863
     37 H                     0.197726      -0.005606
     38 H                     0.180316       0.002426
     39 H                     0.197510      -0.005585
     40 C                    -0.083171       0.026237
     41 C                     0.195661      -0.049752
     42 C                    -0.399340       0.090576
     43 C                    -0.196324      -0.056680
     44 C                    -0.356320       0.089407
     45 C                     0.256773      -0.046451
     46 H                     0.195622       0.002813
     47 H                     0.190003      -0.005509
     48 H                     0.197410      -0.005474
     49 H                     0.189654      -0.005659
     50 H                     0.189512      -0.005697
     51 H                     0.019057      -0.020326
     52 H                     0.020822      -0.020232
  --------------------------------------------------------
  Sum of atomic charges =    -1.000000
  Sum of spin   charges =     1.000000

 -----------------------------------------------------------------
                    Cartesian Multipole Moments
 -----------------------------------------------------------------
    Charge (ESU x 10^10)
                -4.8032
    Dipole Moment (Debye)
         X      25.7410      Y     -13.3035      Z      -6.7787
       Tot      29.7579
    Quadrupole Moments (Debye-Ang)
        XX    -394.7548     XY     101.8487     YY    -240.8818
        XZ      47.5369     YZ     -28.3837     ZZ    -224.1732
    Octopole Moments (Debye-Ang^2)
       XXX    4905.6423    XXY   -1408.1206    XYY    1468.8137
       YYY   -1777.1944    XXZ    -649.6239    XYZ     233.1009
       YYZ    -367.5293    XZZ    1256.3870    YZZ    -641.9710
       ZZZ    -804.6936
    Hexadecapole Moments (Debye-Ang^3)
      XXXX  -76218.7682   XXXY   22235.3773   XXYY  -16620.4548
      XYYY   15704.8726   YYYY  -17350.3023   XXXZ   10718.8535
      XXYZ   -3170.4854   XYYZ    3529.3939   YYYZ   -3912.8351
      XXZZ  -12550.2044   XYZZ    5729.8778   YYZZ   -4087.2492
      XZZZ    8277.7936   YZZZ   -3788.2063   ZZZZ   -4374.8153
 -----------------------------------------------------------------
Archival summary:
1\1\ctcp003\OPT\ProcedureUnspecified\BasisUnspecified\32218(1-,2)\mewes1\TueDec1116:50:182018TueDec1116:50:182018\0\\#,OPT,ProcedureUnspecified,BasisUnspecified,\\-1,2\C\C,1,1.37305\H,2,1.08596,1,120.419\C,2,1.40421,1,120.595,3,178.62,0\C,1,1.42699,2,120.438,3,-179.113,0\C,5,1.37788,1,119.643,2,-0.777869,0\H,6,1.08556,5,120.357,1,-180,0\C,6,1.40969,5,120.85,1,1.28335,0\C,1,1.45523,2,131.081,3,-1.67143,0\C,9,1.37546,1,135.202,2,1.26269,0\H,10,1.08309,9,121.65,1,1.20996,0\C,9,1.40928,1,106.418,2,-177.244,0\C,12,1.39341,9,124.029,1,178.355,0\C,10,1.41139,9,118.708,1,-178.376,0\H,14,1.08348,10,118.505,9,179.928,0\C,14,1.37679,10,122.578,9,0.268611,0\H,16,1.08376,14,120.033,10,179.543,0\C,12,1.41247,9,111.099,1,-0.290494,0\C,18,1.3747,12,117.55,9,178.789,0\H,19,1.08276,18,121.589,12,-179.519,0\C,19,1.4134,18,118.899,12,0.0668695,0\H,21,1.08325,19,118.312,18,-179.863,0\C,21,1.37658,19,122.888,18,-0.127224,0\H,23,1.08367,21,120.204,19,-179.687,0\B,4,1.52876,2,120.07,1,-176.022,0\H,25,1.20666,4,119.941,2,-2.68493,0\C,25,1.52842,4,119.927,2,175.304,0\C,27,1.40431,25,120.218,4,-174.394,0\H,28,1.08593,27,118.855,25,-1.30808,0\C,28,1.37364,27,120.617,25,177.433,0\C,30,1.42704,28,120.309,27,1.33254,0\C,31,1.37792,30,119.734,28,-1.03891,0\H,32,1.08548,31,120.381,30,-178.868,0\C,32,1.40905,31,120.862,30,-0.338547,0\C,30,1.45488,28,131.223,27,-176.371,0\C,35,1.37533,30,135.159,28,0.337185,0\H,36,1.08329,35,121.666,30,-1.29657,0\C,35,1.41059,30,106.353,28,178.458,0\C,38,1.39227,35,124.126,30,-178.59,0\C,36,1.41156,35,118.548,30,178.17,0\H,40,1.08355,36,118.481,35,-179.809,0\C,40,1.37728,36,122.622,35,-0.108788,0\H,42,1.08364,40,119.924,36,-179.684,0\C,38,1.41273,35,111.089,30,-0.184895,0\C,44,1.37405,38,117.79,35,-178.93,0\H,45,1.08278,44,121.547,38,179.548,0\C,45,1.41285,44,118.742,38,-0.124526,0\H,47,1.08322,45,118.359,44,-179.96,0\C,47,1.37689,45,122.866,44,0.437278,0\H,49,1.0836,47,120.066,45,179.494,0\B,8,1.53604,6,121.487,5,177.224,0\H,51,1.20628,8,119.927,6,3.63027,0\\\@

 Total job time:  5954.45s(wall), 21808.34s(cpu) 
 Tue Dec 11 16:50:18 2018

        *************************************************************
        *                                                           *
        *  Thank you very much for using Q-Chem.  Have a nice day.  *
        *                                                           *
        *************************************************************


0 sent ACK to 0 
now end server 0 ... 
