mFile = /cm/shared/apps/q-chem/intel/QCHEM_5.1.0_Trunk/bin/mpi/machines
Process 0 of 1 is on ctcp003 - thread support 0
initial socket setup ...start
initial socket setup ...done 
now start server 0 ... 
Q-Chem Developer Version!
                  Welcome to Q-Chem
     A Quantum Leap Into The Future Of Chemistry


 Q-Chem 5.1, Q-Chem, Inc., Pleasanton, CA (2018)

 Yihan Shao,  Zhengting Gan,  E. Epifanovsky,  A. T. B. Gilbert,  M. Wormit,  
 J. Kussmann,  A. W. Lange,  A. Behn,  Jia Deng,  Xintian Feng,  D. Ghosh,  
 M. Goldey,  P. R. Horn,  L. D. Jacobson,  I. Kaliman,  T. Kus,  A. Landau,  
 Jie Liu,  E. I. Proynov,  R. M. Richard,  R. P. Steele,  E. J. Sundstrom,  
 H. L. Woodcock III,  P. M. Zimmerman,  D. Zuev,  B. Albrecht,  E. Alguire,  
 S. A. Baeppler,  D. Barton,  Z. Benda,  Y. A. Bernard,  E. J. Berquist,  
 K. B. Bravaya,  H. Burton,  D. Casanova,  Chun-Min Chang,  Yunqing Chen,  
 A. Chien,  K. D. Closser,  M. P. Coons,  S. Coriani,  S. Dasgupta,  
 A. L. Dempwolff,  M. Diedenhofen,  Hainam Do,  R. G. Edgar,  Po-Tung Fang,  
 S. Faraji,  S. Fatehi,  Qingguo Feng,  K. D. Fenk,  J. Fosso-Tande,  
 Qinghui Ge,  A. Ghysels,  G. Gidofalvi,  J. Gomes,  J. Gonthier,  A. Gunina,  
 D. Hait,  M. W. D. Hanson-Heine,  P. H. P. Harbach,  A. W. Hauser,  
 J. E. Herr,  E. G. Hohenstein,  Z. C. Holden,  Kerwin Hui,  B. C. Huynh,  
 T.-C. Jagau,  Hyunjun Ji,  B. Kaduk,  K. Khistyaev,  Jaehoon Kim,  
 P. Klunzinger,  K. Koh,  D. Kosenkov,  L. Koulias,  T. Kowalczyk,  
 C. M. Krauter,  A. Kunitsa,  Ka Un Lao,  A. Laurent,  K. V. Lawler,  
 Joonho Lee,  D. Lefrancois,  S. Lehtola,  D. S. Levine,  Yi-Pei Li,  
 You-Sheng Lin,  Fenglai Liu,  E. Livshits,  A. Luenser,  P. Manohar,  
 E. Mansoor,  S. F. Manzer,  Shan-Ping Mao,  Yuezhi Mao,  N. Mardirossian,  
 A. V. Marenich,  T. Markovich,  L. A. Martinez-Martinez,  S. A. Maurer,  
 N. J. Mayhall,  S. C. McKenzie,  J.-M. Mewes,  A. F. Morrison,  
 J. W. Mullinax,  K. Nanda,  T. S. Nguyen-Beck,  R. Olivares-Amaya,  
 J. A. Parkhill,  T. M. Perrine,  F. Plasser,  P. Pokhilko,  S. Prager,  
 A. Prociuk,  E. Ramos,  D. R. Rehn,  F. Rob,  M. Schneider,  N. Sergueev,  
 S. M. Sharada,  S. Sharma,  D. W. Small,  T. Stauch,  T. Stein,  
 Yu-Chuan Su,  A. J. W. Thom,  A. Tkatchenko,  T. Tsuchimochi,  N. M. Tubman,  
 L. Vogt,  M. L. Vidal,  O. Vydrov,  M. A. Watson,  J. Wenzel,  
 M. de Wergifosse,  T. A. Wesolowski,  A. White,  J. Witte,  A. Yamada,  
 Jun Yang,  K. Yao,  S. Yeganeh,  S. R. Yost,  Zhi-Qiang You,  A. Zech,  
 Igor Ying Zhang,  Xing Zhang,  Yan Zhao,  Ying Zhu,  B. R. Brooks,  
 G. K. L. Chan,  C. J. Cramer,  M. S. Gordon,  W. J. Hehre,  A. Klamt,  
 M. W. Schmidt,  C. D. Sherrill,  D. G. Truhlar,  A. Aspuru-Guzik,  R. Baer,  
 A. T. Bell,  N. A. Besley,  Jeng-Da Chai,  A. E. DePrince, III,  
 R. A. DiStasio Jr.,  A. Dreuw,  B. D. Dunietz,  T. R. Furlani,  
 Chao-Ping Hsu,  Yousung Jung,  Jing Kong,  D. S. Lambrecht,  WanZhen Liang,  
 C. Ochsenfeld,  V. A. Rassolov,  L. V. Slipchenko,  J. E. Subotnik,  
 T. Van Voorhis,  J. M. Herbert,  A. I. Krylov,  P. M. W. Gill,  M. Head-Gordon

 Contributors to earlier versions of Q-Chem not listed above: 
 R. D. Adamson,  B. Austin,  J. Baker,  G. J. O. Beran,  K. Brandhorst,  
 S. T. Brown,  E. F. C. Byrd,  A. K. Chakraborty,  C.-L. Cheng,  
 Siu Hung Chien,  D. M. Chipman,  D. L. Crittenden,  H. Dachsel,  
 R. J. Doerksen,  A. D. Dutoi,  L. Fusti-Molnar,  W. A. Goddard III,  
 A. Golubeva-Zadorozhnaya,  S. R. Gwaltney,  G. Hawkins,  A. Heyden,  
 S. Hirata,  G. Kedziora,  F. J. Keil,  C. Kelley,  Jihan Kim,  R. A. King,  
 R. Z. Khaliullin,  P. P. Korambath,  W. Kurlancheek,  A. M. Lee,  M. S. Lee,  
 S. V. Levchenko,  Ching Yeh Lin,  D. Liotard,  R. C. Lochan,  I. Lotan,  
 P. E. Maslen,  N. Nair,  D. P. O'Neill,  D. Neuhauser,  E. Neuscamman,  
 C. M. Oana,  R. Olson,  B. Peters,  R. Peverati,  P. A. Pieniazek,  
 Y. M. Rhee,  J. Ritchie,  M. A. Rohrdanz,  E. Rosta,  N. J. Russ,  
 H. F. Schaefer III,  N. E. Schultz,  N. Shenvi,  A. C. Simmonett,  A. Sodt,  
 D. Stuck,  K. S. Thanthiriwatte,  V. Vanovschi,  Tao Wang,  A. Warshel,  
 C. F. Williams,  Q. Wu,  X. Xu,  W. Zhang

 Please cite Q-Chem as follows:
 Y. Shao et al., Mol. Phys. 113, 184-215 (2015)
 DOI: 10.1080/00268976.2014.952696

 Q-Chem 5.1.1 for Intel X86 EM64T Linux

 Parts of Q-Chem use Armadillo 8.300.2 (Tropical Shenanigans).
 http://arma.sourceforge.net/

 Q-Chem begins on Mon Dec 10 10:51:45 2018  

Host: ctcp003
0

     Scratch files written to /scratch/mewes1/141649/qchem123030//
 Parallel job on  1  processors
The previous job contains 0 fragments, simply inherited here
Symmetry turned off for PCM/SM12/SMD calculation
Input Ideriv = 2
Curr. Ideriv = -1
Max.  Ideriv = 2
Input Ideriv = 2
Curr. Ideriv = 2
Max.  Ideriv = 2

Checking the input file for inconsistencies... 	...done.

--------------------------------------------------------------
User input:
--------------------------------------------------------------
$rem
threads 4
jobtype	opt
method PBEh-3c
basis def2-mSVP
mem_static	1024
mem_total	3000
sym_ignore	true
scf_convergence	9
solvent_method	pcm
$end

$molecule
read iDBP.mol
$end

$solvent
dielectric	2.38 
$end

$pcm
theory iefpcm
$end

--------------------------------------------------------------
 Adding empirical dispersion correction 
 ----------------------------------------------------------------
 Doing -D3(BJ) with
 s6 =   1.00000
 s8 =   0.00000
 a1 =   0.48600
 a2 =   4.50000
 -D3 energy including 3body term =     -0.0281252203 hartrees
 ----------------------------------------------------------------
 Adding gCP correction 
 ----------------------------------------------------------------
 gCP energy =      0.0445913479 hartrees
 ----------------------------------------------------------------
             Standard Nuclear Orientation (Angstroms)
    I     Atom           X                Y                Z
 ----------------------------------------------------------------
    1      C      -7.5139600000     4.5557600000     2.8748900000
    2      C      -8.1885200000     3.3659400000     3.2282700000
    3      B      -7.3876800000     2.0977100000     3.7053000000
    4      C      -5.8233700000     2.1924900000     3.8390700000
    5      C      -5.1403400000     3.3713100000     3.4642800000
    6      B      -5.9358200000     4.6153900000     2.9067300000
    7      C      -3.7474600000     3.4409600000     3.6105800000
    8      C      -3.0415400000     2.3522500000     4.1314600000
    9      C      -3.7181900000     1.1853100000     4.4964000000
   10      C      -5.1045100000     1.1023900000     4.3478500000
   11      C      -8.2516600000     5.6914600000     2.5079700000
   12      C      -9.6549600000     5.6435100000     2.4740200000
   13      C     -10.3229500000     4.4358100000     2.7900800000
   14      C      -9.5842900000     3.3097200000     3.1699000000
   15      H      -7.7356800000     6.6125400000     2.2556600000
   16      C     -11.7205700000     4.3706300000     2.7258800000
   17      H      -5.6172800000     0.1929500000     4.6387700000
   18      H      -3.2096200000     4.3404900000     3.3357100000
   19      H     -10.0983700000     2.3895100000     3.4279400000
   20      C     -10.4014000000     6.7800200000     2.1255500000
   21      C     -11.8022200000     6.7146900000     2.0637600000
   22      C     -12.4646000000     5.4972400000     2.3570800000
   23      C     -12.5559600000     7.8426300000     1.7037700000
   24      C     -13.8632700000     5.4280900000     2.2738700000
   25      H      -1.9685800000     2.4145700000     4.2563000000
   26      H      -3.1685800000     0.3449600000     4.8997100000
   27      H     -12.2288100000     3.4399900000     2.9577300000
   28      H      -9.8934400000     7.7115600000     1.8968800000
   29      C     -13.9494700000     7.7597500000     1.6229700000
   30      C     -14.6005500000     6.5551400000     1.9040500000
   31      H     -14.3820300000     4.5009300000     2.4896900000
   32      H     -15.6788900000     6.4949200000     1.8351200000
   33      H     -12.0662700000     8.7831400000     1.4802100000
   34      H     -14.5266000000     8.6295900000     1.3382700000
   35      H      -5.3592100000     5.5830200000     2.5457700000
   36      H      -7.9611400000     1.1192900000     4.0395700000
 ----------------------------------------------------------------
 Nuclear Repulsion Energy =  1434.4946815573 hartrees
 There are       72 alpha and       72 beta electrons
 Requested basis set is def2-mSVP
 There are 182 shells and 358 basis functions

 Total QAlloc Memory Limit   3000 MB
 Mega-Array Size      1001 MB
 MEM_STATIC part      1024 MB
 Discretize the solute cavity surface with Lebedev spheres
	Using 302 Lebedev grid points for each H atom
	Using 302 Lebedev grid points for other atoms
	Atomic van der Waals radii will be scaled by 1.20
 Remove points where switching function is < 1.0e-08
 Keep 3977 surface tesserae and discard 6895 interior tesserae
 Molecular Surface Area = 326.071 Angst**2
 A cutoff of  1.0D-12 yielded  10095 shell pairs
 There are     41063 function pairs (     45829 Cartesian)
 
 -------------------------------------------------------
 OpenMP Integral Computing Module                       
 Release: version 1.0, May 2013, Q-Chem Inc. Pittsburgh 
 -------------------------------------------------------
 Integral Job Info:
 Integral job number is                      11
 Integral operator is                         1
 short-range coefficients                     0
 long-range coefficients              100000000
 Omega coefficients                           0
 if combine SR and LR in K                    0
 Integral screening is                        0
 Integral computing path is                   2
 max size of driver memory is            800000
 size of driver memory is                593474
 size of scratch memory is              1809772
 max col of scratch BK array               1296
 max len of scratch array in speh3          155
 max len of scratch index in speh4           18
 max int batch size is                      520
 min int batch size is                       52
 fixed nKL is                                52
 max L of basis functions is                  2
 order of int derivative is                   0
 number of shells is                        182
 number of basis is                         380
 number of cartesian basis is               380
 number of contracted shell pairs         10095
 number of primitive shell pairs          23385
 maxK2 (contraction) of shell pair           25
 max number of K2 of shell pair               1
 max number of CS2 of shell pair           2257
 max number of PS2 of shell pair           4310
 mem total for path MDJ                  617052
 -------------------------------------------------------
 Smallest overlap matrix eigenvalue = 2.90E-04

 Scale SEOQF with 1.000000e-02/1.000000e-02/1.000000e-01

 Standard Electronic Orientation quadrupole field applied
 Nucleus-field energy     =    -0.0000000709 hartrees
 Guess from superposition of atomic densities
 Warning:  Energy on first SCF cycle will be non-variational
 SAD guess density has 144.000000 electrons

 -----------------------------------------------------------------------
  General SCF calculation program by
  Eric Jon Sundstrom, Paul Horn, Yuezhi Mao, Dmitri Zuev, Alec White,
  David Stuck, Shaama M.S., Shane Yost, Joonho Lee, David Small,
  Daniel Levine, Susi Lehtola, Hugh Burton, Evgeny Epifanovsky
 -----------------------------------------------------------------------
 Exchange:     0.4200 Hartree-Fock + 0.5800 PBEh-3c
 Correlation:  1.0000 PBEh-3c
 Using SG-1 standard quadrature grid
 Dispersion:   Grimme D3
 using 4 threads for integral computing
 -------------------------------------------------------
 OpenMP Integral computing Module                
 Release: version 2.0, May 2017, Q-Chem Inc. Pleasanton 
 -------------------------------------------------------
 -------------------------------------------------------
 OpenMP BLAS3 based DFT computing Module                
 Release: version 1.0, May 2013, Q-Chem Inc. Pittsburgh 
 -------------------------------------------------------
 A restricted SCF calculation will be
 performed using DIIS
 SCF converges when DIIS error is below 1.0e-09
 ---------------------------------------
  Cycle       Energy         DIIS error
 ---------------------------------------
 Using non-symmetric K matrix
    1    -825.3004570668      4.39e-02  
    2    -818.3112044808      2.79e-03  
    3    -818.3816991444      2.18e-03  
    4    -818.4595683159      7.00e-04  
    5    -818.4668698244      2.73e-04  
    6    -818.4681520390      6.34e-05  
    7    -818.4682270573      1.20e-05  
    8    -818.4682294340      4.29e-06  
    9    -818.4682298264      1.23e-06  
   10    -818.4682298807      5.73e-07  
   11    -818.4682298923      2.06e-07  
   12    -818.4682298943      7.13e-08  
   13    -818.4682298946      2.42e-08  
   14    -818.4682298946      1.29e-08  
   15    -818.4682298946      3.39e-09  
   16    -818.4682298946      1.52e-09  
   17    -818.4682298946      4.43e-10  Convergence criterion met
 ---------------------------------------
 SCF time:   CPU 1058.41s  wall 283.00s 

************** Final PCM Free Energy Summary **************
 G_electrostatic  =      -0.00617218 hartree =      -3.87310424 kcal/mol
 G_cavitation     =       0.00000000 hartree =       0.00000000 kcal/mol
 G_dispersion     =       0.00000000 hartree =       0.00000000 kcal/mol
 G_repulsion      =       0.00000000 hartree =       0.00000000 kcal/mol
 --------------------------------------------------
 Non-electrostatic Free Energy =       0.00000000 hartree =       0.00000000 kcal/mol
 Total                         =      -0.00617218 hartree =      -3.87310424 kcal/mol
 --------------------------------------------------
 SCF Energy (H0 + V/2)                       =    -818.46822989 
 Solute Internal Energy (H0)                 =    -818.46205771 
 Total Free Energy (H0 + V/2 + non-elec)     =    -818.46822989 hartree
                                             = -513596.56597146 kcal/mol
***********************************************************

 SCF   energy in the final basis set =     -818.4682298946
 Total energy in the final basis set =     -818.4682298946
 
 --------------------------------------------------------------
 
                    Orbital Energies (a.u.)
 --------------------------------------------------------------
 
 Alpha MOs
 -- Occupied --
-10.469 -10.468 -10.467 -10.465 -10.464 -10.463 -10.463 -10.461
-10.460 -10.460 -10.459 -10.458 -10.457 -10.456 -10.454 -10.454
-10.438 -10.437 -10.436 -10.435  -6.953  -6.950  -1.000  -0.961
 -0.952  -0.901  -0.891  -0.851  -0.846  -0.838  -0.828  -0.790
 -0.739  -0.701  -0.692  -0.686  -0.679  -0.670  -0.617  -0.610
 -0.586  -0.578  -0.546  -0.531  -0.530  -0.526  -0.514  -0.514
 -0.498  -0.488  -0.484  -0.480  -0.473  -0.466  -0.443  -0.432
 -0.432  -0.428  -0.422  -0.409  -0.403  -0.379  -0.378  -0.362
 -0.360  -0.357  -0.333  -0.310  -0.309  -0.298  -0.284  -0.233
 -- Virtual --
 -0.077  -0.071  -0.012   0.007   0.023   0.049   0.058   0.063
  0.125   0.147   0.150   0.159   0.169   0.174   0.181   0.185
  0.186   0.193   0.206   0.209   0.214   0.215   0.223   0.226
  0.238   0.245   0.258   0.268   0.271   0.276   0.296   0.299
  0.307   0.309   0.316   0.318   0.332   0.337   0.339   0.360
  0.366   0.367   0.373   0.401   0.411   0.416   0.451   0.474
  0.485   0.492   0.496   0.502   0.511   0.520   0.526   0.528
  0.532   0.538   0.543   0.543   0.563   0.572   0.577   0.582
  0.585   0.588   0.600   0.604   0.604   0.608   0.609   0.621
  0.622   0.622   0.629   0.633   0.640   0.641   0.644   0.653
  0.657   0.670   0.681   0.682   0.702   0.722   0.729   0.733
  0.736   0.738   0.764   0.776   0.785   0.797   0.804   0.817
  0.832   0.844   0.847   0.852   0.858   0.872   0.896   0.915
  0.928   0.934   0.942   0.960   0.962   0.968   0.969   0.983
  0.987   1.004   1.019   1.023   1.028   1.040   1.056   1.059
  1.066   1.066   1.081   1.085   1.091   1.111   1.115   1.136
  1.139   1.147   1.150   1.171   1.184   1.201   1.242   1.256
  1.263   1.265   1.278   1.293   1.300   1.308   1.310   1.312
  1.325   1.332   1.339   1.360   1.375   1.420   1.434   1.442
  1.460   1.462   1.470   1.480   1.485   1.494   1.505   1.507
  1.512   1.522   1.526   1.535   1.538   1.544   1.550   1.552
  1.578   1.610   1.631   1.664   1.728   1.738   1.782   1.790
  1.824   1.841   1.871   1.871   1.892   1.915   1.923   1.928
  1.938   1.951   1.953   1.954   1.975   1.991   1.998   2.002
  2.012   2.031   2.052   2.071   2.075   2.083   2.116   2.118
  2.144   2.156   2.170   2.177   2.177   2.182   2.227   2.246
  2.250   2.255   2.265   2.296   2.302   2.308   2.323   2.343
  2.354   2.354   2.354   2.374   2.395   2.399   2.404   2.411
  2.420   2.430   2.438   2.453   2.484   2.528   2.531   2.584
  2.605   2.651   2.660   2.676   2.716   2.720   2.731   2.734
  2.756   2.776   2.781   2.790   2.791   2.800   2.822   2.830
  2.844   2.872   2.879   2.914   2.967   2.970   2.992   3.005
  3.024   3.072   3.118   3.227   3.406   3.468   3.546   3.575
  9.289   9.415  13.172  13.314  13.406  13.615  13.688  13.699
 13.735  13.785  13.789  14.024  14.088  14.129  14.141  14.172
 14.178  14.233  14.447  14.499  14.515  14.561
 --------------------------------------------------------------
 
          Ground-State Mulliken Net Atomic Charges

     Atom                 Charge (a.u.)
  ----------------------------------------
      1 C                    -0.123029
      2 C                    -0.119819
      3 B                     0.227284
      4 C                    -0.119026
      5 C                    -0.123088
      6 B                     0.229671
      7 C                    -0.281405
      8 C                    -0.224158
      9 C                    -0.224770
     10 C                    -0.281060
     11 C                    -0.363623
     12 C                     0.179981
     13 C                     0.181576
     14 C                    -0.361672
     15 H                     0.236567
     16 C                    -0.396514
     17 H                     0.236896
     18 H                     0.236958
     19 H                     0.236106
     20 C                    -0.397220
     21 C                     0.171971
     22 C                     0.173379
     23 C                    -0.310948
     24 C                    -0.309871
     25 H                     0.240704
     26 H                     0.240645
     27 H                     0.235344
     28 H                     0.235440
     29 C                    -0.236001
     30 C                    -0.236257
     31 H                     0.237401
     32 H                     0.242396
     33 H                     0.237445
     34 H                     0.242440
     35 H                     0.043912
     36 H                     0.042343
  ----------------------------------------
  Sum of atomic charges =    -0.000000

 -----------------------------------------------------------------
                    Cartesian Multipole Moments
 -----------------------------------------------------------------
    Charge (ESU x 10^10)
                -0.0000
    Dipole Moment (Debye)
         X      -1.5408      Y       0.8016      Z      -0.1791
       Tot       1.7460
    Quadrupole Moments (Debye-Ang)
        XX     -70.4960     XY     -19.7552     YY    -102.7968
        XZ       2.7262     YZ      -7.2637     ZZ    -134.1692
    Octopole Moments (Debye-Ang^2)
       XXX    2214.0555    XXY    -159.3618    XYY     816.7525
       YYY   -1399.1510    XXZ    -311.6522    XYZ      50.5419
       YYZ    -387.8873    XZZ    1214.6972    YZZ    -646.8572
       ZZZ   -1170.1438
    Hexadecapole Moments (Debye-Ang^3)
      XXXX  -48931.4519   XXXY    9849.7206   XXYY  -10267.4452
      XYYY   13551.1776   YYYY  -15288.1373   XXXZ    7070.7990
      XXYZ   -1604.6694   XYYZ    3106.5286   YYYZ   -4260.6951
      XXZZ  -13580.7959   XYZZ    6468.8024   YYZZ   -4694.1829
      XZZZ    9462.8961   YZZZ   -4793.3756   ZZZZ   -7568.5942
 -----------------------------------------------------------------
 Calculating analytic gradient of the SCF energy
  1.277651340581854E-004  1.277631293241098E-004
  1.277637329373847E-004  1.277645291278224E-004
  1.277665156467573E-004  1.277617030903053E-004
  1.277652533354743E-004  1.277630058617444E-004
  1.277642164537351E-004  1.277640491566818E-004
  1.277661880245717E-004  1.277620308320355E-004
  1.277699365490445E-004  1.277583411240640E-004
  1.277817578987996E-004  1.277465014521615E-004
  1.277608015610242E-004  1.277674277918905E-004
  1.277621023997503E-004  1.277661557371459E-004
  1.277623884028328E-004  1.277658779231780E-004
  1.277663008128867E-004  1.277619276606547E-004
  1.277651758691234E-004  1.277630927652984E-004
  1.277671259098685E-004  1.277611317912859E-004
  1.277652312839581E-004  1.277629957084906E-004
  1.277519511341326E-004  1.277763101433389E-004
  1.277516379886517E-004  1.277766339323157E-004
  1.277715618826616E-004  1.277566717567151E-004
  1.277496606372621E-004  1.277786018007549E-004
  1.277520702088801E-004  1.277762017749337E-004
  1.277665912071626E-004  1.277616487607592E-004
  1.277686454985319E-004  1.277596280829594E-004
  1.277740686967644E-004  1.277541895872128E-004
  1.277597967421576E-004  1.277684410610065E-004
  1.277570165139259E-004  1.277712383892344E-004
  1.277547081678953E-004  1.277735651961226E-004
  1.277658686502374E-004  1.277623726597980E-004
  1.277672030804262E-004  1.277610728581945E-004
  1.277816512193564E-004  1.277466095776623E-004
  1.277572723539270E-004  1.277709653113142E-004
  1.277574229919339E-004  1.277708446833575E-004
  1.277519918293659E-004  1.277762727290173E-004
  1.277674515519732E-004  1.277607713345962E-004
  1.277636145867340E-004  1.277646416820722E-004
  1.277643091577678E-004  1.277639560881615E-004
  1.277631740307516E-004  1.277650416620992E-004
  1.277634052648462E-004  1.277648562430127E-004
  1.277638375341963E-004  1.277644223301223E-004
  1.277637637948294E-004  1.277644514454536E-004
  1.277708229033262E-004  1.277574439046441E-004
  1.277762213287349E-004  1.277520435612133E-004
  1.277611584942969E-004  1.277670642572185E-004
  1.277624395196748E-004  1.277658373538922E-004
  1.277598675609887E-004  1.277684085185890E-004
  1.277644766812104E-004  1.277637738639222E-004
  1.277762080923628E-004  1.277520514586227E-004
  1.277789922440440E-004  1.277492822512755E-004
  1.277601089285028E-004  1.277681170266263E-004
  1.277667699990527E-004  1.277615125335807E-004
  1.277618627624527E-004  1.277664084689044E-004
  1.277644029382120E-004  1.277638593797269E-004
  1.277675599075534E-004  1.277607156672705E-004
  1.277629173776265E-004  1.277653598070722E-004
  1.277639338276400E-004  1.277643290600834E-004
  1.277668537824595E-004  1.277614236760191E-004
  1.277678950970915E-004  1.277603799829367E-004
  1.277627436869841E-004  1.277655069411930E-004
  1.277583328245561E-004  1.277699459947451E-004
  1.277456900018537E-004  1.277825675887126E-004
  1.277675077608750E-004  1.277607159971572E-004
  1.277651755645277E-004  1.277630825955219E-004
  1.277663427230896E-004  1.277619246379786E-004
  1.277625824355780E-004  1.277656406587145E-004
  1.277627629091708E-004  1.277655034575226E-004
  1.277614286324961E-004  1.277668308597213E-004
  1.277641545109422E-004  1.277640678569484E-004
  1.277619601262674E-004  1.277663164516000E-004
  1.277455463872616E-004  1.277827186998692E-004
  1.277685481109601E-004  1.277596869122069E-004
  1.277785061173261E-004  1.277497604323839E-004
  1.277767535665360E-004  1.277515203697719E-004
  1.277616465163788E-004  1.277665896919503E-004
  1.277617190530991E-004  1.277665485317026E-004
  1.277596306069537E-004  1.277686285805705E-004
  1.277640474852006E-004  1.277642022479095E-004
  1.277665322275512E-004  1.277617210092467E-004
  1.277678622986180E-004  1.277604077859292E-004
  1.277616345241114E-004  1.277666188622006E-004
  1.277648016202801E-004  1.277634763112888E-004
  1.277658308498275E-004  1.277624480057924E-004
  1.277636681841860E-004  1.277645869026240E-004
  1.277630434786652E-004  1.277652402629631E-004
  1.277626849468648E-004  1.277655887342742E-004
  1.277636185700337E-004  1.277646355007580E-004
  1.277708480860831E-004  1.277574071866622E-004
  1.277722763162541E-004  1.277560006628932E-004
  1.277623273586910E-004  1.277659094711635E-004
  1.277612438090903E-004  1.277670295346425E-004
  1.277539813073153E-004  1.277742793447502E-004
  1.277667722838655E-004  1.277614628433567E-004
  1.277606534532533E-004  1.277676227233166E-004
  1.277651044251854E-004  1.277631731881667E-004
  1.277639012757488E-004  1.277643601103238E-004
  1.277647623738991E-004  1.277635044884422E-004
  1.277685554398171E-004  1.277597055682681E-004
  1.277633075661400E-004  1.277649419097445E-004
  1.277612520582866E-004  1.277670302017851E-004
  1.277663408844486E-004  1.277619308970414E-004
  1.277631239375140E-004  1.277651366402603E-004
  1.277608562858507E-004  1.277673986782898E-004
  1.277611598758990E-004  1.277671117012879E-004
  1.277649274925302E-004  1.277633230447658E-004
  1.277642475886143E-004  1.277640285333687E-004
  1.277637943374678E-004  1.277644818047959E-004
  1.277658555952011E-004  1.277624035494618E-004
  1.277649638382904E-004  1.277633178548331E-004
  1.277645895397240E-004  1.277636832311055E-004
  1.277633367421768E-004  1.277649206573194E-004
 Gradient of SCF Energy
            1           2           3           4           5           6
    1  -0.0154807   0.0229483  -0.0095654   0.0127925  -0.0006189   0.0161923
    2  -0.0390347   0.0336876  -0.0251868   0.0097193  -0.0155346   0.0200960
    3   0.0117258  -0.0072811   0.0022359  -0.0002986   0.0066553  -0.0098943
            7           8           9          10          11          12
    1   0.0016911   0.0049504   0.0015323  -0.0086046  -0.0252455   0.0085295
    2   0.0104383   0.0004222  -0.0039752  -0.0068778   0.0255983  -0.0273443
    3  -0.0045697   0.0003999   0.0015378   0.0011862  -0.0087100   0.0072165
           13          14          15          16          17          18
    1   0.0276675  -0.0351512   0.0013195  -0.0082011   0.0009068   0.0017396
    2   0.0061860   0.0074313   0.0020486  -0.0070722  -0.0014244   0.0002500
    3   0.0000142  -0.0045886   0.0001216   0.0017159   0.0009208   0.0006678
           19          20          21          22          23          24
    1  -0.0006790   0.0023113  -0.0195505  -0.0024472   0.0382011   0.0300963
    2  -0.0016792   0.0119560  -0.0094768   0.0188749  -0.0088441  -0.0236724
    3   0.0004711  -0.0026807   0.0013348  -0.0055307   0.0054754   0.0089471
           25          26          27          28          29          30
    1   0.0011208   0.0000415  -0.0018614   0.0017128  -0.0314212  -0.0073655
    2   0.0005582  -0.0011973  -0.0031591   0.0035897  -0.0118219   0.0308334
    3   0.0002827   0.0006395   0.0005874  -0.0005901   0.0010776  -0.0092139
           31          32          33          34          35          36
    1  -0.0033254  -0.0026048  -0.0001463  -0.0018954  -0.0033201   0.0037305
    2  -0.0021792   0.0002602   0.0037565   0.0016537  -0.0061397   0.0072596
    3   0.0002133  -0.0003828  -0.0009622  -0.0007327   0.0022317  -0.0002230
 Max gradient component =       3.903E-02
 RMS gradient           =       1.255E-02
 Computing fast IEFPCM-SWIG gradient.
 Updating gradient with PCM contributions...
 -- total gradient after adding PCM contribution --
---------------------------------------------------
  Atom         X              Y              Z     
---------------------------------------------------
   1      -0.015083      -0.039368       0.011828
   2       0.023494       0.033555      -0.007228
   3      -0.009333      -0.024951       0.002055
   4       0.012264       0.009529      -0.000320
   5      -0.000737      -0.015033       0.006438
   6       0.016070       0.019763      -0.009815
   7       0.003241       0.011548      -0.004781
   8       0.007491       0.000442       0.000734
   9       0.002951      -0.005886       0.002463
  10      -0.008713      -0.008658       0.001866
  11      -0.025491       0.028090      -0.009396
  12       0.008481      -0.027719       0.007285
  13       0.027957       0.006427      -0.000047
  14      -0.037422       0.006276      -0.004361
  15       0.001250       0.001010       0.000412
  16      -0.009969      -0.009730       0.002372
  17       0.000786      -0.000805       0.000666
  18       0.001107      -0.000029       0.000688
  19       0.000178      -0.001073       0.000340
  20       0.003564       0.014866      -0.003413
  21      -0.019698      -0.009650       0.001374
  22      -0.002382       0.019089      -0.005582
  23       0.039187      -0.006162       0.004814
  24       0.028380      -0.025997       0.009454
  25      -0.000526       0.000526       0.000065
  26      -0.000858       0.000048       0.000029
  27      -0.000681      -0.001239       0.000113
  28       0.000755       0.001563      -0.000081
  29      -0.032828      -0.009717       0.000376
  30      -0.009975       0.030663      -0.009373
  31      -0.002053      -0.000153      -0.000252
  32      -0.000163       0.000353      -0.000213
  33      -0.001117       0.001603      -0.000436
  34      -0.000543      -0.000286      -0.000087
  35      -0.002707      -0.005123       0.001852
  36       0.003121       0.006230       0.000161
---------------------------------------------------
 Number of fixed atoms: 0
 Gradient time:  CPU 118.33 s  wall 43.11 s
 Geometry Optimization Parameters
   NAtoms,    NIC,     NZ,  NCons,   NDum,   NFix, NCnnct, MaxDiis
       36     282       0       0       0       0       0       0


** GEOMETRY OPTIMIZATION IN DELOCALIZED INTERNAL COORDINATES **
   Searching for a Minimum

   Optimization Cycle:   1

                       Coordinates (Angstroms)
     ATOM                X               Y               Z
      1  C        -7.5139600000    4.5557600000    2.8748900000
      2  C        -8.1885200000    3.3659400000    3.2282700000
      3  B        -7.3876800000    2.0977100000    3.7053000000
      4  C        -5.8233700000    2.1924900000    3.8390700000
      5  C        -5.1403400000    3.3713100000    3.4642800000
      6  B        -5.9358200000    4.6153900000    2.9067300000
      7  C        -3.7474600000    3.4409600000    3.6105800000
      8  C        -3.0415400000    2.3522500000    4.1314600000
      9  C        -3.7181900000    1.1853100000    4.4964000000
     10  C        -5.1045100000    1.1023900000    4.3478500000
     11  C        -8.2516600000    5.6914600000    2.5079700000
     12  C        -9.6549600000    5.6435100000    2.4740200000
     13  C       -10.3229500000    4.4358100000    2.7900800000
     14  C        -9.5842900000    3.3097200000    3.1699000000
     15  H        -7.7356800000    6.6125400000    2.2556600000
     16  C       -11.7205700000    4.3706300000    2.7258800000
     17  H        -5.6172800000    0.1929500000    4.6387700000
     18  H        -3.2096200000    4.3404900000    3.3357100000
     19  H       -10.0983700000    2.3895100000    3.4279400000
     20  C       -10.4014000000    6.7800200000    2.1255500000
     21  C       -11.8022200000    6.7146900000    2.0637600000
     22  C       -12.4646000000    5.4972400000    2.3570800000
     23  C       -12.5559600000    7.8426300000    1.7037700000
     24  C       -13.8632700000    5.4280900000    2.2738700000
     25  H        -1.9685800000    2.4145700000    4.2563000000
     26  H        -3.1685800000    0.3449600000    4.8997100000
     27  H       -12.2288100000    3.4399900000    2.9577300000
     28  H        -9.8934400000    7.7115600000    1.8968800000
     29  C       -13.9494700000    7.7597500000    1.6229700000
     30  C       -14.6005500000    6.5551400000    1.9040500000
     31  H       -14.3820300000    4.5009300000    2.4896900000
     32  H       -15.6788900000    6.4949200000    1.8351200000
     33  H       -12.0662700000    8.7831400000    1.4802100000
     34  H       -14.5266000000    8.6295900000    1.3382700000
     35  H        -5.3592100000    5.5830200000    2.5457700000
     36  H        -7.9611400000    1.1192900000    4.0395700000
   Point Group: c1    Number of degrees of freedom:   102


   Energy is   -818.468229895


 Attempting to Generate Delocalized Internal Coordinates

102 Hessian modes will be used to form the next step
  Hessian Eigenvalues:
     0.008314    0.008793    0.009141    0.014574    0.015726    0.017085
     0.017840    0.018519    0.019107    0.021240    0.021392    0.021499
     0.021511    0.021690    0.021810    0.021906    0.021920    0.022200
     0.022262    0.022295    0.022316    0.022355    0.022395    0.022413
     0.022414    0.022508    0.022581    0.022660    0.022679    0.022696
     0.022712    0.022777    0.022797    0.159348    0.159934    0.159982
     0.159990    0.159995    0.159996    0.159996    0.159997    0.159997
     0.159997    0.159998    0.159999    0.159999    0.160000    0.219996
     0.219998    0.224915    0.225166    0.229546    0.232433    0.234340
     0.236802    0.238509    0.241455    0.245327    0.245736    0.249854
     0.249983    0.249994    0.252194    0.253207    0.256328    0.257338
     0.259625    0.260016    0.353393    0.353464    0.353504    0.353738
     0.355011    0.355376    0.355549    0.355743    0.357277    0.357430
     0.357521    0.357544    0.367532    0.387308    0.403239    0.409457
     0.414558    0.415622    0.418213    0.424865    0.440172    0.443859
     0.445947    0.447360    0.452997    0.454030    0.454496    0.454534
     0.455603    0.456006    0.456300    0.456955    0.460413    0.460642

 Minimum Search - Taking Simple RFO Step
 Searching for Lamda that Minimizes Along All modes
 Value Taken    Lamda =  -0.01622975
 Step Taken.  Stepsize is  0.261249

                             Maximum     Tolerance    Cnvgd?
         Gradient           0.038245      0.000300      NO
         Displacement       0.105485      0.001200      NO
         Energy change     *********      0.000001      NO


 New Cartesian Coordinates Obtained by Inverse Iteration

 Displacement from previous Coordinates is:  0.623946
 Adding empirical dispersion correction 
 ----------------------------------------------------------------
 Doing -D3(BJ) with
 s6 =   1.00000
 s8 =   0.00000
 a1 =   0.48600
 a2 =   4.50000
 -D3 energy including 3body term =     -0.0282420608 hartrees
 ----------------------------------------------------------------
 Adding gCP correction 
 ----------------------------------------------------------------
 gCP energy =      0.0451460479 hartrees
 ----------------------------------------------------------------
             Standard Nuclear Orientation (Angstroms)
    I     Atom           X                Y                Z
 ----------------------------------------------------------------
    1      C      -7.5058090595     4.5709940371     2.9388309536
    2      C      -8.1863649227     3.3608939385     3.2878263707
    3      B      -7.3894441022     2.1265688835     3.7570176637
    4      C      -5.8458062204     2.2079699071     3.8527287410
    5      C      -5.1707095385     3.3944301813     3.4941622980
    6      B      -5.9643151984     4.6290962210     2.9925620537
    7      C      -3.7816764076     3.4461186072     3.6103504343
    8      C      -3.0631287278     2.3520388347     4.0758923589
    9      C      -3.7264442800     1.1854661809     4.4238620414
   10      C      -5.1088405792     1.1152808103     4.3095126288
   11      C      -8.2304041888     5.6757535114     2.5611435945
   12      C      -9.6486233409     5.6471958234     2.5000457663
   13      C     -10.3252153582     4.4303054522     2.8262256002
   14      C      -9.5570515440     3.3056465266     3.2217842840
   15      H      -7.7111082346     6.5906120961     2.3014430690
   16      C     -11.7142396800     4.3758659253     2.7487785596
   17      H      -5.6194841052     0.2002536200     4.5837366867
   18      H      -3.2530970703     4.3512060162     3.3378644941
   19      H     -10.0671913524     2.3846227489     3.4792886363
   20      C     -10.3943690877     6.7617617788     2.1240300756
   21      C     -11.7894049787     6.7102123002     2.0462061279
   22      C     -12.4635823710     5.4886841142     2.3602064512
   23      C     -12.5579896117     7.8328734321     1.6570444903
   24      C     -13.8748895506     5.4393202330     2.2656520988
   25      H      -1.9857211238     2.4067624703     4.1673139439
   26      H      -3.1655015104     0.3323815442     4.7843598378
   27      H     -12.2234472381     3.4507271211     2.9908099129
   28      H      -9.8833161952     7.6856833250     1.8832075400
   29      C     -13.9195573525     7.7482695021     1.5760904358
   30      C     -14.5831106112     6.5423947129     1.8808570795
   31      H     -14.3966120936     4.5194733468     2.4972788011
   32      H     -15.6613525257     6.4870023901     1.8101033499
   33      H     -12.0632823005     8.7656823725     1.4192962114
   34      H     -14.4910394578     8.6158658447     1.2740636104
   35      H      -5.3852446232     5.6110889440     2.6360413122
   36      H      -7.9604154573     1.1171572465     4.0454424865
 ----------------------------------------------------------------
 Nuclear Repulsion Energy =  1439.2100755613 hartrees
 There are       72 alpha and       72 beta electrons
 Discretize the solute cavity surface with Lebedev spheres
	Using 302 Lebedev grid points for each H atom
	Using 302 Lebedev grid points for other atoms
	Atomic van der Waals radii will be scaled by 1.20
 Remove points where switching function is < 1.0e-08
 Keep 3973 surface tesserae and discard 6899 interior tesserae
 Molecular Surface Area = 324.249 Angst**2
 Applying Cartesian multipole field
    Component          Value
    ---------          -----
     (2,0,0)        1.00000E-12
     (0,2,0)        2.00000E-12
     (0,0,2)       -3.00000E-11
 Nucleus-field energy     =    -0.0000000714 hartrees
 Requested basis set is def2-mSVP
 There are 182 shells and 358 basis functions
 A cutoff of  1.0D-12 yielded  10142 shell pairs
 There are     41220 function pairs (     46009 Cartesian)
 Smallest overlap matrix eigenvalue = 2.86E-04
 Guess MOs from SCF MO coefficient file

 -----------------------------------------------------------------------
  General SCF calculation program by
  Eric Jon Sundstrom, Paul Horn, Yuezhi Mao, Dmitri Zuev, Alec White,
  David Stuck, Shaama M.S., Shane Yost, Joonho Lee, David Small,
  Daniel Levine, Susi Lehtola, Hugh Burton, Evgeny Epifanovsky
 -----------------------------------------------------------------------
 Exchange:     0.4200 Hartree-Fock + 0.5800 PBEh-3c
 Correlation:  1.0000 PBEh-3c
 Using SG-1 standard quadrature grid
 Dispersion:   Grimme D3
 using 4 threads for integral computing
 -------------------------------------------------------
 OpenMP Integral computing Module                
 Release: version 2.0, May 2017, Q-Chem Inc. Pleasanton 
 -------------------------------------------------------
 -------------------------------------------------------
 OpenMP BLAS3 based DFT computing Module                
 Release: version 1.0, May 2013, Q-Chem Inc. Pittsburgh 
 -------------------------------------------------------
 A restricted SCF calculation will be
 performed using DIIS
 SCF converges when DIIS error is below 1.0e-09
 ---------------------------------------
  Cycle       Energy         DIIS error
 ---------------------------------------
 Using non-symmetric K matrix
    1    -818.0789487064      5.47e-04  
    2    -818.4765200094      2.05e-04  
    3    -818.4771829446      1.61e-04  
    4    -818.4776290969      3.21e-05  
    5    -818.4776476480      1.65e-05  
    6    -818.4776525841      5.26e-06  
    7    -818.4776531465      1.62e-06  
    8    -818.4776532023      9.38e-07  
    9    -818.4776532206      1.91e-07  
   10    -818.4776532219      7.76e-08  
   11    -818.4776532220      2.39e-08  
   12    -818.4776532221      1.08e-08  
   13    -818.4776532221      4.73e-09  
   14    -818.4776532221      1.43e-09  
   15    -818.4776532221      7.24e-10  Convergence criterion met
 ---------------------------------------
 SCF time:   CPU 961.76s  wall 257.00s 

************** Final PCM Free Energy Summary **************
 G_electrostatic  =      -0.00596559 hartree =      -3.74346664 kcal/mol
 G_cavitation     =       0.00000000 hartree =       0.00000000 kcal/mol
 G_dispersion     =       0.00000000 hartree =       0.00000000 kcal/mol
 G_repulsion      =       0.00000000 hartree =       0.00000000 kcal/mol
 --------------------------------------------------
 Non-electrostatic Free Energy =       0.00000000 hartree =       0.00000000 kcal/mol
 Total                         =      -0.00596559 hartree =      -3.74346664 kcal/mol
 --------------------------------------------------
 SCF Energy (H0 + V/2)                       =    -818.47765322 
 Solute Internal Energy (H0)                 =    -818.47168763 
 Total Free Energy (H0 + V/2 + non-elec)     =    -818.47765322 hartree
                                             = -513602.47919870 kcal/mol
***********************************************************

 SCF   energy in the final basis set =     -818.4776532221
 Total energy in the final basis set =     -818.4776532221
 
 --------------------------------------------------------------
 
                    Orbital Energies (a.u.)
 --------------------------------------------------------------
 
 Alpha MOs
 -- Occupied --
-10.470 -10.470 -10.468 -10.467 -10.463 -10.463 -10.462 -10.462
-10.458 -10.458 -10.457 -10.457 -10.455 -10.455 -10.452 -10.452
-10.433 -10.433 -10.432 -10.431  -6.945  -6.944  -0.999  -0.962
 -0.956  -0.905  -0.891  -0.853  -0.847  -0.839  -0.830  -0.799
 -0.737  -0.706  -0.690  -0.687  -0.682  -0.668  -0.619  -0.612
 -0.588  -0.581  -0.548  -0.535  -0.530  -0.524  -0.515  -0.514
 -0.497  -0.490  -0.486  -0.481  -0.473  -0.465  -0.444  -0.435
 -0.434  -0.425  -0.424  -0.412  -0.398  -0.381  -0.377  -0.366
 -0.358  -0.355  -0.339  -0.313  -0.312  -0.300  -0.283  -0.240
 -- Virtual --
 -0.078  -0.068  -0.010   0.004   0.026   0.053   0.060   0.070
  0.127   0.147   0.150   0.159   0.171   0.173   0.182   0.185
  0.187   0.194   0.208   0.210   0.214   0.217   0.225   0.228
  0.239   0.249   0.259   0.269   0.271   0.277   0.299   0.302
  0.307   0.313   0.318   0.321   0.330   0.335   0.340   0.358
  0.365   0.371   0.377   0.397   0.416   0.419   0.456   0.484
  0.485   0.491   0.498   0.508   0.516   0.518   0.524   0.526
  0.531   0.537   0.539   0.548   0.572   0.573   0.580   0.583
  0.585   0.593   0.601   0.602   0.603   0.610   0.615   0.624
  0.627   0.629   0.631   0.638   0.643   0.645   0.649   0.655
  0.657   0.672   0.683   0.689   0.704   0.724   0.737   0.741
  0.742   0.744   0.778   0.780   0.788   0.794   0.813   0.820
  0.837   0.848   0.850   0.861   0.863   0.883   0.908   0.918
  0.929   0.937   0.942   0.960   0.961   0.971   0.973   0.985
  0.990   1.005   1.017   1.024   1.027   1.050   1.051   1.065
  1.068   1.070   1.081   1.085   1.090   1.111   1.122   1.137
  1.144   1.146   1.150   1.173   1.189   1.199   1.251   1.252
  1.266   1.267   1.277   1.287   1.299   1.307   1.309   1.313
  1.324   1.339   1.340   1.353   1.379   1.414   1.439   1.443
  1.461   1.464   1.472   1.478   1.481   1.495   1.507   1.507
  1.513   1.524   1.527   1.537   1.543   1.548   1.553   1.557
  1.581   1.613   1.636   1.672   1.740   1.757   1.788   1.794
  1.818   1.846   1.862   1.866   1.900   1.911   1.926   1.937
  1.938   1.949   1.960   1.977   1.980   1.996   2.002   2.014
  2.021   2.034   2.051   2.075   2.078   2.086   2.124   2.126
  2.147   2.169   2.175   2.179   2.182   2.190   2.247   2.248
  2.258   2.268   2.279   2.307   2.309   2.313   2.322   2.331
  2.355   2.357   2.371   2.389   2.406   2.412   2.417   2.422
  2.424   2.430   2.446   2.456   2.486   2.536   2.560   2.599
  2.630   2.664   2.672   2.684   2.718   2.735   2.737   2.751
  2.755   2.767   2.787   2.792   2.802   2.809   2.827   2.836
  2.867   2.889   2.906   2.917   2.967   2.994   3.003   3.007
  3.049   3.083   3.144   3.251   3.404   3.497   3.545   3.587
  9.332   9.459  13.173  13.319  13.414  13.627  13.674  13.709
 13.753  13.769  13.810  14.006  14.124  14.140  14.153  14.173
 14.206  14.243  14.474  14.511  14.542  14.557
 --------------------------------------------------------------
 
          Ground-State Mulliken Net Atomic Charges

     Atom                 Charge (a.u.)
  ----------------------------------------
      1 C                    -0.097757
      2 C                    -0.099004
      3 B                     0.210381
      4 C                    -0.107343
      5 C                    -0.109538
      6 B                     0.211529
      7 C                    -0.285382
      8 C                    -0.221464
      9 C                    -0.221885
     10 C                    -0.285348
     11 C                    -0.357450
     12 C                     0.167048
     13 C                     0.164159
     14 C                    -0.355918
     15 H                     0.234020
     16 C                    -0.390749
     17 H                     0.235128
     18 H                     0.235093
     19 H                     0.233894
     20 C                    -0.391622
     21 C                     0.155159
     22 C                     0.154038
     23 C                    -0.293139
     24 C                    -0.292276
     25 H                     0.240775
     26 H                     0.240810
     27 H                     0.233392
     28 H                     0.233356
     29 C                    -0.235477
     30 C                    -0.235835
     31 H                     0.236457
     32 H                     0.241972
     33 H                     0.236425
     34 H                     0.241914
     35 H                     0.037669
     36 H                     0.036967
  ----------------------------------------
  Sum of atomic charges =     0.000000

 -----------------------------------------------------------------
                    Cartesian Multipole Moments
 -----------------------------------------------------------------
    Charge (ESU x 10^10)
                 0.0000
    Dipole Moment (Debye)
         X      -1.6168      Y       0.8297      Z      -0.2498
       Tot       1.8344
    Quadrupole Moments (Debye-Ang)
        XX     -68.3113     XY     -21.3309     YY    -102.9079
        XZ       3.0852     YZ      -7.3906     ZZ    -134.2807
    Octopole Moments (Debye-Ang^2)
       XXX    2175.0173    XXY    -133.3471    XYY     809.0992
       YYY   -1403.3355    XXZ    -313.8311    XYZ      49.9160
       YYZ    -391.8130    XZZ    1212.7910    YZZ    -644.6091
       ZZZ   -1172.8857
    Hexadecapole Moments (Debye-Ang^3)
      XXXX  -48276.0362   XXXY    9469.7519   XXYY  -10110.2277
      XYYY   13523.6552   YYYY  -15324.6095   XXXZ    7084.9632
      XXYZ   -1596.7656   XYYZ    3133.1522   YYYZ   -4311.3765
      XXZZ  -13542.8701   XYZZ    6437.5800   YYZZ   -4690.9591
      XZZZ    9468.0697   YZZZ   -4786.3265   ZZZZ   -7598.3298
 -----------------------------------------------------------------
 Calculating analytic gradient of the SCF energy
  1.309235074047845E-004  1.309213162476967E-004
  1.309217222825209E-004  1.309230999462636E-004
  1.309236915776962E-004  1.309210869664573E-004
  1.309237213677051E-004  1.309210979277209E-004
  1.309222889886207E-004  1.309225370732720E-004
  1.309236196871819E-004  1.309211592384412E-004
  1.309285329839190E-004  1.309163053867227E-004
  1.309397468005121E-004  1.309050724428025E-004
  1.309177049118419E-004  1.309270842707757E-004
  1.309207456915716E-004  1.309240732378219E-004
  1.309204221327670E-004  1.309244053402736E-004
  1.309238857460097E-004  1.309209015742431E-004
  1.309235331488388E-004  1.309212959188185E-004
  1.309250973395441E-004  1.309197214643885E-004
  1.309226865605444E-004  1.309220994463699E-004
  1.309104739658275E-004  1.309343475784383E-004
  1.309088199965687E-004  1.309360131619188E-004
  1.309281866006368E-004  1.309166056296049E-004
  1.309079178961865E-004  1.309369062220243E-004
  1.309101319331360E-004  1.309347011814186E-004
  1.309251432749879E-004  1.309196556802789E-004
  1.309266886277241E-004  1.309181461452541E-004
  1.309326522485733E-004  1.309121677167781E-004
  1.309185698618038E-004  1.309262274908124E-004
  1.309154269013409E-004  1.309293896277478E-004
  1.309131202806428E-004  1.309317151894210E-004
  1.309244611364586E-004  1.309203389510306E-004
  1.309252857040128E-004  1.309195513503175E-004
  1.309403642227619E-004  1.309044579383930E-004
  1.309161301057960E-004  1.309286669446871E-004
  1.309152345809013E-004  1.309295937509961E-004
  1.309104338108007E-004  1.309343907805867E-004
  1.309254965117664E-004  1.309192867406766E-004
  1.309222480493409E-004  1.309225685995225E-004
  1.309224285164706E-004  1.309223963751243E-004
  1.309215837772980E-004  1.309231926460034E-004
  1.309220980430392E-004  1.309227235321629E-004
  1.309221548273195E-004  1.309226653789483E-004
  1.309220548809420E-004  1.309227211268675E-004
  1.309287418518555E-004  1.309160854559966E-004
  1.309347321163699E-004  1.309100931904179E-004
  1.309190866517141E-004  1.309256966900257E-004
  1.309203717496506E-004  1.309244658462706E-004
  1.309180630299087E-004  1.309267731771578E-004
  1.309232668795410E-004  1.309215442940497E-004
  1.309345048911445E-004  1.309103153945523E-004
  1.309373560014411E-004  1.309074788970226E-004
  1.309184088134017E-004  1.309263782684058E-004
  1.309250706385060E-004  1.309197726890323E-004
  1.309204165036167E-004  1.309244158242417E-004
  1.309229553526446E-004  1.309218672432927E-004
  1.309256352183776E-004  1.309192015893211E-004
  1.309212648580436E-004  1.309235730465827E-004
  1.309225809669819E-004  1.309222423186593E-004
  1.309250540749393E-004  1.309197834958287E-004
  1.309264874269325E-004  1.309183485849576E-004
  1.309211694755212E-004  1.309236417884404E-004
  1.309164156320242E-004  1.309284244065015E-004
  1.309041699122018E-004  1.309406475991723E-004
  1.309265434607897E-004  1.309182412329644E-004
  1.309231928280141E-004  1.309216260009795E-004
  1.309247202625690E-004  1.309201067495384E-004
  1.309211608314700E-004  1.309236234313605E-004
  1.309207959282897E-004  1.309240310347694E-004
  1.309201557534748E-004  1.309246637597501E-004
  1.309225695420572E-004  1.309222139266503E-004
  1.309202845749318E-004  1.309245529226511E-004
  1.309036997019253E-004  1.309411253999694E-004
  1.309275405730103E-004  1.309172553053455E-004
  1.309372328045608E-004  1.309075940848014E-004
  1.309349192244986E-004  1.309099152606719E-004
  1.309198683090326E-004  1.309249288516026E-004
  1.309200201758028E-004  1.309248084213162E-004
  1.309180336724744E-004  1.309267864868634E-004
  1.309229622226937E-004  1.309218479550588E-004
  1.309247812224448E-004  1.309200331347838E-004
  1.309264255551489E-004  1.309184063261308E-004
  1.309205618087873E-004  1.309242509471590E-004
  1.309230052561294E-004  1.309218334586451E-004
  1.309242145960756E-004  1.309206250345816E-004
  1.309219567634118E-004  1.309228592991358E-004
  1.309211968750747E-004  1.309236478544988E-004
  1.309209241561387E-004  1.309239101880563E-004
  1.309223041656352E-004  1.309225109458885E-004
  1.309293280369324E-004  1.309154877646554E-004
  1.309308550339743E-004  1.309139823976730E-004
  1.309204924473835E-004  1.309243052288284E-004
  1.309191560533737E-004  1.309256778767386E-004
  1.309121480793509E-004  1.309326731127604E-004
  1.309252924648937E-004  1.309195033050259E-004
  1.309190519152967E-004  1.309257852328861E-004
  1.309234113699437E-004  1.309214269100274E-004
  1.309220752556168E-004  1.309227471690564E-004
  1.309232084748129E-004  1.309216195301971E-004
  1.309267090351160E-004  1.309181124176206E-004
  1.309214564049717E-004  1.309233537417120E-004
  1.309196337713721E-004  1.309252091940461E-004
  1.309244866712783E-004  1.309203462195521E-004
  1.309215185091426E-004  1.309233031776182E-004
  1.309192258952335E-004  1.309255898973857E-004
  1.309194062628381E-004  1.309254260359158E-004
  1.309232168903636E-004  1.309215945572228E-004
  1.309223847557596E-004  1.309224522182482E-004
  1.309218874448973E-004  1.309229496280360E-004
  1.309239825368933E-004  1.309208367212916E-004
  1.309232241294757E-004  1.309216180886026E-004
  1.309230468345400E-004  1.309217866475401E-004
  1.309222029908781E-004  1.309226148493206E-004
 Gradient of SCF Energy
            1           2           3           4           5           6
    1  -0.0042136   0.0087309  -0.0028991   0.0036821  -0.0023349   0.0024771
    2  -0.0124776   0.0099526  -0.0042818   0.0051377  -0.0062330   0.0054441
    3   0.0034545  -0.0034725   0.0025887  -0.0021120   0.0015054  -0.0006913
            7           8           9          10          11          12
    1  -0.0017833  -0.0036324  -0.0014032  -0.0014938  -0.0044895   0.0046806
    2   0.0006182  -0.0006696   0.0031457   0.0008608   0.0045574  -0.0052452
    3  -0.0001791  -0.0000434  -0.0011698  -0.0005156  -0.0014772   0.0017959
           13          14          15          16          17          18
    1   0.0072796  -0.0065756   0.0007190  -0.0020501   0.0007620   0.0007703
    2  -0.0007991   0.0010391  -0.0002005  -0.0005164  -0.0003892  -0.0003656
    3   0.0008540  -0.0007413   0.0002275   0.0000502   0.0002280   0.0002874
           19          20          21          22          23          24
    1   0.0006008  -0.0002959  -0.0049223  -0.0039719   0.0069607   0.0076959
    2  -0.0005059   0.0019781   0.0015286   0.0027776  -0.0044549  -0.0026918
    3   0.0001137  -0.0004671  -0.0007804  -0.0011146   0.0019220   0.0013744
           25          26          27          28          29          30
    1   0.0016582   0.0010660  -0.0007066   0.0006799  -0.0046633   0.0034841
    2  -0.0001421  -0.0012230  -0.0013078   0.0013209  -0.0071339   0.0078595
    3   0.0003086   0.0005614   0.0002714  -0.0001499   0.0017972  -0.0020460
           31          32          33          34          35          36
    1  -0.0024092  -0.0023377  -0.0005212  -0.0005848  -0.0011335   0.0011747
    2  -0.0010183  -0.0008615   0.0024776   0.0023116  -0.0025207   0.0020284
    3   0.0000518   0.0000088  -0.0006641  -0.0007558  -0.0001875  -0.0008331
 Max gradient component =       1.248E-02
 RMS gradient           =       3.292E-03
 Computing fast IEFPCM-SWIG gradient.
 Updating gradient with PCM contributions...
 -- total gradient after adding PCM contribution --
---------------------------------------------------
  Atom         X              Y              Z     
---------------------------------------------------
   1      -0.003802      -0.012862       0.003589
   2       0.009344       0.009842      -0.003439
   3      -0.002601      -0.003863       0.002496
   4       0.003134       0.004946      -0.002141
   5      -0.002485      -0.005710       0.001294
   6       0.002264       0.004989      -0.000503
   7      -0.000286       0.001497      -0.000320
   8      -0.001069      -0.000701       0.000228
   9       0.000077       0.001211      -0.000336
  10      -0.001418      -0.000780       0.000080
  11      -0.004886       0.006848      -0.002159
  12       0.004702      -0.005467       0.001846
  13       0.007487      -0.000684       0.000837
  14      -0.008779       0.000084      -0.000575
  15       0.000727      -0.001155       0.000511
  16      -0.003789      -0.003057       0.000702
  17       0.000569       0.000166       0.000008
  18       0.000167      -0.000536       0.000283
  19       0.001421       0.000001       0.000007
  20       0.000900       0.004784      -0.001224
  21      -0.005079       0.001446      -0.000767
  22      -0.003991       0.002947      -0.001164
  23       0.007897      -0.001817       0.001213
  24       0.005964      -0.004934       0.001899
  25      -0.000042      -0.000142       0.000132
  26       0.000103       0.000073       0.000001
  27       0.000454       0.000547      -0.000210
  28      -0.000250      -0.000649       0.000380
  29      -0.006015      -0.005019       0.001056
  30       0.000878       0.007672      -0.002199
  31      -0.001098       0.001007      -0.000450
  32       0.000177      -0.000750       0.000180
  33      -0.001499       0.000305      -0.000093
  34       0.000767       0.000301      -0.000051
  35      -0.000456      -0.001392      -0.000613
  36       0.000513       0.000851      -0.000500
---------------------------------------------------
 Number of fixed atoms: 0
 Gradient time:  CPU 119.10 s  wall 43.04 s
 Geometry Optimization Parameters
   NAtoms,    NIC,     NZ,  NCons,   NDum,   NFix, NCnnct, MaxDiis
       36     282       0       0       0       0       0       0

 Cartesian Hessian Update
 Hessian Updated using BFGS Update


** GEOMETRY OPTIMIZATION IN DELOCALIZED INTERNAL COORDINATES **
   Searching for a Minimum

   Optimization Cycle:   2

                       Coordinates (Angstroms)
     ATOM                X               Y               Z
      1  C        -7.5058090595    4.5709940371    2.9388309536
      2  C        -8.1863649227    3.3608939385    3.2878263707
      3  B        -7.3894441022    2.1265688835    3.7570176637
      4  C        -5.8458062204    2.2079699071    3.8527287410
      5  C        -5.1707095385    3.3944301813    3.4941622980
      6  B        -5.9643151984    4.6290962210    2.9925620537
      7  C        -3.7816764076    3.4461186072    3.6103504343
      8  C        -3.0631287278    2.3520388347    4.0758923589
      9  C        -3.7264442800    1.1854661809    4.4238620414
     10  C        -5.1088405792    1.1152808103    4.3095126288
     11  C        -8.2304041888    5.6757535114    2.5611435945
     12  C        -9.6486233409    5.6471958234    2.5000457663
     13  C       -10.3252153582    4.4303054522    2.8262256002
     14  C        -9.5570515440    3.3056465266    3.2217842840
     15  H        -7.7111082346    6.5906120961    2.3014430690
     16  C       -11.7142396800    4.3758659253    2.7487785596
     17  H        -5.6194841052    0.2002536200    4.5837366867
     18  H        -3.2530970703    4.3512060162    3.3378644941
     19  H       -10.0671913524    2.3846227489    3.4792886363
     20  C       -10.3943690877    6.7617617788    2.1240300756
     21  C       -11.7894049787    6.7102123002    2.0462061279
     22  C       -12.4635823710    5.4886841142    2.3602064512
     23  C       -12.5579896117    7.8328734321    1.6570444903
     24  C       -13.8748895506    5.4393202330    2.2656520988
     25  H        -1.9857211238    2.4067624703    4.1673139439
     26  H        -3.1655015104    0.3323815442    4.7843598378
     27  H       -12.2234472381    3.4507271211    2.9908099129
     28  H        -9.8833161952    7.6856833250    1.8832075400
     29  C       -13.9195573525    7.7482695021    1.5760904358
     30  C       -14.5831106112    6.5423947129    1.8808570795
     31  H       -14.3966120936    4.5194733468    2.4972788011
     32  H       -15.6613525257    6.4870023901    1.8101033499
     33  H       -12.0632823005    8.7656823725    1.4192962114
     34  H       -14.4910394578    8.6158658447    1.2740636104
     35  H        -5.3852446232    5.6110889440    2.6360413122
     36  H        -7.9604154573    1.1171572465    4.0454424865
   Point Group: c1    Number of degrees of freedom:   102


   Energy is   -818.477653222

 Hessian Updated using BFGS Update

102 Hessian modes will be used to form the next step
  Hessian Eigenvalues:
     0.008302    0.008893    0.009476    0.014584    0.015726    0.017081
     0.017822    0.018526    0.019104    0.021232    0.021389    0.021501
     0.021510    0.021689    0.021810    0.021915    0.021919    0.022200
     0.022262    0.022291    0.022316    0.022363    0.022395    0.022409
     0.022414    0.022509    0.022581    0.022661    0.022679    0.022698
     0.022713    0.022777    0.022797    0.156323    0.159348    0.159935
     0.159983    0.159992    0.159995    0.159996    0.159996    0.159997
     0.159997    0.159998    0.159999    0.160000    0.160342    0.216164
     0.219996    0.219998    0.225398    0.225688    0.229633    0.233654
     0.236827    0.238529    0.241454    0.245329    0.245733    0.249854
     0.249979    0.249994    0.253095    0.253358    0.257268    0.259136
     0.259883    0.265668    0.353408    0.353478    0.353655    0.353782
     0.355059    0.355362    0.355586    0.355725    0.357275    0.357431
     0.357513    0.357547    0.366051    0.381783    0.389012    0.408670
     0.411462    0.414775    0.415692    0.418295    0.430114    0.440205
     0.445305    0.447172    0.450890    0.453761    0.454383    0.454612
     0.455406    0.456048    0.456954    0.457878    0.460635    0.479120

 Minimum Search - Taking Simple RFO Step
 Searching for Lamda that Minimizes Along All modes
 Value Taken    Lamda =  -0.00144234
 Step Taken.  Stepsize is  0.171484

                             Maximum     Tolerance    Cnvgd?
         Gradient           0.010193      0.000300      NO
         Displacement       0.057521      0.001200      NO
         Energy change     -0.009423      0.000001      NO


 New Cartesian Coordinates Obtained by Inverse Iteration

 Displacement from previous Coordinates is:  0.367186
 Adding empirical dispersion correction 
 ----------------------------------------------------------------
 Doing -D3(BJ) with
 s6 =   1.00000
 s8 =   0.00000
 a1 =   0.48600
 a2 =   4.50000
 -D3 energy including 3body term =     -0.0282300960 hartrees
 ----------------------------------------------------------------
 Adding gCP correction 
 ----------------------------------------------------------------
 gCP energy =      0.0451632345 hartrees
 ----------------------------------------------------------------
             Standard Nuclear Orientation (Angstroms)
    I     Atom           X                Y                Z
 ----------------------------------------------------------------
    1      C      -7.5046492852     4.5855866056     2.9651592279
    2      C      -8.1908744882     3.3631512895     3.3115972804
    3      B      -7.3846286594     2.1289064822     3.7548580547
    4      C      -5.8431171625     2.2046798221     3.8566826965
    5      C      -5.1669862820     3.4009750023     3.5133595794
    6      B      -5.9664813396     4.6357286174     3.0297511452
    7      C      -3.7765707264     3.4444139431     3.6191676981
    8      C      -3.0543307510     2.3410392338     4.0565987849
    9      C      -3.7173069877     1.1689706245     4.3908726103
   10      C      -5.1010107104     1.1052993895     4.2885860422
   11      C      -8.2302913255     5.6788906656     2.5801050532
   12      C      -9.6540484340     5.6537824039     2.5058168269
   13      C     -10.3318103876     4.4384981650     2.8420952133
   14      C      -9.5551620275     3.3144189604     3.2446789569
   15      H      -7.7187244408     6.5975021615     2.3134051332
   16      C     -11.7153724847     4.3857159896     2.7646326513
   17      H      -5.6136596330     0.1859458686     4.5469466181
   18      H      -3.2506458565     4.3538981533     3.3535408263
   19      H     -10.0749009943     2.3967118766     3.4994076218
   20      C     -10.3977107720     6.7564553094     2.1108727389
   21      C     -11.7898342521     6.7070173657     2.0304254522
   22      C     -12.4652071363     5.4907741668     2.3642082512
   23      C     -12.5647618065     7.8257865532     1.6216121367
   24      C     -13.8825992918     5.4463163520     2.2733441229
   25      H      -1.9756425755     2.3924964799     4.1348563115
   26      H      -3.1559663616     0.3067937711     4.7286035338
   27      H     -12.2262315139     3.4632926940     3.0183370720
   28      H      -9.8859353269     7.6774446547     1.8553904592
   29      C     -13.9208035355     7.7442267081     1.5461374186
   30      C     -14.5888268556     6.5387284032     1.8757503317
   31      H     -14.3952935190     4.5258487539     2.5246477176
   32      H     -15.6678922324     6.4899007861     1.8094199379
   33      H     -12.0588455470     8.7493469377     1.3688091417
   34      H     -14.4965759874     8.6052858932     1.2327853903
   35      H      -5.3888083094     5.6438751294     2.7383699107
   36      H      -7.9562830010     1.1179547873     4.0502280522
 ----------------------------------------------------------------
 Nuclear Repulsion Energy =  1438.4570965834 hartrees
 There are       72 alpha and       72 beta electrons
 Discretize the solute cavity surface with Lebedev spheres
	Using 302 Lebedev grid points for each H atom
	Using 302 Lebedev grid points for other atoms
	Atomic van der Waals radii will be scaled by 1.20
 Remove points where switching function is < 1.0e-08
 Keep 3989 surface tesserae and discard 6883 interior tesserae
 Molecular Surface Area = 324.373 Angst**2
 Applying Cartesian multipole field
    Component          Value
    ---------          -----
     (2,0,0)        1.00000E-12
     (0,2,0)        2.00000E-12
     (0,0,2)       -3.00000E-11
 Nucleus-field energy     =    -0.0000000715 hartrees
 Requested basis set is def2-mSVP
 There are 182 shells and 358 basis functions
 A cutoff of  1.0D-12 yielded  10129 shell pairs
 There are     41177 function pairs (     45968 Cartesian)
 Smallest overlap matrix eigenvalue = 2.84E-04
 Guess MOs from SCF MO coefficient file

 -----------------------------------------------------------------------
  General SCF calculation program by
  Eric Jon Sundstrom, Paul Horn, Yuezhi Mao, Dmitri Zuev, Alec White,
  David Stuck, Shaama M.S., Shane Yost, Joonho Lee, David Small,
  Daniel Levine, Susi Lehtola, Hugh Burton, Evgeny Epifanovsky
 -----------------------------------------------------------------------
 Exchange:     0.4200 Hartree-Fock + 0.5800 PBEh-3c
 Correlation:  1.0000 PBEh-3c
 Using SG-1 standard quadrature grid
 Dispersion:   Grimme D3
 using 4 threads for integral computing
 -------------------------------------------------------
 OpenMP Integral computing Module                
 Release: version 2.0, May 2017, Q-Chem Inc. Pleasanton 
 -------------------------------------------------------
 -------------------------------------------------------
 OpenMP BLAS3 based DFT computing Module                
 Release: version 1.0, May 2013, Q-Chem Inc. Pittsburgh 
 -------------------------------------------------------
 A restricted SCF calculation will be
 performed using DIIS
 SCF converges when DIIS error is below 1.0e-09
 ---------------------------------------
  Cycle       Energy         DIIS error
 ---------------------------------------
 Using non-symmetric K matrix
    1    -818.0975015918      2.92e-04  
    2    -818.4774720103      1.71e-04  
    3    -818.4781453614      9.72e-05  
    4    -818.4783086392      3.68e-05  
    5    -818.4783308410      1.77e-05  
    6    -818.4783363134      5.66e-06  
    7    -818.4783369141      1.64e-06  
    8    -818.4783369661      7.37e-07  
    9    -818.4783369778      1.52e-07  
   10    -818.4783369785      6.55e-08  
   11    -818.4783369786      1.80e-08  
   12    -818.4783369787      7.95e-09  
   13    -818.4783369787      2.90e-09  
   14    -818.4783369787      1.11e-09  
   15    -818.4783369787      4.52e-10  Convergence criterion met
 ---------------------------------------
 SCF time:   CPU 958.03s  wall 255.00s 

************** Final PCM Free Energy Summary **************
 G_electrostatic  =      -0.00595867 hartree =      -3.73911969 kcal/mol
 G_cavitation     =       0.00000000 hartree =       0.00000000 kcal/mol
 G_dispersion     =       0.00000000 hartree =       0.00000000 kcal/mol
 G_repulsion      =       0.00000000 hartree =       0.00000000 kcal/mol
 --------------------------------------------------
 Non-electrostatic Free Energy =       0.00000000 hartree =       0.00000000 kcal/mol
 Total                         =      -0.00595867 hartree =      -3.73911969 kcal/mol
 --------------------------------------------------
 SCF Energy (H0 + V/2)                       =    -818.47833698 
 Solute Internal Energy (H0)                 =    -818.47237831 
 Total Free Energy (H0 + V/2 + non-elec)     =    -818.47833698 hartree
                                             = -513602.90826244 kcal/mol
***********************************************************

 SCF   energy in the final basis set =     -818.4783369787
 Total energy in the final basis set =     -818.4783369787
 
 --------------------------------------------------------------
 
                    Orbital Energies (a.u.)
 --------------------------------------------------------------
 
 Alpha MOs
 -- Occupied --
-10.471 -10.470 -10.468 -10.468 -10.463 -10.462 -10.462 -10.462
-10.458 -10.458 -10.457 -10.457 -10.456 -10.455 -10.453 -10.453
-10.434 -10.434 -10.432 -10.431  -6.945  -6.944  -0.999  -0.961
 -0.956  -0.906  -0.891  -0.853  -0.847  -0.840  -0.830  -0.800
 -0.736  -0.707  -0.689  -0.687  -0.683  -0.667  -0.620  -0.612
 -0.588  -0.581  -0.549  -0.536  -0.529  -0.523  -0.515  -0.514
 -0.497  -0.491  -0.486  -0.480  -0.473  -0.464  -0.445  -0.436
 -0.435  -0.424  -0.424  -0.413  -0.397  -0.380  -0.376  -0.366
 -0.359  -0.352  -0.342  -0.313  -0.311  -0.300  -0.283  -0.242
 -- Virtual --
 -0.078  -0.068  -0.010   0.002   0.026   0.054   0.059   0.072
  0.127   0.147   0.150   0.158   0.172   0.172   0.181   0.185
  0.188   0.193   0.208   0.209   0.215   0.217   0.224   0.228
  0.240   0.247   0.259   0.269   0.270   0.276   0.296   0.304
  0.306   0.313   0.317   0.321   0.328   0.334   0.341   0.356
  0.365   0.372   0.378   0.394   0.415   0.419   0.455   0.483
  0.487   0.491   0.497   0.508   0.516   0.518   0.523   0.527
  0.530   0.536   0.538   0.549   0.571   0.572   0.580   0.583
  0.585   0.594   0.600   0.601   0.602   0.611   0.615   0.624
  0.625   0.631   0.632   0.639   0.642   0.647   0.651   0.655
  0.656   0.673   0.682   0.687   0.701   0.723   0.737   0.740
  0.744   0.745   0.779   0.782   0.788   0.794   0.814   0.820
  0.837   0.849   0.851   0.862   0.862   0.884   0.912   0.918
  0.929   0.937   0.942   0.960   0.960   0.970   0.973   0.985
  0.989   1.005   1.017   1.025   1.026   1.049   1.053   1.065
  1.067   1.071   1.080   1.085   1.087   1.110   1.122   1.136
  1.142   1.147   1.149   1.174   1.189   1.199   1.251   1.252
  1.266   1.267   1.276   1.283   1.298   1.306   1.308   1.310
  1.323   1.339   1.340   1.350   1.377   1.412   1.441   1.442
  1.462   1.465   1.471   1.479   1.480   1.496   1.505   1.508
  1.516   1.524   1.527   1.536   1.544   1.548   1.553   1.558
  1.580   1.612   1.636   1.672   1.739   1.759   1.790   1.794
  1.816   1.843   1.858   1.866   1.900   1.909   1.926   1.936
  1.940   1.946   1.958   1.976   1.982   1.996   2.000   2.011
  2.028   2.035   2.050   2.074   2.076   2.084   2.123   2.123
  2.142   2.169   2.174   2.180   2.182   2.188   2.247   2.247
  2.255   2.268   2.281   2.305   2.307   2.309   2.325   2.327
  2.352   2.355   2.376   2.391   2.403   2.414   2.417   2.425
  2.426   2.433   2.443   2.454   2.484   2.535   2.564   2.601
  2.636   2.665   2.675   2.682   2.715   2.731   2.736   2.755
  2.755   2.762   2.782   2.795   2.799   2.811   2.824   2.836
  2.863   2.892   2.909   2.915   2.960   2.999   3.004   3.009
  3.055   3.085   3.152   3.243   3.397   3.496   3.540   3.592
  9.335   9.463  13.173  13.319  13.415  13.628  13.671  13.707
 13.755  13.763  13.814  13.994  14.131  14.134  14.153  14.168
 14.213  14.248  14.478  14.510  14.538  14.557
 --------------------------------------------------------------
 
          Ground-State Mulliken Net Atomic Charges

     Atom                 Charge (a.u.)
  ----------------------------------------
      1 C                    -0.095301
      2 C                    -0.097040
      3 B                     0.209430
      4 C                    -0.107569
      5 C                    -0.109290
      6 B                     0.210322
      7 C                    -0.284895
      8 C                    -0.221224
      9 C                    -0.221604
     10 C                    -0.284808
     11 C                    -0.355829
     12 C                     0.165621
     13 C                     0.162067
     14 C                    -0.354146
     15 H                     0.233012
     16 C                    -0.389421
     17 H                     0.235275
     18 H                     0.235250
     19 H                     0.232859
     20 C                    -0.390633
     21 C                     0.151682
     22 C                     0.149858
     23 C                    -0.289282
     24 C                    -0.288301
     25 H                     0.241400
     26 H                     0.241453
     27 H                     0.232891
     28 H                     0.232838
     29 C                    -0.236116
     30 C                    -0.236683
     31 H                     0.235841
     32 H                     0.242228
     33 H                     0.235796
     34 H                     0.242194
     35 H                     0.036270
     36 H                     0.035854
  ----------------------------------------
  Sum of atomic charges =    -0.000000

 -----------------------------------------------------------------
                    Cartesian Multipole Moments
 -----------------------------------------------------------------
    Charge (ESU x 10^10)
                -0.0000
    Dipole Moment (Debye)
         X      -1.5913      Y       0.7778      Z      -0.3535
       Tot       1.8062
    Quadrupole Moments (Debye-Ang)
        XX     -68.3731     XY     -21.2402     YY    -103.4949
        XZ       3.7811     YZ      -8.0440     ZZ    -134.9165
    Octopole Moments (Debye-Ang^2)
       XXX    2172.2306    XXY    -130.7355    XYY     812.0126
       YYY   -1410.1936    XXZ    -318.2526    XYZ      54.4873
       YYZ    -397.3879    XZZ    1215.6670    YZZ    -646.8640
       ZZZ   -1177.1654
    Hexadecapole Moments (Debye-Ang^3)
      XXXX  -48215.4563   XXXY    9408.0871   XXYY  -10118.7651
      XYYY   13579.0712   YYYY  -15401.6220   XXXZ    7104.7496
      XXYZ   -1632.6635   XYYZ    3179.3925   YYYZ   -4360.2933
      XXZZ  -13554.9898   XYZZ    6450.8435   YYZZ   -4709.1947
      XZZZ    9482.6744   YZZZ   -4793.8233   ZZZZ   -7628.5379
 -----------------------------------------------------------------
 Calculating analytic gradient of the SCF energy
  1.315477247957753E-004  1.315454336665198E-004
  1.315457974809778E-004  1.315473597682749E-004
  1.315473905290171E-004  1.315457227499988E-004
  1.315479031023342E-004  1.315452511133496E-004
  1.315462523887275E-004  1.315469086501133E-004
  1.315473172826587E-004  1.315457963228409E-004
  1.315526410009955E-004  1.315405322795042E-004
  1.315640648578488E-004  1.315290894700248E-004
  1.315423696934404E-004  1.315507539361291E-004
  1.315449864930591E-004  1.315481675110702E-004
  1.315444189784466E-004  1.315487438940307E-004
  1.315477605066314E-004  1.315453610629355E-004
  1.315478072719035E-004  1.315453567720653E-004
  1.315491222267833E-004  1.315440318562922E-004
  1.315464595845717E-004  1.315466608652903E-004
  1.315346718994207E-004  1.315584845265271E-004
  1.315327982266541E-004  1.315603703117637E-004
  1.315517862688551E-004  1.315413400667396E-004
  1.315320742218399E-004  1.315610849752270E-004
  1.315342616203285E-004  1.315589068705104E-004
  1.315493142797464E-004  1.315438189099064E-004
  1.315507930587815E-004  1.315423768731528E-004
  1.315570056886608E-004  1.315361496374870E-004
  1.315430270887957E-004  1.315501047837868E-004
  1.315395060991671E-004  1.315536456007509E-004
  1.315373049236157E-004  1.315558663052813E-004
  1.315486671678321E-004  1.315444670426713E-004
  1.315494619403132E-004  1.315437100503185E-004
  1.315646842082119E-004  1.315284732529352E-004
  1.315406385506445E-004  1.315524929473021E-004
  1.315394498727454E-004  1.315537134352852E-004
  1.315345708494228E-004  1.315585882989377E-004
  1.315496748335857E-004  1.315434433800693E-004
  1.315465432870214E-004  1.315466082449341E-004
  1.315465992666987E-004  1.315465601175677E-004
  1.315458211140402E-004  1.315472905652072E-004
  1.315463677275065E-004  1.315467887227863E-004
  1.315462020008709E-004  1.315469529018435E-004
  1.315461327270061E-004  1.315469784025703E-004
  1.315529985925968E-004  1.315401633846933E-004
  1.315588003089613E-004  1.315343599801646E-004
  1.315429560070415E-004  1.315501622453540E-004
  1.315444204964239E-004  1.315487521545814E-004
  1.315423067746344E-004  1.315508641843203E-004
  1.315477456622351E-004  1.315454006291326E-004
  1.315586584002930E-004  1.315344967290504E-004
  1.315614758119270E-004  1.315316936047792E-004
  1.315423731395343E-004  1.315507491647554E-004
  1.315491696706972E-004  1.315440085949534E-004
  1.315446572208393E-004  1.315485103583502E-004
  1.315472300615758E-004  1.315459273376324E-004
  1.315497313675389E-004  1.315434405563380E-004
  1.315455389380575E-004  1.315476340530640E-004
  1.315469428732414E-004  1.315462151890463E-004
  1.315491721016798E-004  1.315440003710723E-004
  1.315507701734715E-004  1.315424009629380E-004
  1.315453291896874E-004  1.315478170278198E-004
  1.315405659001129E-004  1.315526090054584E-004
  1.315284997061096E-004  1.315646522473103E-004
  1.315512872505044E-004  1.315418327188856E-004
  1.315472838114581E-004  1.315458701229923E-004
  1.315489277600582E-004  1.315442336105691E-004
  1.315455127478698E-004  1.315476070311449E-004
  1.315449411717781E-004  1.315482207437543E-004
  1.315443935082500E-004  1.315487606430632E-004
  1.315468466114950E-004  1.315462722247345E-004
  1.315442959296055E-004  1.315488765576614E-004
  1.315280101816979E-004  1.315651496176593E-004
  1.315521993766436E-004  1.315409320188326E-004
  1.315613370139213E-004  1.315318253312490E-004
  1.315591359215204E-004  1.315340328563485E-004
  1.315437370458856E-004  1.315493955612061E-004
  1.315441544397584E-004  1.315490093455214E-004
  1.315422868025013E-004  1.315508684106312E-004
  1.315473692074040E-004  1.315457758189637E-004
  1.315489268057671E-004  1.315442226151829E-004
  1.315507100818541E-004  1.315424574391022E-004
  1.315450241667728E-004  1.315481229816307E-004
  1.315471723548885E-004  1.315460013211351E-004
  1.315483542067730E-004  1.315448202131225E-004
  1.315460603396388E-004  1.315470908320469E-004
  1.315453571747033E-004  1.315478225068495E-004
  1.315451905646649E-004  1.315479784331431E-004
  1.315467659828668E-004  1.315463843891161E-004
  1.315534068743976E-004  1.315397438870357E-004
  1.315550315574315E-004  1.315381401169552E-004
  1.315445307998685E-004  1.315486021477648E-004
  1.315432359972571E-004  1.315499328220591E-004
  1.315364164238137E-004  1.315567392510894E-004
  1.315496255031266E-004  1.315435053604556E-004
  1.315433606388239E-004  1.315498119988968E-004
  1.315474824600099E-004  1.315456903730146E-004
  1.315461884340146E-004  1.315469691376379E-004
  1.315474493172752E-004  1.315457138525995E-004
  1.315507606809565E-004  1.315423953941245E-004
  1.315455005524728E-004  1.315476446026428E-004
  1.315439279049809E-004  1.315492499348017E-004
  1.315486160167376E-004  1.315445519369700E-004
[...]
    2  -0.0000478   0.0008807   0.0009289   0.0025143  -0.0006004   0.0001198
    3  -0.0000045  -0.0001398  -0.0002822  -0.0006964   0.0001627   0.0000026
           19          20          21          22          23          24
    1  -0.0008318  -0.0011621   0.0001259   0.0000470  -0.0009577   0.0016621
    2  -0.0004887  -0.0027529   0.0000479  -0.0000890  -0.0025291   0.0022509
    3   0.0000742   0.0008430   0.0000060   0.0000340   0.0007850  -0.0005976
           25          26          27          28          29          30
    1   0.0017415   0.0009763  -0.0011765   0.0009460   0.0014080   0.0026321
    2  -0.0000643  -0.0014125  -0.0018412   0.0019791  -0.0020408   0.0001771
    3   0.0000902   0.0004499   0.0004958  -0.0005600   0.0008295   0.0001842
           31          32          33          34          35          36
    1  -0.0012502  -0.0025205   0.0010503  -0.0013787  -0.0006926   0.0006658
    2  -0.0020027  -0.0000383   0.0021437   0.0020023  -0.0012229   0.0011994
    3   0.0005456  -0.0002150  -0.0005937  -0.0007659   0.0003555  -0.0003627
 Max gradient component =       2.753E-03
 RMS gradient           =       1.100E-03
 Computing fast IEFPCM-SWIG gradient.
 Updating gradient with PCM contributions...
 -- total gradient after adding PCM contribution --
---------------------------------------------------
  Atom         X              Y              Z     
---------------------------------------------------
   1       0.000013       0.000000      -0.000004
   2      -0.000015      -0.000015       0.000016
   3      -0.000003      -0.000016      -0.000055
   4      -0.000000      -0.000016       0.000011
   5       0.000005      -0.000029      -0.000003
   6      -0.000003      -0.000014       0.000028
   7      -0.000015      -0.000013       0.000003
   8      -0.000020      -0.000040       0.000003
   9      -0.000011      -0.000017      -0.000015
  10      -0.000032      -0.000025      -0.000019
  11       0.000014       0.000011       0.000007
  12      -0.000023      -0.000035       0.000013
  13       0.000019       0.000052      -0.000016
  14      -0.000006      -0.000013      -0.000009
  15       0.000009       0.000002       0.000028
  16      -0.000009      -0.000023       0.000001
  17      -0.000017      -0.000024      -0.000024
  18       0.000000      -0.000025       0.000023
  19      -0.000007      -0.000002      -0.000025
  20       0.000037       0.000039       0.000010
  21      -0.000022      -0.000026       0.000020
  22       0.000026       0.000068      -0.000021
  23       0.000032       0.000041       0.000012
  24      -0.000001       0.000005      -0.000002
  25      -0.000011      -0.000032       0.000004
  26      -0.000021      -0.000034      -0.000016
  27      -0.000002       0.000015      -0.000023
  28       0.000012       0.000009       0.000025
  29       0.000012       0.000031       0.000013
  30       0.000009       0.000029      -0.000005
  31       0.000001       0.000025      -0.000020
  32       0.000009       0.000039      -0.000008
  33       0.000018       0.000024       0.000025
  34       0.000014       0.000033       0.000015
  35       0.000005      -0.000010       0.000019
  36      -0.000017      -0.000012      -0.000014
---------------------------------------------------
 Number of fixed atoms: 0
 Gradient time:  CPU 118.31 s  wall 42.58 s
 Geometry Optimization Parameters
   NAtoms,    NIC,     NZ,  NCons,   NDum,   NFix, NCnnct, MaxDiis
       36     282       0       0       0       0       0       0

 Cartesian Hessian Update
 Hessian Updated using BFGS Update


** GEOMETRY OPTIMIZATION IN DELOCALIZED INTERNAL COORDINATES **
   Searching for a Minimum

   Optimization Cycle:   8

                       Coordinates (Angstroms)
     ATOM                X               Y               Z
      1  C        -7.5094099554    4.6123639152    3.0392783678
      2  C        -8.1970812594    3.3873624498    3.3850676261
      3  B        -7.3878757490    2.1527289813    3.8245781826
      4  C        -5.8430772413    2.2123783531    3.8821873978
      5  C        -5.1663504624    3.4105560340    3.5447176310
      6  B        -5.9705194928    4.6631089748    3.1159895193
      7  C        -3.7728913398    3.4371355312    3.6000583141
      8  C        -3.0479483055    2.3128480077    3.9763097348
      9  C        -3.7116309776    1.1397986765    4.3059731705
     10  C        -5.0993211799    1.0946190897    4.2590073278
     11  C        -8.2350226552    5.7000781369    2.6378905490
     12  C        -9.6576545305    5.6659700361    2.5402510737
     13  C       -10.3348186078    4.4535379648    2.8816323289
     14  C        -9.5603282060    3.3350561119    3.3045578970
     15  H        -7.7269851974    6.6226699477    2.3769780821
     16  C       -11.7173099245    4.3926284153    2.7864422506
     17  H        -5.6128586656    0.1758193692    4.5175103837
     18  H        -3.2466036593    4.3490605483    3.3437172869
     19  H       -10.0834824567    2.4197070379    3.5620179971
     20  C       -10.3989037767    6.7614658996    2.1194501681
     21  C       -11.7902149068    6.7028358534    2.0187968743
     22  C       -12.4645846474    5.4904647463    2.3597453212
     23  C       -12.5624576262    7.8132211626    1.5817393211
     24  C       -13.8805934835    5.4370872972    2.2499635901
     25  H        -1.9665547243    2.3501306160    4.0121395729
     26  H        -3.1484821668    0.2625219985    4.5983629230
     27  H       -12.2287247127    3.4716086593    3.0445795964
     28  H        -9.8878578563    7.6815642928    1.8587292973
     29  C       -13.9178179706    7.7249246481    1.4874587265
     30  C       -14.5862094356    6.5208824539    1.8257490938
     31  H       -14.3900610769    4.5166594362    2.5084562667
     32  H       -15.6639877955    6.4697596666    1.7439536207
     33  H       -12.0534210418    8.7333924886    1.3223230403
     34  H       -14.4950847690    8.5766014324    1.1523925893
     35  H        -5.3930964379    5.6744076905    2.8360610510
     36  H        -7.9585677060    1.1407040769    4.1169938263
   Point Group: c1    Number of degrees of freedom:   102


   Energy is   -818.478428764

 Hessian Updated using BFGS Update

102 Hessian modes will be used to form the next step
  Hessian Eigenvalues:
     0.004291    0.011267    0.015296    0.015878    0.017043    0.018340
     0.018546    0.020006    0.021029    0.021318    0.021464    0.021500
     0.021688    0.021783    0.021907    0.021966    0.022190    0.022257
     0.022299    0.022318    0.022357    0.022395    0.022414    0.022468
     0.022530    0.022659    0.022678    0.022679    0.022725    0.022775
     0.022797    0.028985    0.032058    0.146433    0.159338    0.159578
     0.159937    0.159983    0.159989    0.159992    0.159996    0.159997
     0.159997    0.159998    0.159999    0.160037    0.160081    0.213617
     0.219981    0.219999    0.224220    0.225768    0.229293    0.232213
     0.236819    0.238526    0.241450    0.245244    0.245683    0.249777
     0.249968    0.249991    0.253068    0.253307    0.257268    0.259433
     0.259920    0.266720    0.352735    0.353443    0.353495    0.353666
     0.354980    0.355365    0.355503    0.355744    0.357292    0.357444
     0.357520    0.357564    0.363747    0.377461    0.389761    0.406822
     0.409639    0.414613    0.415661    0.418282    0.429906    0.440087
     0.444868    0.446886    0.450315    0.453505    0.454095    0.454830
     0.456007    0.456912    0.457661    0.459332    0.470657    0.480891

 Minimum Search - Taking Simple RFO Step
 Searching for Lamda that Minimizes Along All modes
 Value Taken    Lamda =   0.00000000
 Step Taken.  Stepsize is  0.001395

                             Maximum     Tolerance    Cnvgd?
         Gradient           0.000045      0.000300     YES
         Displacement       0.000610      0.001200     YES
         Energy change     -0.000001      0.000001      NO

 Final energy is   -818.478428763901     


 ******************************
 **  OPTIMIZATION CONVERGED  **
 ******************************

                       Coordinates (Angstroms)
     ATOM                X               Y               Z
      1  C        -7.5094099554    4.6123639152    3.0392783678
      2  C        -8.1970812594    3.3873624498    3.3850676261
      3  B        -7.3878757490    2.1527289813    3.8245781826
      4  C        -5.8430772413    2.2123783531    3.8821873978
      5  C        -5.1663504624    3.4105560340    3.5447176310
      6  B        -5.9705194928    4.6631089748    3.1159895193
      7  C        -3.7728913398    3.4371355312    3.6000583141
      8  C        -3.0479483055    2.3128480077    3.9763097348
      9  C        -3.7116309776    1.1397986765    4.3059731705
     10  C        -5.0993211799    1.0946190897    4.2590073278
     11  C        -8.2350226552    5.7000781369    2.6378905490
     12  C        -9.6576545305    5.6659700361    2.5402510737
     13  C       -10.3348186078    4.4535379648    2.8816323289
     14  C        -9.5603282060    3.3350561119    3.3045578970
     15  H        -7.7269851974    6.6226699477    2.3769780821
     16  C       -11.7173099245    4.3926284153    2.7864422506
     17  H        -5.6128586656    0.1758193692    4.5175103837
     18  H        -3.2466036593    4.3490605483    3.3437172869
     19  H       -10.0834824567    2.4197070379    3.5620179971
     20  C       -10.3989037767    6.7614658996    2.1194501681
     21  C       -11.7902149068    6.7028358534    2.0187968743
     22  C       -12.4645846474    5.4904647463    2.3597453212
     23  C       -12.5624576262    7.8132211626    1.5817393211
     24  C       -13.8805934835    5.4370872972    2.2499635901
     25  H        -1.9665547243    2.3501306160    4.0121395729
     26  H        -3.1484821668    0.2625219985    4.5983629230
     27  H       -12.2287247127    3.4716086593    3.0445795964
     28  H        -9.8878578563    7.6815642928    1.8587292973
     29  C       -13.9178179706    7.7249246481    1.4874587265
     30  C       -14.5862094356    6.5208824539    1.8257490938
     31  H       -14.3900610769    4.5166594362    2.5084562667
     32  H       -15.6639877955    6.4697596666    1.7439536207
     33  H       -12.0534210418    8.7333924886    1.3223230403
     34  H       -14.4950847690    8.5766014324    1.1523925893
     35  H        -5.3930964379    5.6744076905    2.8360610510
     36  H        -7.9585677060    1.1407040769    4.1169938263

Z-matrix Print:
$molecule
0 1
C 
C  1 1.387103
H  2 1.084646 1 119.399170
C  2 1.394896 1 121.357229 3 -179.723829 0
C  4 1.421261 2 121.857687 1 179.582622 0
H  5 1.083311 4 118.817937 2 0.162609 0
C  5 1.361052 4 120.709633 2 -179.728314 0
H  7 1.082086 5 120.152935 4 179.899910 0
C  7 1.418064 5 120.404816 4 -0.096460 0
H  9 1.082063 7 119.387350 5 -179.978220 0
C  9 1.361502 7 120.514720 5 0.024805 0
H  11 1.083111 9 120.422133 7 179.958151 0
C  11 1.421384 9 120.762639 7 0.066975 0
C  13 1.396179 11 122.057583 9 179.693114 0
H  14 1.084308 13 119.207020 11 0.114323 0
C  14 1.388033 13 121.391269 11 -179.606224 0
C  1 1.424676 2 121.851284 3 0.301457 0
H  17 1.085283 1 118.068153 2 -0.417609 0
C  17 1.366624 1 121.986699 2 179.256618 0
C  16 1.426386 14 122.310186 13 179.382928 0
H  20 1.085059 16 118.089566 14 0.381790 0
C  20 1.367753 16 122.018294 14 -179.269109 0
B  19 1.540228 17 120.677990 1 -179.013597 0
H  23 1.198078 19 119.768512 17 -1.033472 0
B  22 1.541637 20 121.197867 16 178.988162 0
H  25 1.197707 22 119.828911 20 0.903978 0
C  23 1.547023 19 120.287800 17 178.630175 0
C  27 1.394472 23 120.780466 19 -179.016315 0
H  28 1.083853 27 119.422024 23 -0.228067 0
C  28 1.389220 27 121.053659 23 179.662182 0
H  30 1.082702 28 120.154876 27 -179.856519 0
C  30 1.387515 28 119.818923 27 0.110783 0
H  32 1.082629 30 119.935839 28 -179.992130 0
C  32 1.389651 30 119.920024 28 -0.030755 0
H  34 1.083650 32 119.440909 30 -179.969848 0
C  34 1.394811 32 121.097264 30 -0.080143 0
$end

 
 --------------------------------------------------------------
 
                    Orbital Energies (a.u.)
 --------------------------------------------------------------
 
 Alpha MOs
 -- Occupied --
-10.471 -10.470 -10.468 -10.468 -10.463 -10.462 -10.462 -10.462
-10.458 -10.458 -10.457 -10.457 -10.456 -10.455 -10.453 -10.453
-10.434 -10.434 -10.432 -10.432  -6.945  -6.945  -0.999  -0.961
 -0.956  -0.905  -0.891  -0.853  -0.847  -0.840  -0.830  -0.800
 -0.736  -0.707  -0.690  -0.687  -0.683  -0.667  -0.619  -0.612
 -0.588  -0.581  -0.549  -0.536  -0.529  -0.523  -0.515  -0.514
 -0.497  -0.491  -0.486  -0.480  -0.473  -0.464  -0.445  -0.436
 -0.434  -0.424  -0.424  -0.413  -0.397  -0.380  -0.376  -0.366
 -0.358  -0.352  -0.342  -0.313  -0.311  -0.300  -0.283  -0.242
 -- Virtual --
 -0.078  -0.068  -0.010   0.002   0.026   0.053   0.059   0.072
  0.127   0.147   0.150   0.158   0.171   0.173   0.181   0.185
  0.188   0.193   0.208   0.209   0.215   0.217   0.224   0.228
  0.240   0.247   0.259   0.269   0.270   0.276   0.296   0.304
  0.306   0.313   0.317   0.321   0.328   0.334   0.341   0.355
  0.365   0.372   0.378   0.393   0.415   0.419   0.455   0.483
  0.487   0.491   0.498   0.508   0.516   0.518   0.523   0.527
  0.530   0.536   0.538   0.548   0.571   0.572   0.579   0.583
  0.584   0.594   0.600   0.601   0.602   0.611   0.614   0.624
  0.625   0.630   0.632   0.639   0.642   0.647   0.651   0.656
  0.656   0.673   0.682   0.687   0.701   0.723   0.737   0.740
  0.743   0.744   0.779   0.781   0.787   0.794   0.813   0.820
  0.837   0.849   0.852   0.861   0.862   0.884   0.911   0.918
  0.929   0.936   0.942   0.960   0.960   0.970   0.972   0.985
  0.989   1.005   1.018   1.026   1.026   1.049   1.053   1.064
  1.066   1.070   1.080   1.085   1.086   1.109   1.122   1.136
  1.142   1.147   1.149   1.174   1.189   1.199   1.251   1.252
  1.266   1.267   1.276   1.283   1.298   1.307   1.307   1.310
  1.322   1.338   1.339   1.351   1.377   1.412   1.440   1.442
  1.462   1.465   1.472   1.479   1.479   1.496   1.505   1.507
  1.516   1.524   1.528   1.536   1.544   1.548   1.553   1.558
  1.580   1.612   1.636   1.671   1.738   1.758   1.791   1.794
  1.815   1.843   1.857   1.865   1.899   1.909   1.925   1.936
  1.939   1.946   1.958   1.976   1.982   1.997   1.999   2.011
  2.027   2.035   2.050   2.073   2.075   2.084   2.122   2.123
  2.141   2.169   2.174   2.180   2.182   2.188   2.247   2.247
  2.255   2.268   2.280   2.305   2.307   2.309   2.325   2.327
  2.352   2.355   2.375   2.390   2.402   2.413   2.415   2.425
  2.425   2.432   2.442   2.453   2.484   2.535   2.563   2.601
  2.635   2.663   2.675   2.682   2.715   2.731   2.735   2.754
  2.755   2.761   2.781   2.796   2.799   2.811   2.824   2.836
  2.862   2.892   2.908   2.915   2.959   2.999   3.004   3.007
  3.054   3.084   3.151   3.241   3.396   3.495   3.539   3.591
  9.334   9.462  13.173  13.318  13.414  13.627  13.672  13.707
 13.754  13.763  13.813  13.992  14.129  14.135  14.153  14.167
 14.213  14.246  14.476  14.508  14.538  14.556
 --------------------------------------------------------------
 
          Ground-State Mulliken Net Atomic Charges

     Atom                 Charge (a.u.)
  ----------------------------------------
      1 C                    -0.096934
      2 C                    -0.098286
      3 B                     0.209993
      4 C                    -0.108000
      5 C                    -0.109643
      6 B                     0.211102
      7 C                    -0.284628
      8 C                    -0.221200
      9 C                    -0.221802
     10 C                    -0.284377
     11 C                    -0.355471
     12 C                     0.165761
     13 C                     0.162103
     14 C                    -0.353647
     15 H                     0.233050
     16 C                    -0.389268
     17 H                     0.235408
     18 H                     0.235369
     19 H                     0.232898
     20 C                    -0.390558
     21 C                     0.151958
     22 C                     0.150182
     23 C                    -0.289662
     24 C                    -0.288670
     25 H                     0.241412
     26 H                     0.241473
     27 H                     0.233187
     28 H                     0.233139
     29 C                    -0.236371
     30 C                    -0.236966
     31 H                     0.235858
     32 H                     0.242286
     33 H                     0.235820
     34 H                     0.242245
     35 H                     0.036350
     36 H                     0.035890
  ----------------------------------------
  Sum of atomic charges =    -0.000000

 -----------------------------------------------------------------
                    Cartesian Multipole Moments
 -----------------------------------------------------------------
    Charge (ESU x 10^10)
                -0.0000
    Dipole Moment (Debye)
         X      -1.5771      Y       0.7375      Z      -0.4574
       Tot       1.8001
    Quadrupole Moments (Debye-Ang)
        XX     -68.5916     XY     -20.9198     YY    -103.7905
        XZ       4.4334     YZ      -8.5655     ZZ    -135.6388
    Octopole Moments (Debye-Ang^2)
       XXX    2176.3666    XXY    -135.9219    XYY     816.3800
       YYY   -1414.9590    XXZ    -328.2195    XYZ      60.2130
       YYZ    -402.2402    XZZ    1217.5770    YZZ    -648.5164
       ZZZ   -1184.2902
    Hexadecapole Moments (Debye-Ang^3)
      XXXX  -48296.4293   XXXY    9497.7668   XXYY  -10192.9634
      XYYY   13643.6736   YYYY  -15460.9103   XXXZ    7271.9136
      XXYZ   -1725.2393   XYYZ    3240.2490   YYYZ   -4409.4933
      XXZZ  -13578.4751   XYZZ    6462.7797   YYZZ   -4725.9106
      XZZZ    9507.1142   YZZZ   -4808.1996   ZZZZ   -7690.8089
 -----------------------------------------------------------------
Archival summary:
1\1\ctcp003\OPT\ProcedureUnspecified\BasisUnspecified\20214\mewes1\MonDec1011:30:432018MonDec1011:30:432018\0\\#,OPT,ProcedureUnspecified,BasisUnspecified,\\0,1\C\C,1,1.3871\H,2,1.08465,1,119.399\C,2,1.3949,1,121.357,3,-179.724,0\C,4,1.42126,2,121.858,1,179.583,0\H,5,1.08331,4,118.818,2,0.162609,0\C,5,1.36105,4,120.71,2,-179.728,0\H,7,1.08209,5,120.153,4,179.9,0\C,7,1.41806,5,120.405,4,-0.0964603,0\H,9,1.08206,7,119.387,5,-179.978,0\C,9,1.3615,7,120.515,5,0.0248051,0\H,11,1.08311,9,120.422,7,179.958,0\C,11,1.42138,9,120.763,7,0.0669755,0\C,13,1.39618,11,122.058,9,179.693,0\H,14,1.08431,13,119.207,11,0.114323,0\C,14,1.38803,13,121.391,11,-179.606,0\C,1,1.42468,2,121.851,3,0.301457,0\H,17,1.08528,1,118.068,2,-0.417609,0\C,17,1.36662,1,121.987,2,179.257,0\C,16,1.42639,14,122.31,13,179.383,0\H,20,1.08506,16,118.09,14,0.38179,0\C,20,1.36775,16,122.018,14,-179.269,0\B,19,1.54023,17,120.678,1,-179.014,0\H,23,1.19808,19,119.769,17,-1.03347,0\B,22,1.54164,20,121.198,16,178.988,0\H,25,1.19771,22,119.829,20,0.903978,0\C,23,1.54702,19,120.288,17,178.63,0\C,27,1.39447,23,120.78,19,-179.016,0\H,28,1.08385,27,119.422,23,-0.228067,0\C,28,1.38922,27,121.054,23,179.662,0\H,30,1.0827,28,120.155,27,-179.857,0\C,30,1.38751,28,119.819,27,0.110783,0\H,32,1.08263,30,119.936,28,-179.992,0\C,32,1.38965,30,119.92,28,-0.0307546,0\H,34,1.08365,32,119.441,30,-179.97,0\C,34,1.39481,32,121.097,30,-0.0801433,0\\\@

 Total job time:  2337.59s(wall), 8454.68s(cpu) 
 Mon Dec 10 11:30:43 2018

        *************************************************************
        *                                                           *
        *  Thank you very much for using Q-Chem.  Have a nice day.  *
        *                                                           *
        *************************************************************


0 sent ACK to 0 
now end server 0 ... 
