mFile = /cm/shared/apps/q-chem/intel/QCHEM_5.1.0_Trunk/bin/mpi/machines
Process 0 of 1 is on ctcp010 - thread support 0
initial socket setup ...start
initial socket setup ...done 
now start server 0 ... 
Q-Chem Developer Version!
                  Welcome to Q-Chem
     A Quantum Leap Into The Future Of Chemistry


 Q-Chem 5.1, Q-Chem, Inc., Pleasanton, CA (2018)

 Yihan Shao,  Zhengting Gan,  E. Epifanovsky,  A. T. B. Gilbert,  M. Wormit,  
 J. Kussmann,  A. W. Lange,  A. Behn,  Jia Deng,  Xintian Feng,  D. Ghosh,  
 M. Goldey,  P. R. Horn,  L. D. Jacobson,  I. Kaliman,  T. Kus,  A. Landau,  
 Jie Liu,  E. I. Proynov,  R. M. Richard,  R. P. Steele,  E. J. Sundstrom,  
 H. L. Woodcock III,  P. M. Zimmerman,  D. Zuev,  B. Albrecht,  E. Alguire,  
 S. A. Baeppler,  D. Barton,  Z. Benda,  Y. A. Bernard,  E. J. Berquist,  
 K. B. Bravaya,  H. Burton,  D. Casanova,  Chun-Min Chang,  Yunqing Chen,  
 A. Chien,  K. D. Closser,  M. P. Coons,  S. Coriani,  S. Dasgupta,  
 A. L. Dempwolff,  M. Diedenhofen,  Hainam Do,  R. G. Edgar,  Po-Tung Fang,  
 S. Faraji,  S. Fatehi,  Qingguo Feng,  K. D. Fenk,  J. Fosso-Tande,  
 Qinghui Ge,  A. Ghysels,  G. Gidofalvi,  J. Gomes,  J. Gonthier,  A. Gunina,  
 D. Hait,  M. W. D. Hanson-Heine,  P. H. P. Harbach,  A. W. Hauser,  
 J. E. Herr,  E. G. Hohenstein,  Z. C. Holden,  Kerwin Hui,  B. C. Huynh,  
 T.-C. Jagau,  Hyunjun Ji,  B. Kaduk,  K. Khistyaev,  Jaehoon Kim,  
 P. Klunzinger,  K. Koh,  D. Kosenkov,  L. Koulias,  T. Kowalczyk,  
 C. M. Krauter,  A. Kunitsa,  Ka Un Lao,  A. Laurent,  K. V. Lawler,  
 Joonho Lee,  D. Lefrancois,  S. Lehtola,  D. S. Levine,  Yi-Pei Li,  
 You-Sheng Lin,  Fenglai Liu,  E. Livshits,  A. Luenser,  P. Manohar,  
 E. Mansoor,  S. F. Manzer,  Shan-Ping Mao,  Yuezhi Mao,  N. Mardirossian,  
 A. V. Marenich,  T. Markovich,  L. A. Martinez-Martinez,  S. A. Maurer,  
 N. J. Mayhall,  S. C. McKenzie,  J.-M. Mewes,  A. F. Morrison,  
 J. W. Mullinax,  K. Nanda,  T. S. Nguyen-Beck,  R. Olivares-Amaya,  
 J. A. Parkhill,  T. M. Perrine,  F. Plasser,  P. Pokhilko,  S. Prager,  
 A. Prociuk,  E. Ramos,  D. R. Rehn,  F. Rob,  M. Schneider,  N. Sergueev,  
 S. M. Sharada,  S. Sharma,  D. W. Small,  T. Stauch,  T. Stein,  
 Yu-Chuan Su,  A. J. W. Thom,  A. Tkatchenko,  T. Tsuchimochi,  N. M. Tubman,  
 L. Vogt,  M. L. Vidal,  O. Vydrov,  M. A. Watson,  J. Wenzel,  
 M. de Wergifosse,  T. A. Wesolowski,  A. White,  J. Witte,  A. Yamada,  
 Jun Yang,  K. Yao,  S. Yeganeh,  S. R. Yost,  Zhi-Qiang You,  A. Zech,  
 Igor Ying Zhang,  Xing Zhang,  Yan Zhao,  Ying Zhu,  B. R. Brooks,  
 G. K. L. Chan,  C. J. Cramer,  M. S. Gordon,  W. J. Hehre,  A. Klamt,  
 M. W. Schmidt,  C. D. Sherrill,  D. G. Truhlar,  A. Aspuru-Guzik,  R. Baer,  
 A. T. Bell,  N. A. Besley,  Jeng-Da Chai,  A. E. DePrince, III,  
 R. A. DiStasio Jr.,  A. Dreuw,  B. D. Dunietz,  T. R. Furlani,  
 Chao-Ping Hsu,  Yousung Jung,  Jing Kong,  D. S. Lambrecht,  WanZhen Liang,  
 C. Ochsenfeld,  V. A. Rassolov,  L. V. Slipchenko,  J. E. Subotnik,  
 T. Van Voorhis,  J. M. Herbert,  A. I. Krylov,  P. M. W. Gill,  M. Head-Gordon

 Contributors to earlier versions of Q-Chem not listed above: 
 R. D. Adamson,  B. Austin,  J. Baker,  G. J. O. Beran,  K. Brandhorst,  
 S. T. Brown,  E. F. C. Byrd,  A. K. Chakraborty,  C.-L. Cheng,  
 Siu Hung Chien,  D. M. Chipman,  D. L. Crittenden,  H. Dachsel,  
 R. J. Doerksen,  A. D. Dutoi,  L. Fusti-Molnar,  W. A. Goddard III,  
 A. Golubeva-Zadorozhnaya,  S. R. Gwaltney,  G. Hawkins,  A. Heyden,  
 S. Hirata,  G. Kedziora,  F. J. Keil,  C. Kelley,  Jihan Kim,  R. A. King,  
 R. Z. Khaliullin,  P. P. Korambath,  W. Kurlancheek,  A. M. Lee,  M. S. Lee,  
 S. V. Levchenko,  Ching Yeh Lin,  D. Liotard,  R. C. Lochan,  I. Lotan,  
 P. E. Maslen,  N. Nair,  D. P. O'Neill,  D. Neuhauser,  E. Neuscamman,  
 C. M. Oana,  R. Olson,  B. Peters,  R. Peverati,  P. A. Pieniazek,  
 Y. M. Rhee,  J. Ritchie,  M. A. Rohrdanz,  E. Rosta,  N. J. Russ,  
 H. F. Schaefer III,  N. E. Schultz,  N. Shenvi,  A. C. Simmonett,  A. Sodt,  
 D. Stuck,  K. S. Thanthiriwatte,  V. Vanovschi,  Tao Wang,  A. Warshel,  
 C. F. Williams,  Q. Wu,  X. Xu,  W. Zhang

 Please cite Q-Chem as follows:
 Y. Shao et al., Mol. Phys. 113, 184-215 (2015)
 DOI: 10.1080/00268976.2014.952696

 Q-Chem 5.1.1 for Intel X86 EM64T Linux

 Parts of Q-Chem use Armadillo 8.300.2 (Tropical Shenanigans).
 http://arma.sourceforge.net/

 Q-Chem begins on Tue Dec 11 15:11:04 2018  

Host: ctcp010
0

     Scratch files written to /scratch/mewes1/141698/qchem71366//
 Parallel job on  1  processors
The previous job contains 0 fragments, simply inherited here
Symmetry turned off for PCM/SM12/SMD calculation
Input Ideriv = 2
Curr. Ideriv = -1
Max.  Ideriv = 2
Input Ideriv = 2
Curr. Ideriv = 2
Max.  Ideriv = 2

Checking the input file for inconsistencies... 	...done.

--------------------------------------------------------------
User input:
--------------------------------------------------------------
$rem
threads 4
jobtype	opt
method PBEh-3c
basis def2-mSVP
mem_static	1024
mem_total	3000
sym_ignore	true
scf_convergence	9
solvent_method	pcm
$end

$molecule
read iDBP.mol
$end

$solvent
dielectric	1.0001 
$end

$pcm
theory iefpcm
$end

--------------------------------------------------------------
 Adding empirical dispersion correction 
 ----------------------------------------------------------------
 Doing -D3(BJ) with
 s6 =   1.00000
 s8 =   0.00000
 a1 =   0.48600
 a2 =   4.50000
 -D3 energy including 3body term =     -0.0281252203 hartrees
 ----------------------------------------------------------------
 Adding gCP correction 
 ----------------------------------------------------------------
 gCP energy =      0.0445913479 hartrees
 ----------------------------------------------------------------
             Standard Nuclear Orientation (Angstroms)
    I     Atom           X                Y                Z
 ----------------------------------------------------------------
    1      C      -7.5139600000     4.5557600000     2.8748900000
    2      C      -8.1885200000     3.3659400000     3.2282700000
    3      B      -7.3876800000     2.0977100000     3.7053000000
    4      C      -5.8233700000     2.1924900000     3.8390700000
    5      C      -5.1403400000     3.3713100000     3.4642800000
    6      B      -5.9358200000     4.6153900000     2.9067300000
    7      C      -3.7474600000     3.4409600000     3.6105800000
    8      C      -3.0415400000     2.3522500000     4.1314600000
    9      C      -3.7181900000     1.1853100000     4.4964000000
   10      C      -5.1045100000     1.1023900000     4.3478500000
   11      C      -8.2516600000     5.6914600000     2.5079700000
   12      C      -9.6549600000     5.6435100000     2.4740200000
   13      C     -10.3229500000     4.4358100000     2.7900800000
   14      C      -9.5842900000     3.3097200000     3.1699000000
   15      H      -7.7356800000     6.6125400000     2.2556600000
   16      C     -11.7205700000     4.3706300000     2.7258800000
   17      H      -5.6172800000     0.1929500000     4.6387700000
   18      H      -3.2096200000     4.3404900000     3.3357100000
   19      H     -10.0983700000     2.3895100000     3.4279400000
   20      C     -10.4014000000     6.7800200000     2.1255500000
   21      C     -11.8022200000     6.7146900000     2.0637600000
   22      C     -12.4646000000     5.4972400000     2.3570800000
   23      C     -12.5559600000     7.8426300000     1.7037700000
   24      C     -13.8632700000     5.4280900000     2.2738700000
   25      H      -1.9685800000     2.4145700000     4.2563000000
   26      H      -3.1685800000     0.3449600000     4.8997100000
   27      H     -12.2288100000     3.4399900000     2.9577300000
   28      H      -9.8934400000     7.7115600000     1.8968800000
   29      C     -13.9494700000     7.7597500000     1.6229700000
   30      C     -14.6005500000     6.5551400000     1.9040500000
   31      H     -14.3820300000     4.5009300000     2.4896900000
   32      H     -15.6788900000     6.4949200000     1.8351200000
   33      H     -12.0662700000     8.7831400000     1.4802100000
   34      H     -14.5266000000     8.6295900000     1.3382700000
   35      H      -5.3592100000     5.5830200000     2.5457700000
   36      H      -7.9611400000     1.1192900000     4.0395700000
 ----------------------------------------------------------------
 Nuclear Repulsion Energy =  1434.4946815573 hartrees
 There are       72 alpha and       72 beta electrons
 Requested basis set is def2-mSVP
 There are 182 shells and 358 basis functions

 Total QAlloc Memory Limit   3000 MB
 Mega-Array Size      1001 MB
 MEM_STATIC part      1024 MB
 Discretize the solute cavity surface with Lebedev spheres
	Using 302 Lebedev grid points for each H atom
	Using 302 Lebedev grid points for other atoms
	Atomic van der Waals radii will be scaled by 1.20
 Remove points where switching function is < 1.0e-08
 Keep 3977 surface tesserae and discard 6895 interior tesserae
 Molecular Surface Area = 326.071 Angst**2
 A cutoff of  1.0D-12 yielded  10095 shell pairs
 There are     41063 function pairs (     45829 Cartesian)
 
 -------------------------------------------------------
 OpenMP Integral Computing Module                       
 Release: version 1.0, May 2013, Q-Chem Inc. Pittsburgh 
 -------------------------------------------------------
 Integral Job Info:
 Integral job number is                      11
 Integral operator is                         1
 short-range coefficients                     0
 long-range coefficients              100000000
 Omega coefficients                           0
 if combine SR and LR in K                    0
 Integral screening is                        0
 Integral computing path is                   2
 max size of driver memory is            800000
 size of driver memory is                593474
 size of scratch memory is              1809772
 max col of scratch BK array               1296
 max len of scratch array in speh3          155
 max len of scratch index in speh4           18
 max int batch size is                      520
 min int batch size is                       52
 fixed nKL is                                52
 max L of basis functions is                  2
 order of int derivative is                   0
 number of shells is                        182
 number of basis is                         380
 number of cartesian basis is               380
 number of contracted shell pairs         10095
 number of primitive shell pairs          23385
 maxK2 (contraction) of shell pair           25
 max number of K2 of shell pair               1
 max number of CS2 of shell pair           2257
 max number of PS2 of shell pair           4310
 mem total for path MDJ                  617052
 -------------------------------------------------------
 Smallest overlap matrix eigenvalue = 2.90E-04

 Scale SEOQF with 1.000000e-02/1.000000e-02/1.000000e-01

 Standard Electronic Orientation quadrupole field applied
 Nucleus-field energy     =    -0.0000000709 hartrees
 Guess from superposition of atomic densities
 Warning:  Energy on first SCF cycle will be non-variational
 SAD guess density has 144.000000 electrons

 -----------------------------------------------------------------------
  General SCF calculation program by
  Eric Jon Sundstrom, Paul Horn, Yuezhi Mao, Dmitri Zuev, Alec White,
  David Stuck, Shaama M.S., Shane Yost, Joonho Lee, David Small,
  Daniel Levine, Susi Lehtola, Hugh Burton, Evgeny Epifanovsky
 -----------------------------------------------------------------------
 Exchange:     0.4200 Hartree-Fock + 0.5800 PBEh-3c
 Correlation:  1.0000 PBEh-3c
 Using SG-1 standard quadrature grid
 Dispersion:   Grimme D3
 using 4 threads for integral computing
 -------------------------------------------------------
 OpenMP Integral computing Module                
 Release: version 2.0, May 2017, Q-Chem Inc. Pleasanton 
 -------------------------------------------------------
 -------------------------------------------------------
 OpenMP BLAS3 based DFT computing Module                
 Release: version 1.0, May 2013, Q-Chem Inc. Pittsburgh 
 -------------------------------------------------------
 A restricted SCF calculation will be
 performed using DIIS
 SCF converges when DIIS error is below 1.0e-09
 ---------------------------------------
  Cycle       Energy         DIIS error
 ---------------------------------------
 Using non-symmetric K matrix
    1    -825.3004570668      4.39e-02  
    2    -818.2963979304      2.87e-03  
    3    -818.3508782955      2.46e-03  
    4    -818.4492889557      8.53e-04  
    5    -818.4606525073      3.12e-04  
    6    -818.4623573314      7.86e-05  
    7    -818.4624682667      1.71e-05  
    8    -818.4624727875      6.48e-06  
    9    -818.4624736599      1.87e-06  
   10    -818.4624737632      7.06e-07  
   11    -818.4624737841      2.40e-07  
   12    -818.4624737872      1.10e-07  
   13    -818.4624737877      3.37e-08  
   14    -818.4624737877      1.80e-08  
   15    -818.4624737877      4.40e-09  
   16    -818.4624737877      2.93e-09  
   17    -818.4624737877      5.66e-10  Convergence criterion met
 ---------------------------------------
 SCF time:   CPU 1057.28s  wall 283.00s 

************** Final PCM Free Energy Summary **************
 G_electrostatic  =      -0.00000070 hartree =      -0.00044230 kcal/mol
 G_cavitation     =       0.00000000 hartree =       0.00000000 kcal/mol
 G_dispersion     =       0.00000000 hartree =       0.00000000 kcal/mol
 G_repulsion      =       0.00000000 hartree =       0.00000000 kcal/mol
 --------------------------------------------------
 Non-electrostatic Free Energy =       0.00000000 hartree =       0.00000000 kcal/mol
 Total                         =      -0.00000070 hartree =      -0.00044230 kcal/mol
 --------------------------------------------------
 SCF Energy (H0 + V/2)                       =    -818.46247379 
 Solute Internal Energy (H0)                 =    -818.46247308 
 Total Free Energy (H0 + V/2 + non-elec)     =    -818.46247379 hartree
                                             = -513592.95395989 kcal/mol
***********************************************************

 SCF   energy in the final basis set =     -818.4624737877
 Total energy in the final basis set =     -818.4624737877
 
 --------------------------------------------------------------
 
                    Orbital Energies (a.u.)
 --------------------------------------------------------------
 
 Alpha MOs
 -- Occupied --
-10.469 -10.468 -10.466 -10.465 -10.465 -10.464 -10.462 -10.462
-10.462 -10.461 -10.460 -10.460 -10.457 -10.456 -10.454 -10.453
-10.436 -10.435 -10.435 -10.433  -6.951  -6.949  -0.999  -0.961
 -0.950  -0.901  -0.891  -0.851  -0.845  -0.836  -0.827  -0.791
 -0.739  -0.701  -0.693  -0.686  -0.679  -0.669  -0.618  -0.610
 -0.587  -0.579  -0.547  -0.531  -0.530  -0.528  -0.514  -0.513
 -0.498  -0.488  -0.486  -0.481  -0.472  -0.467  -0.443  -0.432
 -0.430  -0.428  -0.421  -0.410  -0.405  -0.378  -0.377  -0.361
 -0.359  -0.357  -0.332  -0.309  -0.308  -0.296  -0.282  -0.232
 -- Virtual --
 -0.075  -0.071  -0.011   0.007   0.023   0.050   0.059   0.065
  0.126   0.143   0.146   0.154   0.166   0.173   0.181   0.183
  0.184   0.194   0.206   0.208   0.209   0.210   0.220   0.223
  0.238   0.246   0.258   0.266   0.267   0.273   0.294   0.297
  0.307   0.309   0.315   0.318   0.331   0.336   0.338   0.360
  0.366   0.368   0.370   0.403   0.413   0.416   0.452   0.475
  0.486   0.493   0.497   0.501   0.510   0.522   0.526   0.529
  0.534   0.538   0.542   0.544   0.562   0.574   0.577   0.582
  0.586   0.589   0.600   0.604   0.606   0.608   0.610   0.622
  0.622   0.624   0.630   0.632   0.639   0.641   0.644   0.655
  0.657   0.672   0.681   0.683   0.702   0.723   0.730   0.732
  0.738   0.741   0.766   0.777   0.784   0.796   0.803   0.819
  0.834   0.845   0.847   0.853   0.859   0.873   0.894   0.912
  0.926   0.935   0.941   0.959   0.960   0.965   0.967   0.981
  0.986   1.002   1.017   1.021   1.027   1.039   1.056   1.060
  1.065   1.068   1.081   1.084   1.090   1.111   1.115   1.134
  1.139   1.147   1.151   1.169   1.185   1.200   1.243   1.257
  1.263   1.266   1.278   1.295   1.302   1.309   1.312   1.313
  1.325   1.333   1.341   1.362   1.377   1.420   1.434   1.442
  1.460   1.462   1.471   1.480   1.487   1.494   1.506   1.508
  1.513   1.522   1.527   1.535   1.539   1.543   1.551   1.553
  1.580   1.610   1.632   1.665   1.730   1.739   1.782   1.789
  1.824   1.842   1.871   1.872   1.893   1.916   1.924   1.927
  1.939   1.952   1.954   1.955   1.975   1.990   1.999   2.002
  2.011   2.031   2.052   2.070   2.076   2.083   2.116   2.119
  2.144   2.157   2.171   2.177   2.178   2.184   2.227   2.245
  2.251   2.256   2.266   2.296   2.304   2.308   2.322   2.344
  2.354   2.354   2.355   2.375   2.395   2.400   2.404   2.411
  2.420   2.430   2.439   2.453   2.484   2.529   2.531   2.584
  2.604   2.651   2.661   2.677   2.715   2.722   2.731   2.734
  2.756   2.777   2.781   2.790   2.790   2.800   2.822   2.829
  2.844   2.872   2.880   2.913   2.967   2.971   2.992   3.005
  3.025   3.072   3.118   3.228   3.406   3.469   3.545   3.575
  9.291   9.416  13.171  13.314  13.406  13.615  13.687  13.700
 13.736  13.785  13.789  14.024  14.087  14.131  14.142  14.173
 14.179  14.232  14.447  14.498  14.516  14.561
 --------------------------------------------------------------
 
          Ground-State Mulliken Net Atomic Charges

     Atom                 Charge (a.u.)
  ----------------------------------------
      1 C                    -0.119200
      2 C                    -0.116253
      3 B                     0.234556
      4 C                    -0.115946
      5 C                    -0.119930
      6 B                     0.236639
      7 C                    -0.270040
      8 C                    -0.211534
      9 C                    -0.212111
     10 C                    -0.269676
     11 C                    -0.356784
     12 C                     0.191488
     13 C                     0.192978
     14 C                    -0.354828
     15 H                     0.221248
     16 C                    -0.390496
     17 H                     0.223953
     18 H                     0.223949
     19 H                     0.220953
     20 C                    -0.391188
     21 C                     0.182875
     22 C                     0.184219
     23 C                    -0.299966
     24 C                    -0.298917
     25 H                     0.224259
     26 H                     0.224207
     27 H                     0.215756
     28 H                     0.215907
     29 C                    -0.223176
     30 C                    -0.223477
     31 H                     0.219829
     32 H                     0.226358
     33 H                     0.219906
     34 H                     0.226407
     35 H                     0.044831
     36 H                     0.043204
  ----------------------------------------
  Sum of atomic charges =    -0.000000

 -----------------------------------------------------------------
                    Cartesian Multipole Moments
 -----------------------------------------------------------------
    Charge (ESU x 10^10)
                -0.0000
    Dipole Moment (Debye)
         X      -1.2353      Y       0.6452      Z      -0.1372
       Tot       1.4004
    Quadrupole Moments (Debye-Ang)
        XX     -79.7563     XY     -15.9339     YY    -106.1498
        XZ       2.5152     YZ      -6.7558     ZZ    -134.0282
    Octopole Moments (Debye-Ang^2)
       XXX    2391.4665    XXY    -231.4485    XYY     863.4980
       YYY   -1437.6651    XXZ    -323.1754    XYZ      50.0595
       YYZ    -389.3608    XZZ    1211.6504    YZZ    -643.0933
       ZZZ   -1169.9928
    Hexadecapole Moments (Debye-Ang^3)
      XXXX  -51922.6976   XXXY   11054.6126   XXYY  -10950.2164
      XYYY   14038.3292   YYYY  -15675.9311   XXXZ    7366.9733
      XXYZ   -1667.1437   XYYZ    3140.5535   YYYZ   -4298.4541
      XXZZ  -13584.2633   XYZZ    6443.9068   YYZZ   -4683.5534
      XZZZ    9446.7199   YZZZ   -4774.6350   ZZZZ   -7570.3944
 -----------------------------------------------------------------
 Calculating analytic gradient of the SCF energy
  1.277651340581854E-004  1.277631293241098E-004
  1.277637329373847E-004  1.277645291278224E-004
  1.277665156467573E-004  1.277617030903053E-004
  1.277652533354743E-004  1.277630058617444E-004
  1.277642164537351E-004  1.277640491566818E-004
  1.277661880245717E-004  1.277620308320355E-004
  1.277699365490445E-004  1.277583411240640E-004
  1.277817578987996E-004  1.277465014521615E-004
  1.277608015610242E-004  1.277674277918905E-004
  1.277621023997503E-004  1.277661557371459E-004
  1.277623884028328E-004  1.277658779231780E-004
  1.277663008128867E-004  1.277619276606547E-004
  1.277651758691234E-004  1.277630927652984E-004
  1.277671259098685E-004  1.277611317912859E-004
  1.277652312839581E-004  1.277629957084906E-004
  1.277519511341326E-004  1.277763101433389E-004
  1.277516379886517E-004  1.277766339323157E-004
  1.277715618826616E-004  1.277566717567151E-004
  1.277496606372621E-004  1.277786018007549E-004
  1.277520702088801E-004  1.277762017749337E-004
  1.277665912071626E-004  1.277616487607592E-004
  1.277686454985319E-004  1.277596280829594E-004
  1.277740686967644E-004  1.277541895872128E-004
  1.277597967421576E-004  1.277684410610065E-004
  1.277570165139259E-004  1.277712383892344E-004
  1.277547081678953E-004  1.277735651961226E-004
  1.277658686502374E-004  1.277623726597980E-004
  1.277672030804262E-004  1.277610728581945E-004
  1.277816512193564E-004  1.277466095776623E-004
  1.277572723539270E-004  1.277709653113142E-004
  1.277574229919339E-004  1.277708446833575E-004
  1.277519918293659E-004  1.277762727290173E-004
  1.277674515519732E-004  1.277607713345962E-004
  1.277636145867340E-004  1.277646416820722E-004
  1.277643091577678E-004  1.277639560881615E-004
  1.277631740307516E-004  1.277650416620992E-004
  1.277634052648462E-004  1.277648562430127E-004
  1.277638375341963E-004  1.277644223301223E-004
  1.277637637948294E-004  1.277644514454536E-004
  1.277708229033262E-004  1.277574439046441E-004
  1.277762213287349E-004  1.277520435612133E-004
  1.277611584942969E-004  1.277670642572185E-004
  1.277624395196748E-004  1.277658373538922E-004
  1.277598675609887E-004  1.277684085185890E-004
  1.277644766812104E-004  1.277637738639222E-004
  1.277762080923628E-004  1.277520514586227E-004
  1.277789922440440E-004  1.277492822512755E-004
  1.277601089285028E-004  1.277681170266263E-004
  1.277667699990527E-004  1.277615125335807E-004
  1.277618627624527E-004  1.277664084689044E-004
  1.277644029382120E-004  1.277638593797269E-004
  1.277675599075534E-004  1.277607156672705E-004
  1.277629173776265E-004  1.277653598070722E-004
  1.277639338276400E-004  1.277643290600834E-004
  1.277668537824595E-004  1.277614236760191E-004
  1.277678950970915E-004  1.277603799829367E-004
  1.277627436869841E-004  1.277655069411930E-004
  1.277583328245561E-004  1.277699459947451E-004
  1.277456900018537E-004  1.277825675887126E-004
  1.277675077608750E-004  1.277607159971572E-004
  1.277651755645277E-004  1.277630825955219E-004
  1.277663427230896E-004  1.277619246379786E-004
  1.277625824355780E-004  1.277656406587145E-004
  1.277627629091708E-004  1.277655034575226E-004
  1.277614286324961E-004  1.277668308597213E-004
  1.277641545109422E-004  1.277640678569484E-004
  1.277619601262674E-004  1.277663164516000E-004
  1.277455463872616E-004  1.277827186998692E-004
  1.277685481109601E-004  1.277596869122069E-004
  1.277785061173261E-004  1.277497604323839E-004
  1.277767535665360E-004  1.277515203697719E-004
  1.277616465163788E-004  1.277665896919503E-004
  1.277617190530991E-004  1.277665485317026E-004
  1.277596306069537E-004  1.277686285805705E-004
  1.277640474852006E-004  1.277642022479095E-004
  1.277665322275512E-004  1.277617210092467E-004
  1.277678622986180E-004  1.277604077859292E-004
  1.277616345241114E-004  1.277666188622006E-004
  1.277648016202801E-004  1.277634763112888E-004
  1.277658308498275E-004  1.277624480057924E-004
  1.277636681841860E-004  1.277645869026240E-004
  1.277630434786652E-004  1.277652402629631E-004
  1.277626849468648E-004  1.277655887342742E-004
  1.277636185700337E-004  1.277646355007580E-004
  1.277708480860831E-004  1.277574071866622E-004
  1.277722763162541E-004  1.277560006628932E-004
  1.277623273586910E-004  1.277659094711635E-004
  1.277612438090903E-004  1.277670295346425E-004
  1.277539813073153E-004  1.277742793447502E-004
  1.277667722838655E-004  1.277614628433567E-004
  1.277606534532533E-004  1.277676227233166E-004
  1.277651044251854E-004  1.277631731881667E-004
  1.277639012757488E-004  1.277643601103238E-004
  1.277647623738991E-004  1.277635044884422E-004
  1.277685554398171E-004  1.277597055682681E-004
  1.277633075661400E-004  1.277649419097445E-004
  1.277612520582866E-004  1.277670302017851E-004
  1.277663408844486E-004  1.277619308970414E-004
  1.277631239375140E-004  1.277651366402603E-004
  1.277608562858507E-004  1.277673986782898E-004
  1.277611598758990E-004  1.277671117012879E-004
  1.277649274925302E-004  1.277633230447658E-004
  1.277642475886143E-004  1.277640285333687E-004
  1.277637943374678E-004  1.277644818047959E-004
  1.277658555952011E-004  1.277624035494618E-004
  1.277649638382904E-004  1.277633178548331E-004
  1.277645895397240E-004  1.277636832311055E-004
  1.277633367421768E-004  1.277649206573194E-004
 Gradient of SCF Energy
            1           2           3           4           5           6
    1  -0.0144313   0.0239725  -0.0095477   0.0118797  -0.0009412   0.0157063
    2  -0.0395082   0.0331177  -0.0246915   0.0095303  -0.0147507   0.0197901
    3   0.0118814  -0.0070391   0.0019085  -0.0003616   0.0062874  -0.0098463
            7           8           9          10          11          12
    1   0.0033043   0.0080881   0.0032884  -0.0091888  -0.0251674   0.0081818
    2   0.0121069   0.0004412  -0.0063476  -0.0090132   0.0288452  -0.0279280
    3  -0.0049903   0.0008115   0.0026901   0.0019437  -0.0096246   0.0073487
           13          14          15          16          17          18
    1   0.0279739  -0.0379168   0.0011022  -0.0102723   0.0008790   0.0013131
    2   0.0067714   0.0056111   0.0012006  -0.0107499  -0.0009812   0.0000046
    3  -0.0001629  -0.0041689   0.0003614   0.0026415   0.0007459   0.0007059
           19          20          21          22          23          24
    1  -0.0000716   0.0042869  -0.0199779  -0.0022186   0.0398814   0.0282220
    2  -0.0010537   0.0156725  -0.0100244   0.0195223  -0.0055172  -0.0269154
    3   0.0003131  -0.0036049   0.0014742  -0.0057033   0.0046782   0.0097030
           25          26          27          28          29          30
    1  -0.0004752  -0.0008444  -0.0007373   0.0007777  -0.0331702  -0.0103966
    2   0.0005439   0.0000021  -0.0013149   0.0016627  -0.0094671   0.0307962
    3   0.0000639   0.0000472   0.0001399  -0.0001120   0.0002931  -0.0094477
           31          32          33          34          35          36
    1  -0.0020609  -0.0002614  -0.0010369  -0.0005944  -0.0026775   0.0031310
    2  -0.0002664   0.0003382   0.0016803  -0.0001948  -0.0051221   0.0062089
    3  -0.0002141  -0.0002176  -0.0004533  -0.0001189   0.0018433   0.0001839
 Max gradient component =       3.988E-02
 RMS gradient           =       1.289E-02
 Computing fast IEFPCM-SWIG gradient.
 Updating gradient with PCM contributions...
 -- total gradient after adding PCM contribution --
---------------------------------------------------
  Atom         X              Y              Z     
---------------------------------------------------
   1      -0.014431      -0.039508       0.011881
   2       0.023973       0.033118      -0.007039
   3      -0.009548      -0.024691       0.001909
   4       0.011880       0.009530      -0.000362
   5      -0.000941      -0.014751       0.006287
   6       0.015706       0.019790      -0.009846
   7       0.003304       0.012107      -0.004990
   8       0.008088       0.000441       0.000812
   9       0.003289      -0.006348       0.002690
  10      -0.009189      -0.009013       0.001944
  11      -0.025167       0.028845      -0.009625
  12       0.008182      -0.027928       0.007349
  13       0.027974       0.006771      -0.000163
  14      -0.037917       0.005611      -0.004169
  15       0.001102       0.001200       0.000361
  16      -0.010273      -0.010750       0.002642
  17       0.000879      -0.000981       0.000746
  18       0.001313       0.000005       0.000706
  19      -0.000071      -0.001054       0.000313
  20       0.004287       0.015673      -0.003605
  21      -0.019978      -0.010024       0.001474
  22      -0.002219       0.019522      -0.005703
  23       0.039882      -0.005517       0.004678
  24       0.028222      -0.026916       0.009703
  25      -0.000475       0.000544       0.000064
  26      -0.000844       0.000002       0.000047
  27      -0.000737      -0.001315       0.000140
  28       0.000778       0.001662      -0.000112
  29      -0.033170      -0.009467       0.000293
  30      -0.010397       0.030796      -0.009448
  31      -0.002061      -0.000266      -0.000214
  32      -0.000261       0.000338      -0.000218
  33      -0.001037       0.001680      -0.000453
  34      -0.000594      -0.000195      -0.000119
  35      -0.002677      -0.005122       0.001843
  36       0.003131       0.006209       0.000184
---------------------------------------------------
 Number of fixed atoms: 0
 Gradient time:  CPU 118.18 s  wall 42.69 s
 Geometry Optimization Parameters
   NAtoms,    NIC,     NZ,  NCons,   NDum,   NFix, NCnnct, MaxDiis
       36     282       0       0       0       0       0       0


** GEOMETRY OPTIMIZATION IN DELOCALIZED INTERNAL COORDINATES **
   Searching for a Minimum

   Optimization Cycle:   1

                       Coordinates (Angstroms)
     ATOM                X               Y               Z
      1  C        -7.5139600000    4.5557600000    2.8748900000
      2  C        -8.1885200000    3.3659400000    3.2282700000
      3  B        -7.3876800000    2.0977100000    3.7053000000
      4  C        -5.8233700000    2.1924900000    3.8390700000
      5  C        -5.1403400000    3.3713100000    3.4642800000
      6  B        -5.9358200000    4.6153900000    2.9067300000
      7  C        -3.7474600000    3.4409600000    3.6105800000
      8  C        -3.0415400000    2.3522500000    4.1314600000
      9  C        -3.7181900000    1.1853100000    4.4964000000
     10  C        -5.1045100000    1.1023900000    4.3478500000
     11  C        -8.2516600000    5.6914600000    2.5079700000
     12  C        -9.6549600000    5.6435100000    2.4740200000
     13  C       -10.3229500000    4.4358100000    2.7900800000
     14  C        -9.5842900000    3.3097200000    3.1699000000
     15  H        -7.7356800000    6.6125400000    2.2556600000
     16  C       -11.7205700000    4.3706300000    2.7258800000
     17  H        -5.6172800000    0.1929500000    4.6387700000
     18  H        -3.2096200000    4.3404900000    3.3357100000
     19  H       -10.0983700000    2.3895100000    3.4279400000
     20  C       -10.4014000000    6.7800200000    2.1255500000
     21  C       -11.8022200000    6.7146900000    2.0637600000
     22  C       -12.4646000000    5.4972400000    2.3570800000
     23  C       -12.5559600000    7.8426300000    1.7037700000
     24  C       -13.8632700000    5.4280900000    2.2738700000
     25  H        -1.9685800000    2.4145700000    4.2563000000
     26  H        -3.1685800000    0.3449600000    4.8997100000
     27  H       -12.2288100000    3.4399900000    2.9577300000
     28  H        -9.8934400000    7.7115600000    1.8968800000
     29  C       -13.9494700000    7.7597500000    1.6229700000
     30  C       -14.6005500000    6.5551400000    1.9040500000
     31  H       -14.3820300000    4.5009300000    2.4896900000
     32  H       -15.6788900000    6.4949200000    1.8351200000
     33  H       -12.0662700000    8.7831400000    1.4802100000
     34  H       -14.5266000000    8.6295900000    1.3382700000
     35  H        -5.3592100000    5.5830200000    2.5457700000
     36  H        -7.9611400000    1.1192900000    4.0395700000
   Point Group: c1    Number of degrees of freedom:   102


   Energy is   -818.462473788


 Attempting to Generate Delocalized Internal Coordinates

102 Hessian modes will be used to form the next step
  Hessian Eigenvalues:
     0.008314    0.008793    0.009141    0.014574    0.015726    0.017085
     0.017840    0.018519    0.019107    0.021240    0.021392    0.021499
     0.021511    0.021690    0.021810    0.021906    0.021920    0.022200
     0.022262    0.022295    0.022316    0.022355    0.022395    0.022413
     0.022414    0.022508    0.022581    0.022660    0.022679    0.022696
     0.022712    0.022777    0.022797    0.159348    0.159934    0.159982
     0.159990    0.159995    0.159996    0.159996    0.159997    0.159997
     0.159997    0.159998    0.159999    0.159999    0.160000    0.219996
     0.219998    0.224915    0.225166    0.229546    0.232433    0.234340
     0.236802    0.238509    0.241455    0.245327    0.245736    0.249854
     0.249983    0.249994    0.252194    0.253207    0.256328    0.257338
     0.259625    0.260016    0.353393    0.353464    0.353504    0.353738
     0.355011    0.355376    0.355549    0.355743    0.357277    0.357430
     0.357521    0.357544    0.367532    0.387308    0.403239    0.409457
     0.414558    0.415622    0.418213    0.424865    0.440172    0.443859
     0.445947    0.447360    0.452997    0.454030    0.454496    0.454534
     0.455603    0.456006    0.456300    0.456955    0.460413    0.460642

 Minimum Search - Taking Simple RFO Step
 Searching for Lamda that Minimizes Along All modes
 Value Taken    Lamda =  -0.01663165
 Step Taken.  Stepsize is  0.262318

                             Maximum     Tolerance    Cnvgd?
         Gradient           0.038338      0.000300      NO
         Displacement       0.108302      0.001200      NO
         Energy change     *********      0.000001      NO


 New Cartesian Coordinates Obtained by Inverse Iteration

 Displacement from previous Coordinates is:  0.623199
 Adding empirical dispersion correction 
 ----------------------------------------------------------------
 Doing -D3(BJ) with
 s6 =   1.00000
 s8 =   0.00000
 a1 =   0.48600
 a2 =   4.50000
 -D3 energy including 3body term =     -0.0282477581 hartrees
 ----------------------------------------------------------------
 Adding gCP correction 
 ----------------------------------------------------------------
 gCP energy =      0.0451881423 hartrees
 ----------------------------------------------------------------
             Standard Nuclear Orientation (Angstroms)
    I     Atom           X                Y                Z
 ----------------------------------------------------------------
    1      C      -7.5059770171     4.5704185280     2.9383507999
    2      C      -8.1861493366     3.3610119616     3.2872849859
    3      B      -7.3891506741     2.1263253502     3.7566939735
    4      C      -5.8457798255     2.2082763022     3.8525281152
    5      C      -5.1709917074     3.3941260875     3.4938282924
    6      B      -5.9640756228     4.6286335021     2.9917627880
    7      C      -3.7826770883     3.4457981187     3.6101529398
    8      C      -3.0644592481     2.3525434655     4.0760075749
    9      C      -3.7274572620     1.1866261384     4.4241249059
   10      C      -5.1091201064     1.1163952514     4.3095763029
   11      C      -8.2305550747     5.6743547450     2.5611523891
   12      C      -9.6483816518     5.6465291900     2.5000698975
   13      C     -10.3246478996     4.4302009290     2.8260046985
   14      C      -9.5560589217     3.3061872287     3.2212254109
   15      H      -7.7100153721     6.5884087368     2.3017173458
   16      C     -11.7133914838     4.3769878905     2.7482253768
   17      H      -5.6206096920     0.2020487645     4.5837924940
   18      H      -3.2550858697     4.3511209796     3.3372410590
   19      H     -10.0647307812     2.3846153264     3.4791027079
   20      C     -10.3949677031     6.7603324310     2.1246704643
   21      C     -11.7894320294     6.7098620972     2.0466124495
   22      C     -12.4632727689     5.4888959141     2.3601262884
   23      C     -12.5584182982     7.8318752191     1.6579912640
   24      C     -13.8741479485     5.4403756728     2.2652228879
   25      H      -1.9871482125     2.4073101198     4.1676703809
   26      H      -3.1665284548     0.3338119717     4.7850728859
   27      H     -12.2225504966     3.4519040554     2.9899612997
   28      H      -9.8838674944     7.6841393743     1.8841513936
   29      C     -13.9192274654     7.7479280883     1.5767728504
   30      C     -14.5824401723     6.5426217869     1.8809693323
   31      H     -14.3961835477     4.5207676705     2.4963810934
   32      H     -15.6605325539     6.4870942291     1.8101730495
   33      H     -12.0640334409     8.7647503693     1.4205121995
   34      H     -14.4904489134     8.6155909667     1.2749944393
   35      H      -5.3850988940     5.6106119612     2.6352226774
   36      H      -7.9601769709     1.1171795767     4.0457129860
 ----------------------------------------------------------------
 Nuclear Repulsion Energy =  1439.6083036243 hartrees
 There are       72 alpha and       72 beta electrons
 Discretize the solute cavity surface with Lebedev spheres
	Using 302 Lebedev grid points for each H atom
	Using 302 Lebedev grid points for other atoms
	Atomic van der Waals radii will be scaled by 1.20
 Remove points where switching function is < 1.0e-08
 Keep 3970 surface tesserae and discard 6902 interior tesserae
 Molecular Surface Area = 324.133 Angst**2
 Applying Cartesian multipole field
    Component          Value
    ---------          -----
     (2,0,0)        1.00000E-12
     (0,2,0)        2.00000E-12
     (0,0,2)       -3.00000E-11
 Nucleus-field energy     =    -0.0000000714 hartrees
 Requested basis set is def2-mSVP
 There are 182 shells and 358 basis functions
 A cutoff of  1.0D-12 yielded  10143 shell pairs
 There are     41225 function pairs (     46015 Cartesian)
 Smallest overlap matrix eigenvalue = 2.85E-04
 Guess MOs from SCF MO coefficient file

 -----------------------------------------------------------------------
  General SCF calculation program by
  Eric Jon Sundstrom, Paul Horn, Yuezhi Mao, Dmitri Zuev, Alec White,
  David Stuck, Shaama M.S., Shane Yost, Joonho Lee, David Small,
  Daniel Levine, Susi Lehtola, Hugh Burton, Evgeny Epifanovsky
 -----------------------------------------------------------------------
 Exchange:     0.4200 Hartree-Fock + 0.5800 PBEh-3c
 Correlation:  1.0000 PBEh-3c
 Using SG-1 standard quadrature grid
 Dispersion:   Grimme D3
 using 4 threads for integral computing
 -------------------------------------------------------
 OpenMP Integral computing Module                
 Release: version 2.0, May 2017, Q-Chem Inc. Pleasanton 
 -------------------------------------------------------
 -------------------------------------------------------
 OpenMP BLAS3 based DFT computing Module                
 Release: version 1.0, May 2013, Q-Chem Inc. Pittsburgh 
 -------------------------------------------------------
 A restricted SCF calculation will be
 performed using DIIS
 SCF converges when DIIS error is below 1.0e-09
 ---------------------------------------
  Cycle       Energy         DIIS error
 ---------------------------------------
 Using non-symmetric K matrix
    1    -818.4646653906      5.35e-04  
    2    -818.4715653849      1.45e-04  
    3    -818.4716821265      1.50e-04  
    4    -818.4720573684      4.39e-05  
    5    -818.4720927179      1.42e-05  
    6    -818.4720966907      4.53e-06  
    7    -818.4720971477      1.60e-06  
    8    -818.4720972028      5.72e-07  
    9    -818.4720972106      1.78e-07  
   10    -818.4720972114      5.79e-08  
   11    -818.4720972115      2.71e-08  
   12    -818.4720972115      1.01e-08  
   13    -818.4720972115      3.35e-09  
   14    -818.4720972115      1.63e-09  
   15    -818.4720972115      4.58e-10  Convergence criterion met
 ---------------------------------------
 SCF time:   CPU 961.48s  wall 255.00s 

************** Final PCM Free Energy Summary **************
 G_electrostatic  =      -0.00000068 hartree =      -0.00042636 kcal/mol
 G_cavitation     =       0.00000000 hartree =       0.00000000 kcal/mol
 G_dispersion     =       0.00000000 hartree =       0.00000000 kcal/mol
 G_repulsion      =       0.00000000 hartree =       0.00000000 kcal/mol
 --------------------------------------------------
 Non-electrostatic Free Energy =       0.00000000 hartree =       0.00000000 kcal/mol
 Total                         =      -0.00000068 hartree =      -0.00042636 kcal/mol
 --------------------------------------------------
 SCF Energy (H0 + V/2)                       =    -818.47209721 
 Solute Internal Energy (H0)                 =    -818.47209653 
 Total Free Energy (H0 + V/2 + non-elec)     =    -818.47209721 hartree
                                             = -513598.99274947 kcal/mol
***********************************************************

 SCF   energy in the final basis set =     -818.4720972115
 Total energy in the final basis set =     -818.4720972115
 
 --------------------------------------------------------------
 
                    Orbital Energies (a.u.)
 --------------------------------------------------------------
 
 Alpha MOs
 -- Occupied --
-10.471 -10.470 -10.468 -10.467 -10.463 -10.463 -10.461 -10.460
-10.460 -10.460 -10.459 -10.459 -10.455 -10.454 -10.451 -10.451
-10.431 -10.431 -10.430 -10.429  -6.943  -6.942  -0.999  -0.962
 -0.955  -0.906  -0.892  -0.854  -0.847  -0.838  -0.829  -0.799
 -0.737  -0.707  -0.691  -0.688  -0.682  -0.668  -0.620  -0.612
 -0.590  -0.582  -0.549  -0.536  -0.530  -0.526  -0.515  -0.514
 -0.497  -0.491  -0.488  -0.481  -0.472  -0.466  -0.445  -0.434
 -0.433  -0.425  -0.423  -0.413  -0.400  -0.379  -0.377  -0.365
 -0.358  -0.353  -0.337  -0.312  -0.310  -0.298  -0.282  -0.240
 -- Virtual --
 -0.076  -0.068  -0.009   0.005   0.027   0.054   0.061   0.072
  0.128   0.142   0.147   0.154   0.169   0.173   0.181   0.184
  0.185   0.195   0.207   0.209   0.210   0.213   0.222   0.225
  0.240   0.250   0.260   0.267   0.269   0.275   0.296   0.300
  0.307   0.312   0.318   0.321   0.329   0.335   0.339   0.357
  0.368   0.369   0.375   0.399   0.418   0.419   0.457   0.485
  0.486   0.492   0.498   0.507   0.516   0.520   0.524   0.527
  0.533   0.537   0.539   0.550   0.571   0.574   0.579   0.584
  0.586   0.594   0.601   0.602   0.604   0.611   0.616   0.625
  0.627   0.629   0.632   0.638   0.643   0.645   0.649   0.656
  0.658   0.674   0.684   0.689   0.705   0.724   0.739   0.742
  0.743   0.746   0.780   0.782   0.787   0.793   0.812   0.821
  0.839   0.847   0.853   0.862   0.863   0.884   0.907   0.916
  0.927   0.938   0.941   0.959   0.961   0.967   0.971   0.983
  0.989   1.001   1.016   1.022   1.025   1.049   1.050   1.066
  1.069   1.070   1.080   1.085   1.089   1.111   1.123   1.135
  1.144   1.148   1.150   1.172   1.191   1.199   1.252   1.252
  1.266   1.267   1.277   1.289   1.300   1.307   1.311   1.315
  1.323   1.340   1.341   1.355   1.380   1.414   1.439   1.443
  1.461   1.465   1.473   1.480   1.482   1.495   1.508   1.509
  1.514   1.523   1.528   1.537   1.544   1.546   1.555   1.558
  1.583   1.614   1.637   1.673   1.742   1.758   1.789   1.794
  1.818   1.848   1.863   1.867   1.902   1.911   1.928   1.937
  1.939   1.950   1.960   1.977   1.982   1.995   2.002   2.014
  2.021   2.035   2.053   2.076   2.079   2.087   2.125   2.127
  2.149   2.171   2.176   2.179   2.183   2.193   2.247   2.247
  2.260   2.270   2.281   2.309   2.310   2.313   2.323   2.332
  2.356   2.358   2.372   2.390   2.408   2.413   2.418   2.423
  2.425   2.431   2.447   2.456   2.487   2.536   2.563   2.599
  2.629   2.665   2.674   2.686   2.717   2.737   2.739   2.752
  2.756   2.769   2.788   2.793   2.804   2.810   2.829   2.837
  2.868   2.891   2.907   2.917   2.968   2.996   3.004   3.008
  3.051   3.084   3.146   3.253   3.405   3.500   3.546   3.590
  9.334   9.461  13.173  13.320  13.413  13.627  13.674  13.711
 13.754  13.769  13.811  14.006  14.124  14.142  14.155  14.176
 14.208  14.244  14.475  14.513  14.545  14.559
 --------------------------------------------------------------
 
          Ground-State Mulliken Net Atomic Charges

     Atom                 Charge (a.u.)
  ----------------------------------------
      1 C                    -0.094278
      2 C                    -0.095664
      3 B                     0.218078
      4 C                    -0.104350
      5 C                    -0.106519
      6 B                     0.219016
      7 C                    -0.274424
      8 C                    -0.209089
      9 C                    -0.209484
     10 C                    -0.274407
     11 C                    -0.351491
     12 C                     0.178724
     13 C                     0.175699
     14 C                    -0.349871
     15 H                     0.219311
     16 C                    -0.385251
     17 H                     0.222745
     18 H                     0.222693
     19 H                     0.219278
     20 C                    -0.386137
     21 C                     0.166443
     22 C                     0.165251
     23 C                    -0.282511
     24 C                    -0.281657
     25 H                     0.224228
     26 H                     0.224252
     27 H                     0.214017
     28 H                     0.214010
     29 C                    -0.222884
     30 C                    -0.223285
     31 H                     0.219001
     32 H                     0.225982
     33 H                     0.218977
     34 H                     0.225939
     35 H                     0.039217
     36 H                     0.038441
  ----------------------------------------
  Sum of atomic charges =     0.000000

 -----------------------------------------------------------------
                    Cartesian Multipole Moments
 -----------------------------------------------------------------
    Charge (ESU x 10^10)
                 0.0000
    Dipole Moment (Debye)
         X      -1.2979      Y       0.6679      Z      -0.1932
       Tot       1.4724
    Quadrupole Moments (Debye-Ang)
        XX     -77.9032     XY     -17.3102     YY    -106.2966
        XZ       2.7891     YZ      -6.8212     ZZ    -134.0191
    Octopole Moments (Debye-Ang^2)
       XXX    2358.0132    XXY    -208.6050    XYY     857.1392
       YYY   -1442.0569    XXZ    -325.0085    XYZ      49.1520
       YYZ    -392.7698    XZZ    1209.0319    YZZ    -640.4541
       ZZZ   -1171.9005
    Hexadecapole Moments (Debye-Ang^3)
      XXXX  -51347.6517   XXXY   10718.0105   XXYY  -10812.4270
      XYYY   14018.3330   YYYY  -15712.0491   XXXZ    7382.3268
      XXYZ   -1657.9555   XYYZ    3163.6618   YYYZ   -4344.9361
      XXZZ  -13541.2612   XYZZ    6410.0618   YYZZ   -4677.3639
      XZZZ    9447.5147   YZZZ   -4765.7190   ZZZZ   -7594.5574
 -----------------------------------------------------------------
 Calculating analytic gradient of the SCF energy
  1.310639342998776E-004  1.310617330428535E-004
  1.310621254776690E-004  1.310635404149616E-004
  1.310641338311754E-004  1.310614883878918E-004
  1.310641663713660E-004  1.310614965939343E-004
  1.310627235990830E-004  1.310629461462888E-004
  1.310640507822342E-004  1.310615718216128E-004
  1.310689639697923E-004  1.310567180853630E-004
  1.310801932608131E-004  1.310454696755765E-004
  1.310581311581135E-004  1.310675017093391E-004
  1.310611541305658E-004  1.310645084679864E-004
  1.310608588704230E-004  1.310648122745148E-004
  1.310643096297373E-004  1.310613213698643E-004
  1.310639360714818E-004  1.310617366744975E-004
  1.310655256652018E-004  1.310601368057957E-004
  1.310631136389501E-004  1.310625160425991E-004
  1.310508817855566E-004  1.310747834482896E-004
  1.310492294175560E-004  1.310764474209338E-004
  1.310686364109720E-004  1.310569995134437E-004
  1.310483489106212E-004  1.310773189599561E-004
  1.310505365486470E-004  1.310751402032221E-004
  1.310655742408714E-004  1.310600684044536E-004
  1.310671177093793E-004  1.310585607319673E-004
  1.310730673596904E-004  1.310525963001404E-004
  1.310589861563428E-004  1.310666548765975E-004
  1.310558568835973E-004  1.310698033342886E-004
  1.310535379970420E-004  1.310721411423595E-004
  1.310648822025042E-004  1.310607615717882E-004
  1.310657282876769E-004  1.310599524465951E-004
  1.310807860266091E-004  1.310448798408148E-004
  1.310565440054503E-004  1.310690967398388E-004
  1.310556291776437E-004  1.310700428296660E-004
  1.310508618034540E-004  1.310748064792668E-004
  1.310659164226251E-004  1.310597105079005E-004
  1.310626518390756E-004  1.310630084833821E-004
  1.310628363210649E-004  1.310628322374186E-004
  1.310620080212009E-004  1.310636120614616E-004
  1.310625216244903E-004  1.310631436071319E-004
  1.310625988229946E-004  1.310630650626909E-004
  1.310624681542389E-004  1.310631515177899E-004
  1.310691421080514E-004  1.310565289138965E-004
  1.310751737356150E-004  1.310504952272249E-004
  1.310595056057641E-004  1.310661214121798E-004
  1.310607930674740E-004  1.310648882018228E-004
  1.310584722757048E-004  1.310672076185872E-004
  1.310636903447667E-004  1.310619645049194E-004
  1.310749344149118E-004  1.310507295338675E-004
  1.310777959997512E-004  1.310478825820203E-004
  1.310588253661852E-004  1.310668053721952E-004
  1.310654853028323E-004  1.310602017077295E-004
  1.310608390759117E-004  1.310648369505020E-004
  1.310633719805728E-004  1.310622943075416E-004
  1.310660515831920E-004  1.310596289520006E-004
  1.310616905599706E-004  1.310639910043387E-004
  1.310629986269442E-004  1.310626683447197E-004
  1.310654865199829E-004  1.310601947274644E-004
  1.310669136632178E-004  1.310587660297679E-004
  1.310615873243068E-004  1.310640676190291E-004
  1.310568218682605E-004  1.310688618651827E-004
  1.310445733807349E-004  1.310810877872242E-004
  1.310669566163511E-004  1.310586717285291E-004
  1.310636158973266E-004  1.310620466114826E-004
  1.310651385282084E-004  1.310605321529637E-004
  1.310615789603444E-004  1.310640489530760E-004
  1.310612195332392E-004  1.310644511136501E-004
  1.310605797702549E-004  1.310650834071564E-004
  1.310629862023044E-004  1.310626409212588E-004
  1.310607049362004E-004  1.310649762460386E-004
  1.310440987396626E-004  1.310815700228295E-004
  1.310679585530971E-004  1.310576809666519E-004
  1.310776724127282E-004  1.310479981422491E-004
  1.310753519270852E-004  1.310503262329987E-004
  1.310602937025410E-004  1.310653471007605E-004
  1.310604422371904E-004  1.310652300251877E-004
  1.310584498620513E-004  1.310672139810324E-004
  1.310633793935984E-004  1.310622744660054E-004
  1.310652065158474E-004  1.310604515248634E-004
  1.310668465959615E-004  1.310588289426732E-004
  1.310609748630476E-004  1.310646815840146E-004
  1.310634398641376E-004  1.310622425430260E-004
  1.310646550322288E-004  1.310610283021498E-004
  1.310623753091347E-004  1.310632844306272E-004
  1.310616118150344E-004  1.310640765965526E-004
  1.310613218939606E-004  1.310643561696702E-004
  1.310627258502939E-004  1.310629329357391E-004
  1.310697611383516E-004  1.310558983647994E-004
  1.310712781670651E-004  1.310544029610737E-004
  1.310609178139052E-004  1.310647235233446E-004
  1.310595826861940E-004  1.310660949318553E-004
  1.310525614247512E-004  1.310731034715289E-004
  1.310657142786018E-004  1.310599251575548E-004
  1.310594776338859E-004  1.310662031791581E-004
  1.310638472294050E-004  1.310618347548863E-004
  1.310624959603469E-004  1.310631701453034E-004
  1.310636317666580E-004  1.310620399219197E-004
  1.310671385557475E-004  1.310585265861260E-004
  1.310618789485466E-004  1.310637748771854E-004
  1.310600486405134E-004  1.310656380037677E-004
  1.310648971193117E-004  1.310607794686971E-004
  1.310619419380106E-004  1.310637234295037E-004
  1.310596420255652E-004  1.310660174468146E-004
  1.310598227720288E-004  1.310658532220746E-004
  1.310636394459939E-004  1.310620156788058E-004
  1.310628084550215E-004  1.310628722053697E-004
  1.310623111060621E-004  1.310633696506123E-004
  1.310644043372892E-004  1.310612586132185E-004
  1.310636459422743E-004  1.310620399601575E-004
  1.310634645546794E-004  1.310622126103309E-004
  1.310626180239633E-004  1.310630435082053E-004
 Gradient of SCF Energy
            1           2           3           4           5           6
    1  -0.0038454   0.0093381  -0.0025428   0.0032050  -0.0023580   0.0021400
    2  -0.0128830   0.0098924  -0.0037011   0.0048589  -0.0057116   0.0048380
    3   0.0035948  -0.0034228   0.0023868  -0.0020816   0.0013202  -0.0004950
            7           8           9          10          11          12
    1  -0.0004360  -0.0011164   0.0000860  -0.0014860  -0.0047989   0.0046216
    2   0.0014702  -0.0007391   0.0012708  -0.0006543   0.0067856  -0.0056187
    3  -0.0003385   0.0002363  -0.0003586   0.0000226  -0.0021432   0.0018747
           13          14          15          16          17          18
    1   0.0075708  -0.0086773   0.0006442  -0.0037997   0.0006257   0.0002047
    2  -0.0005292   0.0000440  -0.0011677  -0.0032023   0.0001642  -0.0005776
    3   0.0008013  -0.0005655   0.0005220   0.0007432   0.0000218   0.0003081
           19          20          21          22          23          24
    1   0.0013981   0.0010259  -0.0052769  -0.0039637   0.0078951   0.0059316
    2   0.0000698   0.0048663   0.0012786   0.0032025  -0.0017953  -0.0049363
    3  -0.0000133  -0.0012326  -0.0007334  -0.0012375   0.0012124   0.0018993
           25          26          27          28          29          30
    1  -0.0000630   0.0000939   0.0004735  -0.0003015  -0.0060271   0.0009950
    2  -0.0001428   0.0000888   0.0006095  -0.0006976  -0.0051562   0.0077616
    3   0.0001342  -0.0000032  -0.0002243   0.0003876   0.0010962  -0.0022171
           31          32          33          34          35          36
    1  -0.0010713   0.0001900  -0.0015204   0.0007594  -0.0004223   0.0005080
    2   0.0010441  -0.0007296   0.0002611   0.0002781  -0.0013625   0.0008204
    3  -0.0004553   0.0001760  -0.0000854  -0.0000467  -0.0006168  -0.0004668
 Max gradient component =       1.288E-02
 RMS gradient           =       3.307E-03
 Computing fast IEFPCM-SWIG gradient.
 Updating gradient with PCM contributions...
 -- total gradient after adding PCM contribution --
---------------------------------------------------
  Atom         X              Y              Z     
---------------------------------------------------
   1      -0.003845      -0.012883       0.003595
   2       0.009338       0.009892      -0.003423
   3      -0.002543      -0.003701       0.002387
   4       0.003205       0.004859      -0.002082
   5      -0.002358      -0.005712       0.001320
   6       0.002140       0.004838      -0.000495
   7      -0.000436       0.001470      -0.000339
   8      -0.001116      -0.000739       0.000236
   9       0.000086       0.001271      -0.000359
  10      -0.001486      -0.000655       0.000023
  11      -0.004799       0.006786      -0.002143
  12       0.004622      -0.005619       0.001875
  13       0.007571      -0.000529       0.000801
  14      -0.008678       0.000044      -0.000565
  15       0.000644      -0.001168       0.000522
  16      -0.003800      -0.003203       0.000743
  17       0.000626       0.000164       0.000022
  18       0.000205      -0.000578       0.000308
  19       0.001398       0.000070      -0.000013
  20       0.001026       0.004867      -0.001233
  21      -0.005277       0.001279      -0.000733
  22      -0.003964       0.003203      -0.001237
  23       0.007895      -0.001795       0.001212
  24       0.005931      -0.004937       0.001899
  25      -0.000063      -0.000143       0.000134
  26       0.000094       0.000089      -0.000003
  27       0.000474       0.000610      -0.000224
  28      -0.000302      -0.000698       0.000388
  29      -0.006027      -0.005156       0.001096
  30       0.000995       0.007762      -0.002217
  31      -0.001071       0.001044      -0.000455
  32       0.000190      -0.000730       0.000176
  33      -0.001521       0.000261      -0.000085
  34       0.000760       0.000278      -0.000047
  35      -0.000422      -0.001362      -0.000617
  36       0.000508       0.000820      -0.000467
---------------------------------------------------
 Number of fixed atoms: 0
 Gradient time:  CPU 117.51 s  wall 41.88 s
 Geometry Optimization Parameters
   NAtoms,    NIC,     NZ,  NCons,   NDum,   NFix, NCnnct, MaxDiis
       36     282       0       0       0       0       0       0

 Cartesian Hessian Update
 Hessian Updated using BFGS Update


** GEOMETRY OPTIMIZATION IN DELOCALIZED INTERNAL COORDINATES **
   Searching for a Minimum

   Optimization Cycle:   2

                       Coordinates (Angstroms)
     ATOM                X               Y               Z
      1  C        -7.5059770171    4.5704185280    2.9383507999
      2  C        -8.1861493366    3.3610119616    3.2872849859
      3  B        -7.3891506741    2.1263253502    3.7566939735
      4  C        -5.8457798255    2.2082763022    3.8525281152
      5  C        -5.1709917074    3.3941260875    3.4938282924
      6  B        -5.9640756228    4.6286335021    2.9917627880
      7  C        -3.7826770883    3.4457981187    3.6101529398
      8  C        -3.0644592481    2.3525434655    4.0760075749
      9  C        -3.7274572620    1.1866261384    4.4241249059
     10  C        -5.1091201064    1.1163952514    4.3095763029
     11  C        -8.2305550747    5.6743547450    2.5611523891
     12  C        -9.6483816518    5.6465291900    2.5000698975
     13  C       -10.3246478996    4.4302009290    2.8260046985
     14  C        -9.5560589217    3.3061872287    3.2212254109
     15  H        -7.7100153721    6.5884087368    2.3017173458
     16  C       -11.7133914838    4.3769878905    2.7482253768
     17  H        -5.6206096920    0.2020487645    4.5837924940
     18  H        -3.2550858697    4.3511209796    3.3372410590
     19  H       -10.0647307812    2.3846153264    3.4791027079
     20  C       -10.3949677031    6.7603324310    2.1246704643
     21  C       -11.7894320294    6.7098620972    2.0466124495
     22  C       -12.4632727689    5.4888959141    2.3601262884
     23  C       -12.5584182982    7.8318752191    1.6579912640
     24  C       -13.8741479485    5.4403756728    2.2652228879
     25  H        -1.9871482125    2.4073101198    4.1676703809
     26  H        -3.1665284548    0.3338119717    4.7850728859
     27  H       -12.2225504966    3.4519040554    2.9899612997
     28  H        -9.8838674944    7.6841393743    1.8841513936
     29  C       -13.9192274654    7.7479280883    1.5767728504
     30  C       -14.5824401723    6.5426217869    1.8809693323
     31  H       -14.3961835477    4.5207676705    2.4963810934
     32  H       -15.6605325539    6.4870942291    1.8101730495
     33  H       -12.0640334409    8.7647503693    1.4205121995
     34  H       -14.4904489134    8.6155909667    1.2749944393
     35  H        -5.3850988940    5.6106119612    2.6352226774
     36  H        -7.9601769709    1.1171795767    4.0457129860
   Point Group: c1    Number of degrees of freedom:   102


   Energy is   -818.472097212

 Hessian Updated using BFGS Update

102 Hessian modes will be used to form the next step
  Hessian Eigenvalues:
     0.008302    0.008891    0.009458    0.014583    0.015726    0.017082
     0.017822    0.018525    0.019104    0.021232    0.021389    0.021501
     0.021510    0.021689    0.021810    0.021915    0.021920    0.022200
     0.022262    0.022291    0.022316    0.022363    0.022395    0.022409
     0.022414    0.022509    0.022581    0.022661    0.022679    0.022698
     0.022713    0.022777    0.022797    0.156583    0.159348    0.159935
     0.159984    0.159992    0.159995    0.159996    0.159997    0.159997
     0.159997    0.159998    0.159999    0.160000    0.160364    0.216674
     0.219996    0.219998    0.225411    0.225730    0.229637    0.233766
     0.236827    0.238529    0.241453    0.245329    0.245733    0.249853
     0.249978    0.249994    0.253079    0.253349    0.257263    0.259161
     0.259884    0.265179    0.353410    0.353478    0.353660    0.353804
     0.355067    0.355372    0.355597    0.355734    0.357278    0.357429
     0.357515    0.357546    0.366130    0.381591    0.389040    0.408514
     0.411203    0.414752    0.415681    0.418284    0.430151    0.440234
     0.445296    0.447150    0.450823    0.453783    0.454380    0.454628
     0.455405    0.456048    0.456954    0.457948    0.460633    0.481944

 Minimum Search - Taking Simple RFO Step
 Searching for Lamda that Minimizes Along All modes
 Value Taken    Lamda =  -0.00143192
 Step Taken.  Stepsize is  0.169695

                             Maximum     Tolerance    Cnvgd?
         Gradient           0.010065      0.000300      NO
         Displacement       0.055087      0.001200      NO
         Energy change     -0.009623      0.000001      NO


 New Cartesian Coordinates Obtained by Inverse Iteration

 Displacement from previous Coordinates is:  0.379344
 Adding empirical dispersion correction 
 ----------------------------------------------------------------
 Doing -D3(BJ) with
 s6 =   1.00000
 s8 =   0.00000
 a1 =   0.48600
 a2 =   4.50000
 -D3 energy including 3body term =     -0.0282349482 hartrees
 ----------------------------------------------------------------
 Adding gCP correction 
 ----------------------------------------------------------------
 gCP energy =      0.0451991729 hartrees
 ----------------------------------------------------------------
             Standard Nuclear Orientation (Angstroms)
    I     Atom           X                Y                Z
 ----------------------------------------------------------------
    1      C      -7.5049556012     4.5857078783     2.9666986343
    2      C      -8.1908330449     3.3639043293     3.3130369991
    3      B      -7.3847033944     2.1290645649     3.7570507145
    4      C      -5.8432091370     2.2052320025     3.8573388610
    5      C      -5.1673622928     3.4009705624     3.5138755071
    6      B      -5.9661835334     4.6363717858     3.0312087227
    7      C      -3.7774066886     3.4439737837     3.6183971927
    8      C      -3.0553617047     2.3408642622     4.0547213174
    9      C      -3.7180873512     1.1693436463     4.3892236886
   10      C      -5.1012375162     1.1060593533     4.2881708290
   11      C      -8.2305299612     5.6781875146     2.5816265015
   12      C      -9.6538111172     5.6535918065     2.5068947810
   13      C     -10.3313267815     4.4387054116     2.8429881944
   14      C      -9.5544282159     3.3154391972     3.2457694005
   15      H      -7.7170824806     6.5956942840     2.3150113388
   16      C     -11.7145638766     4.3870631824     2.7645639780
   17      H      -5.6151192523     0.1875161707     4.5463310929
   18      H      -3.2528699813     4.3538676351     3.3520396045
   19      H     -10.0722738995     2.3968600466     3.5009642690
   20      C     -10.3983833484     6.7552548261     2.1119180495
   21      C     -11.7898018070     6.7067549564     2.0306045831
   22      C     -12.4649005085     5.4908691089     2.3640000094
   23      C     -12.5651650462     7.8245942585     1.6216590942
   24      C     -13.8817822713     5.4470326657     2.2721182795
   25      H      -1.9766243842     2.3919261301     4.1319597646
   26      H      -3.1566265526     0.3070142665     4.7262240056
   27      H     -12.2253325448     3.4645527624     3.0180010185
   28      H      -9.8863636674     7.6761443744     1.8567197250
   29      C     -13.9205402534     7.7435318493     1.5453387486
   30      C     -14.5882377056     6.5384592717     1.8744750075
   31      H     -14.3948960179     4.5267666959     2.5229478288
   32      H     -15.6671284401     6.4890841162     1.8077328159
   33      H     -12.0596510801     8.7483522852     1.3690916819
   34      H     -14.4958907941     8.6046178322     1.2317559098
   35      H      -5.3887301698     5.6441796612     2.7390066179
   36      H      -7.9563895780     1.1181075217     4.0515952331
 ----------------------------------------------------------------
 Nuclear Repulsion Energy =  1438.8011427765 hartrees
 There are       72 alpha and       72 beta electrons
 Discretize the solute cavity surface with Lebedev spheres
	Using 302 Lebedev grid points for each H atom
	Using 302 Lebedev grid points for other atoms
	Atomic van der Waals radii will be scaled by 1.20
 Remove points where switching function is < 1.0e-08
 Keep 3985 surface tesserae and discard 6887 interior tesserae
 Molecular Surface Area = 324.278 Angst**2
 Applying Cartesian multipole field
    Component          Value
    ---------          -----
     (2,0,0)        1.00000E-12
     (0,2,0)        2.00000E-12
     (0,0,2)       -3.00000E-11
 Nucleus-field energy     =    -0.0000000715 hartrees
 Requested basis set is def2-mSVP
 There are 182 shells and 358 basis functions
 A cutoff of  1.0D-12 yielded  10129 shell pairs
 There are     41177 function pairs (     45968 Cartesian)
 Smallest overlap matrix eigenvalue = 2.84E-04
 Guess MOs from SCF MO coefficient file

 -----------------------------------------------------------------------
  General SCF calculation program by
  Eric Jon Sundstrom, Paul Horn, Yuezhi Mao, Dmitri Zuev, Alec White,
  David Stuck, Shaama M.S., Shane Yost, Joonho Lee, David Small,
  Daniel Levine, Susi Lehtola, Hugh Burton, Evgeny Epifanovsky
 -----------------------------------------------------------------------
 Exchange:     0.4200 Hartree-Fock + 0.5800 PBEh-3c
 Correlation:  1.0000 PBEh-3c
 Using SG-1 standard quadrature grid
 Dispersion:   Grimme D3
 using 4 threads for integral computing
 -------------------------------------------------------
 OpenMP Integral computing Module                
 Release: version 2.0, May 2017, Q-Chem Inc. Pleasanton 
 -------------------------------------------------------
 -------------------------------------------------------
 OpenMP BLAS3 based DFT computing Module                
 Release: version 1.0, May 2013, Q-Chem Inc. Pittsburgh 
 -------------------------------------------------------
 A restricted SCF calculation will be
 performed using DIIS
 SCF converges when DIIS error is below 1.0e-09
 ---------------------------------------
  Cycle       Energy         DIIS error
 ---------------------------------------
 Using non-symmetric K matrix
    1    -818.4705211093      2.77e-04  
    2    -818.4726653435      5.14e-05  
    3    -818.4727624044      3.41e-05  
    4    -818.4727806665      1.44e-05  
    5    -818.4727843716      7.09e-06  
    6    -818.4727853355      1.61e-06  
    7    -818.4727853929      3.95e-07  
    8    -818.4727853963      2.21e-07  
    9    -818.4727853974      6.08e-08  
   10    -818.4727853974      2.07e-08  
   11    -818.4727853975      5.58e-09  
   12    -818.4727853975      2.61e-09  
   13    -818.4727853975      1.07e-09  
   14    -818.4727853975      3.88e-10  Convergence criterion met
 ---------------------------------------
 SCF time:   CPU 896.85s  wall 239.00s 

************** Final PCM Free Energy Summary **************
 G_electrostatic  =      -0.00000068 hartree =      -0.00042599 kcal/mol
 G_cavitation     =       0.00000000 hartree =       0.00000000 kcal/mol
 G_dispersion     =       0.00000000 hartree =       0.00000000 kcal/mol
 G_repulsion      =       0.00000000 hartree =       0.00000000 kcal/mol
 --------------------------------------------------
 Non-electrostatic Free Energy =       0.00000000 hartree =       0.00000000 kcal/mol
 Total                         =      -0.00000068 hartree =      -0.00042599 kcal/mol
 --------------------------------------------------
 SCF Energy (H0 + V/2)                       =    -818.47278540 
 Solute Internal Energy (H0)                 =    -818.47278472 
 Total Free Energy (H0 + V/2 + non-elec)     =    -818.47278540 hartree
                                             = -513599.42459265 kcal/mol
***********************************************************

 SCF   energy in the final basis set =     -818.4727853975
 Total energy in the final basis set =     -818.4727853975
 
 --------------------------------------------------------------
 
                    Orbital Energies (a.u.)
 --------------------------------------------------------------
 
 Alpha MOs
 -- Occupied --
-10.471 -10.470 -10.468 -10.467 -10.463 -10.463 -10.461 -10.461
-10.460 -10.460 -10.459 -10.459 -10.456 -10.455 -10.452 -10.452
-10.432 -10.432 -10.430 -10.430  -6.943  -6.943  -0.999  -0.961
 -0.955  -0.906  -0.892  -0.854  -0.847  -0.839  -0.829  -0.801
 -0.736  -0.708  -0.690  -0.687  -0.683  -0.667  -0.620  -0.612
 -0.589  -0.582  -0.550  -0.537  -0.529  -0.525  -0.516  -0.513
 -0.497  -0.492  -0.488  -0.481  -0.472  -0.465  -0.446  -0.436
 -0.433  -0.424  -0.423  -0.414  -0.398  -0.379  -0.376  -0.365
 -0.358  -0.351  -0.341  -0.313  -0.310  -0.298  -0.282  -0.242
 -- Virtual --
 -0.076  -0.067  -0.009   0.003   0.027   0.054   0.060   0.074
  0.128   0.142   0.147   0.154   0.169   0.173   0.180   0.184
  0.186   0.194   0.206   0.209   0.210   0.212   0.222   0.225
  0.240   0.248   0.259   0.266   0.268   0.274   0.294   0.301
  0.305   0.313   0.317   0.321   0.327   0.333   0.340   0.355
  0.368   0.370   0.376   0.395   0.418   0.419   0.456   0.483
  0.488   0.492   0.497   0.508   0.516   0.520   0.523   0.527
  0.532   0.537   0.538   0.550   0.570   0.574   0.579   0.584
  0.585   0.595   0.600   0.601   0.604   0.612   0.616   0.625
  0.626   0.631   0.633   0.638   0.643   0.647   0.651   0.657
  0.657   0.675   0.683   0.688   0.703   0.724   0.739   0.741
  0.745   0.746   0.780   0.784   0.786   0.793   0.813   0.822
  0.839   0.849   0.853   0.862   0.863   0.885   0.911   0.916
  0.927   0.938   0.941   0.959   0.959   0.967   0.971   0.983
  0.988   1.002   1.016   1.023   1.025   1.047   1.052   1.066
  1.068   1.069   1.079   1.085   1.086   1.109   1.123   1.134
  1.143   1.148   1.149   1.172   1.191   1.199   1.252   1.252
  1.266   1.267   1.276   1.285   1.300   1.307   1.310   1.312
  1.322   1.340   1.341   1.352   1.378   1.412   1.441   1.443
  1.463   1.466   1.471   1.480   1.482   1.496   1.506   1.509
  1.517   1.523   1.529   1.537   1.545   1.546   1.554   1.559
  1.582   1.613   1.637   1.674   1.740   1.760   1.790   1.794
  1.816   1.845   1.859   1.866   1.901   1.910   1.927   1.937
  1.939   1.947   1.959   1.976   1.984   1.995   2.001   2.011
  2.029   2.036   2.051   2.075   2.077   2.084   2.124   2.124
  2.144   2.170   2.175   2.180   2.183   2.190   2.246   2.248
  2.257   2.270   2.282   2.307   2.307   2.309   2.326   2.328
  2.353   2.355   2.377   2.393   2.404   2.414   2.418   2.426
  2.428   2.433   2.444   2.454   2.485   2.535   2.566   2.601
  2.635   2.667   2.676   2.684   2.714   2.734   2.738   2.756
  2.756   2.763   2.783   2.796   2.801   2.812   2.825   2.836
  2.865   2.894   2.910   2.915   2.961   3.001   3.005   3.010
  3.056   3.086   3.154   3.245   3.397   3.498   3.541   3.594
  9.337   9.465  13.173  13.319  13.414  13.628  13.671  13.708
 13.756  13.764  13.815  13.994  14.131  14.136  14.156  14.170
 14.216  14.249  14.480  14.511  14.541  14.558
 --------------------------------------------------------------
 
          Ground-State Mulliken Net Atomic Charges

     Atom                 Charge (a.u.)
  ----------------------------------------
      1 C                    -0.092014
      2 C                    -0.093882
      3 B                     0.217220
      4 C                    -0.104710
      5 C                    -0.106414
      6 B                     0.218007
      7 C                    -0.273946
      8 C                    -0.208958
      9 C                    -0.209317
     10 C                    -0.273892
     11 C                    -0.349872
     12 C                     0.177189
     13 C                     0.173507
     14 C                    -0.348100
     15 H                     0.218430
     16 C                    -0.383914
     17 H                     0.222994
     18 H                     0.222974
     19 H                     0.218347
     20 C                    -0.385152
     21 C                     0.162951
     22 C                     0.161066
     23 C                    -0.278621
     24 C                    -0.277638
     25 H                     0.224757
     26 H                     0.224795
     27 H                     0.213508
     28 H                     0.213497
     29 C                    -0.223585
     30 C                    -0.224204
     31 H                     0.218462
     32 H                     0.226213
     33 H                     0.218437
     34 H                     0.226189
     35 H                     0.038065
     36 H                     0.037611
  ----------------------------------------
  Sum of atomic charges =    -0.000000

 -----------------------------------------------------------------
                    Cartesian Multipole Moments
 -----------------------------------------------------------------
    Charge (ESU x 10^10)
                -0.0000
    Dipole Moment (Debye)
         X      -1.2763      Y       0.6224      Z      -0.2869
       Tot       1.4487
    Quadrupole Moments (Debye-Ang)
        XX     -77.9535     XY     -17.2375     YY    -106.8246
        XZ       3.4005     YZ      -7.4100     ZZ    -134.5994
    Octopole Moments (Debye-Ang^2)
       XXX    2355.5733    XXY    -206.2539    XYY     859.8263
       YYY   -1448.4217    XXZ    -328.9759    XYZ      53.3036
       YYZ    -397.9310    XZZ    1211.4981    YZZ    -642.4569
       ZZZ   -1175.9866
    Hexadecapole Moments (Debye-Ang^3)
      XXXX  -51297.2410   XXXY   10663.8276   XXYY  -10822.0427
      XYYY   14071.1367   YYYY  -15785.0559   XXXZ    7401.8160
      XXYZ   -1691.7686   XYYZ    3206.9521   YYYZ   -4390.8524
      XXZZ  -13551.7202   XYZZ    6421.8736   YYZZ   -4694.3883
      XZZZ    9460.7154   YZZZ   -4772.4955   ZZZZ   -7624.5093
 -----------------------------------------------------------------
 Calculating analytic gradient of the SCF energy
  1.316735593262797E-004  1.316712503659698E-004
  1.316715943404901E-004  1.316732141136214E-004
  1.316731992321608E-004  1.316715652519730E-004
  1.316737534178266E-004  1.316710520062642E-004
  1.316720782085132E-004  1.316727340517257E-004
  1.316731200968152E-004  1.316716447218468E-004
  1.316784788983824E-004  1.316663456061558E-004
  1.316898941495345E-004  1.316549114021587E-004
  1.316681395124007E-004  1.316766353476107E-004
  1.316708019359535E-004  1.316740032796026E-004
  1.316702503845197E-004  1.316745637169741E-004
  1.316735637723996E-004  1.316712089847098E-004
  1.316736172563541E-004  1.316711980101962E-004
  1.316749457081527E-004  1.316698595919730E-004
  1.316722641643730E-004  1.316725074724594E-004
  1.316604878392995E-004  1.316843198203164E-004
  1.316585939129125E-004  1.316862258657466E-004
  1.316775815294123E-004  1.316671960092545E-004
  1.316579141831777E-004  1.316868963311116E-004
  1.316600715688164E-004  1.316847481033003E-004
  1.316751666786876E-004  1.316696177081285E-004
  1.316766255299527E-004  1.316681956115909E-004
  1.316828309189344E-004  1.316619756417812E-004
  1.316688638645226E-004  1.316759191979732E-004
  1.316653391940532E-004  1.316794637347400E-004
  1.316631312323722E-004  1.316816912271056E-004
  1.316745095761097E-004  1.316702758118612E-004
  1.316753124943119E-004  1.316695107180405E-004
  1.316905123511765E-004  1.316542963720407E-004
  1.316664734907706E-004  1.316783092186138E-004
  1.316652433726219E-004  1.316795711348596E-004
  1.316604067992506E-004  1.316844035804006E-004
  1.316754902109386E-004  1.316692792178248E-004
  1.316723522871750E-004  1.316724504485362E-004
  1.316724122973719E-004  1.316723982749181E-004
  1.316716482549051E-004  1.316731146279647E-004
  1.316721942293910E-004  1.316726134046312E-004
  1.316720479240736E-004  1.316727581843922E-004
  1.316719501745518E-004  1.316728121615060E-004
  1.316787962494981E-004  1.316660169830827E-004
  1.316846433648400E-004  1.316601681015594E-004
  1.316687689679642E-004  1.316760004996747E-004
  1.316702498608658E-004  1.316745739932762E-004
  1.316681259519347E-004  1.316766962233725E-004
  1.316735903057518E-004  1.316712072020713E-004
  1.316844886033606E-004  1.316603177194897E-004
  1.316873204405497E-004  1.316575001727041E-004
  1.316682016196948E-004  1.316765718869954E-004
  1.316749818324391E-004  1.316698476478189E-004
  1.316704871277674E-004  1.316743316986667E-004
  1.316730611588105E-004  1.316717474577596E-004
  1.316755471652317E-004  1.316692760418395E-004
  1.316713773745193E-004  1.316734467997585E-004
  1.316727752660152E-004  1.316720340098416E-004
  1.316750098027911E-004  1.316698138852037E-004
  1.316765989091076E-004  1.316682234352611E-004
  1.316711609135515E-004  1.316736365190130E-004
  1.316663761043571E-004  1.316784500214233E-004
  1.316543118386603E-004  1.316904912953379E-004
  1.316771143744247E-004  1.316676567913133E-004
  1.316731086043987E-004  1.316716965389501E-004
  1.316747536668000E-004  1.316700588899890E-004
  1.316713404345635E-004  1.316734305428912E-004
  1.316707661885126E-004  1.316740469348706E-004
  1.316702215946582E-004  1.316745837439059E-004
  1.316726740597979E-004  1.316720959757958E-004
  1.316701223205874E-004  1.316747013771276E-004
  1.316538173144259E-004  1.316909936636892E-004
  1.316780314289274E-004  1.316667511501986E-004
  1.316871788511149E-004  1.316576346806185E-004
  1.316849742789939E-004  1.316598456961133E-004
  1.316695751691768E-004  1.316752086226661E-004
  1.316699761053484E-004  1.316748388889369E-004
  1.316681156311971E-004  1.316766907925963E-004
  1.316732110558447E-004  1.316715851784440E-004
  1.316747516041358E-004  1.316700490374586E-004
  1.316765425504974E-004  1.316682761873356E-004
  1.316708603557902E-004  1.316739379829021E-004
  1.316730126336272E-004  1.316718122676788E-004
  1.316742002665425E-004  1.316706253812471E-004
  1.316718895226793E-004  1.316729128623918E-004
  1.316711787613180E-004  1.316736521301580E-004
  1.316709931600754E-004  1.316738270846220E-004
  1.316725985008279E-004  1.316722030863485E-004
  1.316792471692800E-004  1.316655548247056E-004
  1.316808605473662E-004  1.316639623504787E-004
  1.316703644379890E-004  1.316744197203188E-004
  1.316690698521452E-004  1.316757501808309E-004
  1.316622298642280E-004  1.316825770516003E-004
  1.316754573272392E-004  1.316693247475690E-004
  1.316691894270291E-004  1.316756343999334E-004
  1.316733228353041E-004  1.316715012334011E-004
  1.316720136860069E-004  1.316727951028825E-004
  1.316732741980733E-004  1.316715401849089E-004
  1.316765958642981E-004  1.316682114423575E-004
  1.316713262791394E-004  1.316734700931601E-004
  1.316697456040895E-004  1.316750834432416E-004
  1.316744309200254E-004  1.316703882566458E-004
[...]
    1   0.0000156  -0.0000042   0.0000099  -0.0000068  -0.0000171  -0.0000000
    2   0.0000507  -0.0000147   0.0000014  -0.0000209  -0.0000225  -0.0000261
    3  -0.0000145  -0.0000091   0.0000280   0.0000008  -0.0000213   0.0000229
           19          20          21          22          23          24
    1  -0.0000066   0.0000356  -0.0000191   0.0000247   0.0000308  -0.0000015
    2  -0.0000010   0.0000365  -0.0000241   0.0000652   0.0000407   0.0000065
    3  -0.0000213   0.0000089   0.0000189  -0.0000193   0.0000109  -0.0000002
           25          26          27          28          29          30
    1  -0.0000111  -0.0000210  -0.0000024   0.0000121   0.0000117   0.0000099
    2  -0.0000335  -0.0000340   0.0000161   0.0000081   0.0000296   0.0000308
    3   0.0000032  -0.0000158  -0.0000201   0.0000226   0.0000128  -0.0000052
           31          32          33          34          35          36
    1  -0.0000000   0.0000081   0.0000181   0.0000147   0.0000055  -0.0000176
    2   0.0000261   0.0000390   0.0000238   0.0000339  -0.0000129  -0.0000089
    3  -0.0000179  -0.0000066   0.0000231   0.0000136   0.0000106  -0.0000030
 Max gradient component =       7.550E-05
 RMS gradient           =       2.170E-05
 Computing fast IEFPCM-SWIG gradient.
 Updating gradient with PCM contributions...
 -- total gradient after adding PCM contribution --
---------------------------------------------------
  Atom         X              Y              Z     
---------------------------------------------------
   1       0.000013      -0.000005      -0.000009
   2      -0.000013      -0.000010       0.000025
   3      -0.000003      -0.000023      -0.000076
   4       0.000001      -0.000011       0.000018
   5       0.000003      -0.000032      -0.000008
   6      -0.000003      -0.000009       0.000045
   7      -0.000014      -0.000017      -0.000001
   8      -0.000022      -0.000040       0.000002
   9      -0.000013      -0.000017      -0.000015
  10      -0.000031      -0.000024      -0.000018
  11       0.000016       0.000009       0.000002
  12      -0.000023      -0.000031       0.000013
  13       0.000016       0.000051      -0.000014
  14      -0.000004      -0.000015      -0.000009
  15       0.000010       0.000001       0.000028
  16      -0.000007      -0.000021       0.000001
  17      -0.000017      -0.000022      -0.000021
  18      -0.000000      -0.000026       0.000023
  19      -0.000007      -0.000001      -0.000021
  20       0.000036       0.000037       0.000009
  21      -0.000019      -0.000024       0.000019
  22       0.000025       0.000065      -0.000019
  23       0.000031       0.000041       0.000011
  24      -0.000002       0.000006      -0.000000
  25      -0.000011      -0.000033       0.000003
  26      -0.000021      -0.000034      -0.000016
  27      -0.000002       0.000016      -0.000020
  28       0.000012       0.000008       0.000023
  29       0.000012       0.000030       0.000013
  30       0.000010       0.000031      -0.000005
  31       0.000000       0.000026      -0.000018
  32       0.000008       0.000039      -0.000007
  33       0.000018       0.000024       0.000023
  34       0.000015       0.000034       0.000014
  35       0.000006      -0.000013       0.000011
  36      -0.000018      -0.000009      -0.000003
---------------------------------------------------
 Number of fixed atoms: 0
 Gradient time:  CPU 118.58 s  wall 43.10 s
 Geometry Optimization Parameters
   NAtoms,    NIC,     NZ,  NCons,   NDum,   NFix, NCnnct, MaxDiis
       36     282       0       0       0       0       0       0

 Cartesian Hessian Update
 Hessian Updated using BFGS Update


** GEOMETRY OPTIMIZATION IN DELOCALIZED INTERNAL COORDINATES **
   Searching for a Minimum

   Optimization Cycle:   8

                       Coordinates (Angstroms)
     ATOM                X               Y               Z
      1  C        -7.5095146881    4.6121683207    3.0397983183
      2  C        -8.1968509828    3.3877764707    3.3855261694
      3  B        -7.3878551780    2.1523890919    3.8251257860
      4  C        -5.8431857442    2.2127775733    3.8821977905
      5  C        -5.1667769896    3.4103960315    3.5447600824
      6  B        -5.9701070569    4.6633897965    3.1162363748
      7  C        -3.7738206981    3.4367880052    3.5997469337
      8  C        -3.0491624969    2.3130207426    3.9754852727
      9  C        -3.7125872605    1.1404471846    4.3051806757
     10  C        -5.0995929146    1.0954293795    4.2586221574
     11  C        -8.2350912068    5.6991120885    2.6386665319
     12  C        -9.6573101402    5.6656714559    2.5408019976
     13  C       -10.3342496061    4.4536063863    2.8820862789
     14  C        -9.5594045886    3.3358743752    3.3049780679
     15  H        -7.7252055343    6.6207478510    2.3782895348
     16  C       -11.7164261615    4.3939330219    2.7862659258
     17  H        -5.6144219149    0.1774734365    4.5169343410
     18  H        -3.2490179345    4.3493132320    3.3431161869
     19  H       -10.0807019964    2.4196817506    3.5629167042
     20  C       -10.3995175961    6.7601594088    2.1201185806
     21  C       -11.7901475812    6.7025963853    2.0189426946
     22  C       -12.4642758179    5.4905593420    2.3596803355
     23  C       -12.5629362599    7.8120876614    1.5819655146
     24  C       -13.8798356166    5.4379738069    2.2493386174
     25  H        -1.9678001984    2.3501017282    4.0109957947
     26  H        -3.1493588979    0.2631982139    4.5972974313
     27  H       -12.2276870303    3.4728128758    3.0442167266
     28  H        -9.8881999377    7.6801327090    1.8596582647
     29  C       -13.9175961617    7.7243894617    1.4872711823
     30  C       -14.5856784946    6.5207982521    1.8252966456
     31  H       -14.3897488631    4.5177955494    2.5074697658
     32  H       -15.6633008283    6.4691491349    1.7434661017
     33  H       -12.0543690184    8.7324412645    1.3226385824
     34  H       -14.4943932210    8.5761730182    1.1521019586
     35  H        -5.3929418891    5.6745350365    2.8360843648
     36  H        -7.9587194947    1.1407599570    4.1177823088
   Point Group: c1    Number of degrees of freedom:   102


   Energy is   -818.472869766

 Hessian Updated using BFGS Update

102 Hessian modes will be used to form the next step
  Hessian Eigenvalues:
     0.004229    0.011267    0.015272    0.015884    0.017043    0.018350
     0.018577    0.019930    0.021023    0.021317    0.021465    0.021501
     0.021687    0.021786    0.021907    0.021972    0.022191    0.022257
     0.022299    0.022319    0.022355    0.022394    0.022414    0.022463
     0.022528    0.022659    0.022678    0.022679    0.022728    0.022775
     0.022801    0.029059    0.032371    0.146473    0.159342    0.159686
     0.159937    0.159983    0.159985    0.159993    0.159996    0.159997
     0.159998    0.159998    0.159999    0.160045    0.160076    0.214036
     0.219979    0.219999    0.224459    0.225789    0.229377    0.232944
     0.236821    0.238527    0.241449    0.245229    0.245673    0.249792
     0.249958    0.249990    0.253064    0.253296    0.257277    0.259463
     0.259926    0.266209    0.352650    0.353444    0.353495    0.353673
     0.354975    0.355375    0.355502    0.355752    0.357300    0.357443
     0.357527    0.357568    0.363759    0.377314    0.390133    0.406663
     0.409616    0.414602    0.415657    0.418275    0.430242    0.440203
     0.444805    0.446918    0.450312    0.453411    0.454106    0.454843
     0.456008    0.456916    0.457744    0.459451    0.471743    0.483567

 Minimum Search - Taking Simple RFO Step
 Searching for Lamda that Minimizes Along All modes
 Value Taken    Lamda =   0.00000000
 Step Taken.  Stepsize is  0.002525

                             Maximum     Tolerance    Cnvgd?
         Gradient           0.000044      0.000300     YES
         Displacement       0.001274      0.001200      NO
         Energy change     -0.000000      0.000001     YES

 Final energy is   -818.472869765863     


 ******************************
 **  OPTIMIZATION CONVERGED  **
 ******************************

                       Coordinates (Angstroms)
     ATOM                X               Y               Z
      1  C        -7.5095146881    4.6121683207    3.0397983183
      2  C        -8.1968509828    3.3877764707    3.3855261694
      3  B        -7.3878551780    2.1523890919    3.8251257860
      4  C        -5.8431857442    2.2127775733    3.8821977905
      5  C        -5.1667769896    3.4103960315    3.5447600824
      6  B        -5.9701070569    4.6633897965    3.1162363748
      7  C        -3.7738206981    3.4367880052    3.5997469337
      8  C        -3.0491624969    2.3130207426    3.9754852727
      9  C        -3.7125872605    1.1404471846    4.3051806757
     10  C        -5.0995929146    1.0954293795    4.2586221574
     11  C        -8.2350912068    5.6991120885    2.6386665319
     12  C        -9.6573101402    5.6656714559    2.5408019976
     13  C       -10.3342496061    4.4536063863    2.8820862789
     14  C        -9.5594045886    3.3358743752    3.3049780679
     15  H        -7.7252055343    6.6207478510    2.3782895348
     16  C       -11.7164261615    4.3939330219    2.7862659258
     17  H        -5.6144219149    0.1774734365    4.5169343410
     18  H        -3.2490179345    4.3493132320    3.3431161869
     19  H       -10.0807019964    2.4196817506    3.5629167042
     20  C       -10.3995175961    6.7601594088    2.1201185806
     21  C       -11.7901475812    6.7025963853    2.0189426946
     22  C       -12.4642758179    5.4905593420    2.3596803355
     23  C       -12.5629362599    7.8120876614    1.5819655146
     24  C       -13.8798356166    5.4379738069    2.2493386174
     25  H        -1.9678001984    2.3501017282    4.0109957947
     26  H        -3.1493588979    0.2631982139    4.5972974313
     27  H       -12.2276870303    3.4728128758    3.0442167266
     28  H        -9.8881999377    7.6801327090    1.8596582647
     29  C       -13.9175961617    7.7243894617    1.4872711823
     30  C       -14.5856784946    6.5207982521    1.8252966456
     31  H       -14.3897488631    4.5177955494    2.5074697658
     32  H       -15.6633008283    6.4691491349    1.7434661017
     33  H       -12.0543690184    8.7324412645    1.3226385824
     34  H       -14.4943932210    8.5761730182    1.1521019586
     35  H        -5.3929418891    5.6745350365    2.8360843648
     36  H        -7.9587194947    1.1407599570    4.1177823088

Z-matrix Print:
$molecule
0 1
C 
C  1 1.386778
H  2 1.084615 1 119.335486
C  2 1.394218 1 121.460403 3 -179.710914 0
C  4 1.420827 2 121.941685 1 179.578463 0
H  5 1.083223 4 118.811234 2 0.153491 0
C  5 1.360344 4 120.776819 2 -179.732515 0
H  7 1.081958 5 120.156876 4 179.901783 0
C  7 1.417472 5 120.375707 4 -0.093962 0
H  9 1.081928 7 119.412677 5 -179.978506 0
C  9 1.360794 7 120.485637 5 0.024296 0
H  11 1.083024 9 120.369041 7 179.962999 0
C  11 1.420958 9 120.829058 7 0.066470 0
C  13 1.395493 11 122.143624 9 179.690143 0
H  14 1.084268 13 119.177579 11 0.122764 0
C  14 1.387714 13 121.494952 11 -179.604373 0
C  1 1.424271 2 121.935936 3 0.292071 0
H  17 1.085215 1 118.150366 2 -0.425198 0
C  17 1.365919 1 122.031025 2 179.242259 0
C  16 1.425974 14 122.394281 13 179.373354 0
H  20 1.084985 16 118.174608 14 0.391553 0
C  20 1.367046 16 122.063350 14 -179.261844 0
B  19 1.540748 17 120.672574 1 -178.999626 0
H  23 1.197885 19 119.776558 17 -1.057051 0
B  22 1.542155 20 121.194979 16 178.979889 0
H  25 1.197506 22 119.838951 20 0.896821 0
C  23 1.546903 19 120.234096 17 178.620284 0
C  27 1.393949 23 120.753426 19 -179.010679 0
H  28 1.083705 27 119.335353 23 -0.234731 0
C  28 1.388517 27 121.059613 23 179.655189 0
H  30 1.082647 28 120.161780 27 -179.852480 0
C  30 1.386997 28 119.817280 27 0.111008 0
H  32 1.082580 30 119.929845 28 -179.989393 0
C  32 1.388943 30 119.917381 28 -0.027103 0
H  34 1.083503 32 119.523156 30 -179.975174 0
C  34 1.394291 32 121.103664 30 -0.085762 0
$end

 
 --------------------------------------------------------------
 
                    Orbital Energies (a.u.)
 --------------------------------------------------------------
 
 Alpha MOs
 -- Occupied --
-10.471 -10.470 -10.468 -10.467 -10.463 -10.463 -10.462 -10.461
-10.460 -10.460 -10.459 -10.459 -10.456 -10.455 -10.452 -10.452
-10.432 -10.432 -10.431 -10.430  -6.943  -6.943  -0.999  -0.961
 -0.955  -0.906  -0.892  -0.854  -0.846  -0.839  -0.829  -0.801
 -0.736  -0.707  -0.691  -0.687  -0.683  -0.667  -0.620  -0.612
 -0.589  -0.581  -0.550  -0.537  -0.529  -0.526  -0.516  -0.513
 -0.497  -0.492  -0.488  -0.481  -0.472  -0.465  -0.446  -0.436
 -0.433  -0.424  -0.423  -0.414  -0.399  -0.378  -0.376  -0.365
 -0.358  -0.351  -0.341  -0.312  -0.310  -0.298  -0.282  -0.242
 -- Virtual --
 -0.076  -0.067  -0.009   0.003   0.027   0.054   0.060   0.074
  0.128   0.142   0.147   0.154   0.168   0.173   0.180   0.184
  0.186   0.194   0.206   0.210   0.210   0.212   0.221   0.225
  0.240   0.248   0.260   0.266   0.268   0.273   0.293   0.302
  0.305   0.312   0.316   0.321   0.327   0.334   0.340   0.355
  0.368   0.370   0.376   0.395   0.418   0.419   0.456   0.483
  0.488   0.492   0.497   0.508   0.516   0.520   0.523   0.528
  0.532   0.537   0.538   0.550   0.570   0.574   0.579   0.584
  0.585   0.595   0.600   0.601   0.604   0.612   0.615   0.625
  0.626   0.631   0.633   0.638   0.643   0.647   0.651   0.657
  0.657   0.675   0.683   0.688   0.702   0.724   0.739   0.741
  0.744   0.746   0.780   0.783   0.786   0.793   0.812   0.822
  0.839   0.849   0.854   0.862   0.863   0.885   0.910   0.915
  0.927   0.937   0.941   0.959   0.959   0.966   0.970   0.983
  0.988   1.002   1.016   1.023   1.025   1.047   1.052   1.065
  1.068   1.069   1.079   1.085   1.085   1.108   1.122   1.134
  1.143   1.147   1.149   1.173   1.191   1.199   1.251   1.252
  1.266   1.267   1.276   1.285   1.300   1.307   1.309   1.312
  1.322   1.339   1.340   1.352   1.378   1.412   1.441   1.443
  1.463   1.466   1.473   1.480   1.481   1.496   1.506   1.509
  1.517   1.523   1.529   1.537   1.545   1.546   1.554   1.559
  1.582   1.613   1.637   1.673   1.740   1.759   1.791   1.794
  1.816   1.844   1.858   1.866   1.901   1.909   1.927   1.937
  1.939   1.947   1.958   1.976   1.983   1.995   2.000   2.011
  2.028   2.035   2.051   2.074   2.076   2.084   2.123   2.124
  2.143   2.170   2.175   2.180   2.183   2.190   2.246   2.247
  2.256   2.270   2.282   2.306   2.307   2.309   2.326   2.328
  2.353   2.355   2.376   2.392   2.403   2.413   2.416   2.426
  2.427   2.432   2.443   2.454   2.485   2.535   2.565   2.601
  2.635   2.665   2.676   2.684   2.714   2.733   2.737   2.754
  2.756   2.762   2.782   2.797   2.800   2.812   2.825   2.836
  2.863   2.893   2.909   2.915   2.960   3.000   3.004   3.009
  3.056   3.085   3.152   3.243   3.396   3.498   3.540   3.593
  9.336   9.464  13.173  13.319  13.414  13.628  13.671  13.708
 13.756  13.764  13.814  13.993  14.129  14.136  14.156  14.170
 14.215  14.248  14.478  14.509  14.541  14.558
 --------------------------------------------------------------
 
          Ground-State Mulliken Net Atomic Charges

     Atom                 Charge (a.u.)
  ----------------------------------------
      1 C                    -0.093554
      2 C                    -0.095035
      3 B                     0.217742
      4 C                    -0.105109
      5 C                    -0.106777
      6 B                     0.218740
      7 C                    -0.273715
      8 C                    -0.208928
      9 C                    -0.209529
     10 C                    -0.273473
     11 C                    -0.349484
     12 C                     0.177336
     13 C                     0.173504
     14 C                    -0.347558
     15 H                     0.218416
     16 C                    -0.383738
     17 H                     0.223091
     18 H                     0.223086
     19 H                     0.218323
     20 C                    -0.385062
     21 C                     0.163204
     22 C                     0.161351
     23 C                    -0.278948
     24 C                    -0.277939
     25 H                     0.224773
     26 H                     0.224819
     27 H                     0.213738
     28 H                     0.213734
     29 C                    -0.223807
     30 C                    -0.224468
     31 H                     0.218457
     32 H                     0.226268
     33 H                     0.218445
     34 H                     0.226238
     35 H                     0.038194
     36 H                     0.037666
  ----------------------------------------
  Sum of atomic charges =    -0.000000

 -----------------------------------------------------------------
                    Cartesian Multipole Moments
 -----------------------------------------------------------------
    Charge (ESU x 10^10)
                -0.0000
    Dipole Moment (Debye)
         X      -1.2649      Y       0.5895      Z      -0.3737
       Tot       1.4447
    Quadrupole Moments (Debye-Ang)
        XX     -78.1270     XY     -16.9813     YY    -107.0671
        XZ       3.9360     YZ      -7.8433     ZZ    -135.2052
    Octopole Moments (Debye-Ang^2)
       XXX    2358.9566    XXY    -210.6091    XYY     863.5524
       YYY   -1452.6819    XXZ    -337.6174    XYZ      58.2071
       YYZ    -402.2218    XZZ    1212.8817    YZZ    -643.7265
       ZZZ   -1182.3370
    Hexadecapole Moments (Debye-Ang^3)
      XXXX  -51365.2676   XXXY   10741.0626   XXYY  -10886.9212
      XYYY   14129.0124   YYYY  -15839.4453   XXXZ    7550.4044
      XXYZ   -1773.6315   XYYZ    3261.3534   YYYZ   -4435.7611
      XXZZ  -13570.7963   XYZZ    6431.1120   YYZZ   -4709.0454
      XZZZ    9482.1764   YZZZ   -4784.9335   ZZZZ   -7681.7892
 -----------------------------------------------------------------
Archival summary:
1\1\ctcp010\OPT\ProcedureUnspecified\BasisUnspecified\20214\mewes1\TueDec1115:46:172018TueDec1115:46:172018\0\\#,OPT,ProcedureUnspecified,BasisUnspecified,\\0,1\C\C,1,1.38678\H,2,1.08461,1,119.335\C,2,1.39422,1,121.46,3,-179.711,0\C,4,1.42083,2,121.942,1,179.578,0\H,5,1.08322,4,118.811,2,0.153491,0\C,5,1.36034,4,120.777,2,-179.733,0\H,7,1.08196,5,120.157,4,179.902,0\C,7,1.41747,5,120.376,4,-0.0939619,0\H,9,1.08193,7,119.413,5,-179.979,0\C,9,1.36079,7,120.486,5,0.0242959,0\H,11,1.08302,9,120.369,7,179.963,0\C,11,1.42096,9,120.829,7,0.0664698,0\C,13,1.39549,11,122.144,9,179.69,0\H,14,1.08427,13,119.178,11,0.122764,0\C,14,1.38771,13,121.495,11,-179.604,0\C,1,1.42427,2,121.936,3,0.292071,0\H,17,1.08522,1,118.15,2,-0.425198,0\C,17,1.36592,1,122.031,2,179.242,0\C,16,1.42597,14,122.394,13,179.373,0\H,20,1.08498,16,118.175,14,0.391553,0\C,20,1.36705,16,122.063,14,-179.262,0\B,19,1.54075,17,120.673,1,-179,0\H,23,1.19788,19,119.777,17,-1.05705,0\B,22,1.54216,20,121.195,16,178.98,0\H,25,1.19751,22,119.839,20,0.896821,0\C,23,1.5469,19,120.234,17,178.62,0\C,27,1.39395,23,120.753,19,-179.011,0\H,28,1.08371,27,119.335,23,-0.234731,0\C,28,1.38852,27,121.06,23,179.655,0\H,30,1.08265,28,120.162,27,-179.852,0\C,30,1.387,28,119.817,27,0.111008,0\H,32,1.08258,30,119.93,28,-179.989,0\C,32,1.38894,30,119.917,28,-0.0271027,0\H,34,1.0835,32,119.523,30,-179.975,0\C,34,1.39429,32,121.104,30,-0.085762,0\\\@

 Total job time:  2112.54s(wall), 7610.42s(cpu) 
 Tue Dec 11 15:46:17 2018

        *************************************************************
        *                                                           *
        *  Thank you very much for using Q-Chem.  Have a nice day.  *
        *                                                           *
        *************************************************************


0 sent ACK to 0 
now end server 0 ... 
