mFile = /cm/shared/apps/q-chem/intel/QCHEM_5.1.0_Trunk/bin/mpi/machines
Process 0 of 1 is on ctcp003 - thread support 0
initial socket setup ...start
initial socket setup ...done 
now start server 0 ... 
Q-Chem Developer Version!
                  Welcome to Q-Chem
     A Quantum Leap Into The Future Of Chemistry


 Q-Chem 5.1, Q-Chem, Inc., Pleasanton, CA (2018)

 Yihan Shao,  Zhengting Gan,  E. Epifanovsky,  A. T. B. Gilbert,  M. Wormit,  
 J. Kussmann,  A. W. Lange,  A. Behn,  Jia Deng,  Xintian Feng,  D. Ghosh,  
 M. Goldey,  P. R. Horn,  L. D. Jacobson,  I. Kaliman,  T. Kus,  A. Landau,  
 Jie Liu,  E. I. Proynov,  R. M. Richard,  R. P. Steele,  E. J. Sundstrom,  
 H. L. Woodcock III,  P. M. Zimmerman,  D. Zuev,  B. Albrecht,  E. Alguire,  
 S. A. Baeppler,  D. Barton,  Z. Benda,  Y. A. Bernard,  E. J. Berquist,  
 K. B. Bravaya,  H. Burton,  D. Casanova,  Chun-Min Chang,  Yunqing Chen,  
 A. Chien,  K. D. Closser,  M. P. Coons,  S. Coriani,  S. Dasgupta,  
 A. L. Dempwolff,  M. Diedenhofen,  Hainam Do,  R. G. Edgar,  Po-Tung Fang,  
 S. Faraji,  S. Fatehi,  Qingguo Feng,  K. D. Fenk,  J. Fosso-Tande,  
 Qinghui Ge,  A. Ghysels,  G. Gidofalvi,  J. Gomes,  J. Gonthier,  A. Gunina,  
 D. Hait,  M. W. D. Hanson-Heine,  P. H. P. Harbach,  A. W. Hauser,  
 J. E. Herr,  E. G. Hohenstein,  Z. C. Holden,  Kerwin Hui,  B. C. Huynh,  
 T.-C. Jagau,  Hyunjun Ji,  B. Kaduk,  K. Khistyaev,  Jaehoon Kim,  
 P. Klunzinger,  K. Koh,  D. Kosenkov,  L. Koulias,  T. Kowalczyk,  
 C. M. Krauter,  A. Kunitsa,  Ka Un Lao,  A. Laurent,  K. V. Lawler,  
 Joonho Lee,  D. Lefrancois,  S. Lehtola,  D. S. Levine,  Yi-Pei Li,  
 You-Sheng Lin,  Fenglai Liu,  E. Livshits,  A. Luenser,  P. Manohar,  
 E. Mansoor,  S. F. Manzer,  Shan-Ping Mao,  Yuezhi Mao,  N. Mardirossian,  
 A. V. Marenich,  T. Markovich,  L. A. Martinez-Martinez,  S. A. Maurer,  
 N. J. Mayhall,  S. C. McKenzie,  J.-M. Mewes,  A. F. Morrison,  
 J. W. Mullinax,  K. Nanda,  T. S. Nguyen-Beck,  R. Olivares-Amaya,  
 J. A. Parkhill,  T. M. Perrine,  F. Plasser,  P. Pokhilko,  S. Prager,  
 A. Prociuk,  E. Ramos,  D. R. Rehn,  F. Rob,  M. Schneider,  N. Sergueev,  
 S. M. Sharada,  S. Sharma,  D. W. Small,  T. Stauch,  T. Stein,  
 Yu-Chuan Su,  A. J. W. Thom,  A. Tkatchenko,  T. Tsuchimochi,  N. M. Tubman,  
 L. Vogt,  M. L. Vidal,  O. Vydrov,  M. A. Watson,  J. Wenzel,  
 M. de Wergifosse,  T. A. Wesolowski,  A. White,  J. Witte,  A. Yamada,  
 Jun Yang,  K. Yao,  S. Yeganeh,  S. R. Yost,  Zhi-Qiang You,  A. Zech,  
 Igor Ying Zhang,  Xing Zhang,  Yan Zhao,  Ying Zhu,  B. R. Brooks,  
 G. K. L. Chan,  C. J. Cramer,  M. S. Gordon,  W. J. Hehre,  A. Klamt,  
 M. W. Schmidt,  C. D. Sherrill,  D. G. Truhlar,  A. Aspuru-Guzik,  R. Baer,  
 A. T. Bell,  N. A. Besley,  Jeng-Da Chai,  A. E. DePrince, III,  
 R. A. DiStasio Jr.,  A. Dreuw,  B. D. Dunietz,  T. R. Furlani,  
 Chao-Ping Hsu,  Yousung Jung,  Jing Kong,  D. S. Lambrecht,  WanZhen Liang,  
 C. Ochsenfeld,  V. A. Rassolov,  L. V. Slipchenko,  J. E. Subotnik,  
 T. Van Voorhis,  J. M. Herbert,  A. I. Krylov,  P. M. W. Gill,  M. Head-Gordon

 Contributors to earlier versions of Q-Chem not listed above: 
 R. D. Adamson,  B. Austin,  J. Baker,  G. J. O. Beran,  K. Brandhorst,  
 S. T. Brown,  E. F. C. Byrd,  A. K. Chakraborty,  C.-L. Cheng,  
 Siu Hung Chien,  D. M. Chipman,  D. L. Crittenden,  H. Dachsel,  
 R. J. Doerksen,  A. D. Dutoi,  L. Fusti-Molnar,  W. A. Goddard III,  
 A. Golubeva-Zadorozhnaya,  S. R. Gwaltney,  G. Hawkins,  A. Heyden,  
 S. Hirata,  G. Kedziora,  F. J. Keil,  C. Kelley,  Jihan Kim,  R. A. King,  
 R. Z. Khaliullin,  P. P. Korambath,  W. Kurlancheek,  A. M. Lee,  M. S. Lee,  
 S. V. Levchenko,  Ching Yeh Lin,  D. Liotard,  R. C. Lochan,  I. Lotan,  
 P. E. Maslen,  N. Nair,  D. P. O'Neill,  D. Neuhauser,  E. Neuscamman,  
 C. M. Oana,  R. Olson,  B. Peters,  R. Peverati,  P. A. Pieniazek,  
 Y. M. Rhee,  J. Ritchie,  M. A. Rohrdanz,  E. Rosta,  N. J. Russ,  
 H. F. Schaefer III,  N. E. Schultz,  N. Shenvi,  A. C. Simmonett,  A. Sodt,  
 D. Stuck,  K. S. Thanthiriwatte,  V. Vanovschi,  Tao Wang,  A. Warshel,  
 C. F. Williams,  Q. Wu,  X. Xu,  W. Zhang

 Please cite Q-Chem as follows:
 Y. Shao et al., Mol. Phys. 113, 184-215 (2015)
 DOI: 10.1080/00268976.2014.952696

 Q-Chem 5.1.1 for Intel X86 EM64T Linux

 Parts of Q-Chem use Armadillo 8.300.2 (Tropical Shenanigans).
 http://arma.sourceforge.net/

 Q-Chem begins on Mon Dec 10 10:51:45 2018  

Host: ctcp003
0

     Scratch files written to /scratch/mewes1/141651/qchem123031//
 Parallel job on  1  processors
The previous job contains 0 fragments, simply inherited here
Symmetry turned off for PCM/SM12/SMD calculation
Input Ideriv = 2
Curr. Ideriv = -1
Max.  Ideriv = 2
Input Ideriv = 2
Curr. Ideriv = 2
Max.  Ideriv = 2

Checking the input file for inconsistencies... 	...done.

--------------------------------------------------------------
User input:
--------------------------------------------------------------
$rem
threads 4
jobtype	opt
method PBEh-3c
basis def2-mSVP
mem_static	1024
mem_total	3000
sym_ignore	true
scf_convergence	9
solvent_method	pcm
$end

$molecule
read PhenDBA.mol
$end

$solvent
dielectric	2.38 
$end

$pcm
theory iefpcm
$end

--------------------------------------------------------------
 Adding empirical dispersion correction 
 ----------------------------------------------------------------
 Doing -D3(BJ) with
 s6 =   1.00000
 s8 =   0.00000
 a1 =   0.48600
 a2 =   4.50000
 -D3 energy including 3body term =     -0.0616639831 hartrees
 ----------------------------------------------------------------
 Adding gCP correction 
 ----------------------------------------------------------------
 gCP energy =      0.0900987492 hartrees
 ----------------------------------------------------------------
             Standard Nuclear Orientation (Angstroms)
    I     Atom           X                Y                Z
 ----------------------------------------------------------------
    1      C      -6.3678600000     3.9885800000     1.8255300000
    2      C      -6.8483800000     2.7178500000     2.1418500000
    3      B      -5.8920500000     1.4667400000     2.1091100000
    4      C      -4.4351300000     1.6468000000     1.5399500000
    5      C      -3.9433800000     2.9172100000     1.2398300000
    6      B      -4.8524500000     4.1937800000     1.4335400000
    7      C      -2.6561300000     3.0593000000     0.7312700000
    8      C      -1.8321000000     1.9297000000     0.4598000000
    9      C      -2.3560200000     0.6270100000     0.7221000000
   10      C      -3.6549000000     0.5222200000     1.2927200000
   11      C      -7.2361800000     5.0771000000     1.8228200000
   12      C      -8.6234800000     4.9257700000     2.1095200000
   13      C      -9.1149700000     3.6205500000     2.4197700000
   14      C      -8.1923600000     2.5382800000     2.4456900000
   15      H      -6.8001700000     6.0223500000     1.5643300000
   16      H      -6.3001800000     0.3918300000     2.3859900000
   17      C      -0.5175400000     2.0752200000    -0.0840400000
   18      C     -10.5076500000     3.4209100000     2.6762100000
   19      C     -11.0388000000     2.1273400000     2.9597600000
   20      C       1.3379000000     3.5006200000    -0.8508000000
   21      C       2.0807900000     2.3725100000    -1.1588900000
   22      C     -13.2637400000     3.0116000000     3.1597600000
   23      C     -12.3986500000     1.9302800000     3.1947000000
   24      C     -12.9354500000     0.5553000000     3.4802300000
   25      H      -4.1049500000    -0.4211500000     1.5327200000
   26      C       0.0544200000     3.3591100000    -0.3244100000
   27      H      -2.3431500000     4.0642600000     0.5260400000
   28      C      -1.5878000000    -0.5338800000     0.3910000000
   29      C      -0.0962700000    -2.8319600000    -0.3104700000
   30      C      -1.3631800000    -2.9817000000     0.2291500000
   31      C      -2.1006000000    -1.8515600000     0.5830800000
   32      C      -1.9326100000    -4.3604100000     0.4159500000
   33      H      -3.0744800000    -2.0393700000     0.9883400000
   34      H      -8.4879400000     1.5331300000     2.6722400000
   35      H     -10.4291900000     1.2476900000     2.9994100000
   36      C      -9.5229500000     6.0381400000     2.0767800000
   37      C      -9.0701600000     7.3583400000     1.7822800000
   38      C      -9.9476800000     8.4423500000     1.7522900000
   39      C     -11.2944300000     8.2416800000     2.0076100000
   40      C      -9.4467000000     9.8268500000     1.4493900000
   41      H      -8.0433900000     7.5838300000     1.5760900000
   42      C     -10.9125200000     5.8402700000     2.3404400000
   43      C       0.2566300000     0.9173100000    -0.3985300000
   44      C      -0.2850300000    -0.3886000000    -0.1744100000
   45      C     -11.4065100000     4.5289500000     2.6349900000
   46      C       1.5591700000     1.1034900000    -0.9424900000
   47      C       0.4410800000    -1.5668100000    -0.5094100000
   48      H       0.4810000000    -3.7057800000    -0.5882800000
   49      H       1.4230500000    -1.5477200000    -0.9396800000
   50      H      -0.4626500000     4.2715500000    -0.1056200000
   51      C       1.9252400000     4.8645300000    -1.0822100000
   52      H       3.0781200000     2.4758100000    -1.5693100000
   53      H       2.2053200000     0.2898100000    -1.2079000000
   54      C     -11.7765200000     6.9711200000     2.2950300000
   55      H     -12.8312800000     6.9107300000     2.4786900000
   56      H     -11.9811900000     9.0794700000     1.9848200000
   57      C     -12.7872400000     4.2879100000     2.8867300000
   58      H     -14.3216800000     2.8648700000     3.3413100000
   59      H     -13.5292000000     5.0620200000     2.8745700000
   60      H       2.8529700000     4.9757200000    -0.4823100000
   61      H       1.2238700000     5.6740800000    -0.7865000000
   62      H       2.1687200000     4.9909200000    -2.1577300000
   63      H      -1.9857600000    -4.8762800000    -0.5664100000
   64      H      -2.9569400000    -4.3327000000     0.8454900000
   65      H      -1.2827900000    -4.9457700000     1.0990500000
   66      H     -13.4130100000     0.5405200000     4.4819500000
   67      H     -13.6894800000     0.2821900000     2.7121600000
   68      H     -12.1343400000    -0.2147700000     3.4653900000
   69      H      -9.6606400000    10.4954000000     2.3096800000
   70      H      -8.3511800000     9.8408300000     1.2645500000
   71      H      -9.9565000000    10.2217100000     0.5457000000
   72      H      -4.4455200000     5.2682100000     1.1521900000
 ----------------------------------------------------------------
 Nuclear Repulsion Energy =  3999.1265272036 hartrees
 There are      140 alpha and      140 beta electrons
 Requested basis set is def2-mSVP
 There are 354 shells and 690 basis functions

 Total QAlloc Memory Limit   3000 MB
 Mega-Array Size      1001 MB
 MEM_STATIC part      1024 MB
 Discretize the solute cavity surface with Lebedev spheres
	Using 302 Lebedev grid points for each H atom
	Using 302 Lebedev grid points for other atoms
	Atomic van der Waals radii will be scaled by 1.20
 Remove points where switching function is < 1.0e-08
 Keep 7551 surface tesserae and discard 14193 interior tesserae
 Molecular Surface Area = 584.221 Angst**2
 A cutoff of  1.0D-12 yielded  25055 shell pairs
 There are    101087 function pairs (    112233 Cartesian)
 
 -------------------------------------------------------
 OpenMP Integral Computing Module                       
 Release: version 1.0, May 2013, Q-Chem Inc. Pittsburgh 
 -------------------------------------------------------
 Integral Job Info:
 Integral job number is                      11
 Integral operator is                         1
 short-range coefficients                     0
 long-range coefficients              100000000
 Omega coefficients                           0
 if combine SR and LR in K                    0
 Integral screening is                        0
 Integral computing path is                   2
 max size of driver memory is            800000
 size of driver memory is                593474
 size of scratch memory is              1809772
 max col of scratch BK array               1296
 max len of scratch array in speh3          155
 max len of scratch index in speh4           18
 max int batch size is                      520
 min int batch size is                       52
 fixed nKL is                                52
 max L of basis functions is                  2
 order of int derivative is                   0
 number of shells is                        354
 number of basis is                         732
 number of cartesian basis is               732
 number of contracted shell pairs         25055
 number of primitive shell pairs          55022
 maxK2 (contraction) of shell pair           25
 max number of K2 of shell pair               1
 max number of CS2 of shell pair           5817
 max number of PS2 of shell pair           9770
 mem total for path MDJ                  755996
 -------------------------------------------------------
 Smallest overlap matrix eigenvalue = 1.41E-04

 Scale SEOQF with 1.000000e-02/1.000000e-02/1.000000e-01

 Standard Electronic Orientation quadrupole field applied
 Nucleus-field energy     =    -0.0000000087 hartrees
 Guess from superposition of atomic densities
 Warning:  Energy on first SCF cycle will be non-variational
 SAD guess density has 280.000000 electrons

 -----------------------------------------------------------------------
  General SCF calculation program by
  Eric Jon Sundstrom, Paul Horn, Yuezhi Mao, Dmitri Zuev, Alec White,
  David Stuck, Shaama M.S., Shane Yost, Joonho Lee, David Small,
  Daniel Levine, Susi Lehtola, Hugh Burton, Evgeny Epifanovsky
 -----------------------------------------------------------------------
 Exchange:     0.4200 Hartree-Fock + 0.5800 PBEh-3c
 Correlation:  1.0000 PBEh-3c
 Using SG-1 standard quadrature grid
 Dispersion:   Grimme D3
 using 4 threads for integral computing
 -------------------------------------------------------
 OpenMP Integral computing Module                
 Release: version 2.0, May 2017, Q-Chem Inc. Pleasanton 
 -------------------------------------------------------
 -------------------------------------------------------
 OpenMP BLAS3 based DFT computing Module                
 Release: version 1.0, May 2013, Q-Chem Inc. Pittsburgh 
 -------------------------------------------------------
 A restricted SCF calculation will be
 performed using DIIS
 SCF converges when DIIS error is below 1.0e-09
 ---------------------------------------
  Cycle       Energy         DIIS error
 ---------------------------------------
 Using non-symmetric K matrix
    1   -1601.8857492993      3.17e-02  
    2   -1588.3290835561      2.06e-03  
    3   -1588.4553463781      1.66e-03  
    4   -1588.6071621879      5.99e-04  
    5   -1588.6288712890      1.96e-04  
    6   -1588.6315120078      3.15e-05  
    7   -1588.6315753599      8.28e-06  
    8   -1588.6315793693      2.83e-06  
    9   -1588.6315799753      6.90e-07  
   10   -1588.6315800173      3.22e-07  
   11   -1588.6315800264      7.68e-08  
   12   -1588.6315800274      3.10e-08  
   13   -1588.6315800274      1.39e-08  
   14   -1588.6315800275      4.37e-09  
   15   -1588.6315800275      2.13e-09  
   16   -1588.6315800275      5.52e-10  Convergence criterion met
 ---------------------------------------
 SCF time:   CPU 5087.73s  wall 1323.00s 

************** Final PCM Free Energy Summary **************
 G_electrostatic  =      -0.01106813 hartree =      -6.94535829 kcal/mol
 G_cavitation     =       0.00000000 hartree =       0.00000000 kcal/mol
 G_dispersion     =       0.00000000 hartree =       0.00000000 kcal/mol
 G_repulsion      =       0.00000000 hartree =       0.00000000 kcal/mol
 --------------------------------------------------
 Non-electrostatic Free Energy =       0.00000000 hartree =       0.00000000 kcal/mol
 Total                         =      -0.01106813 hartree =      -6.94535829 kcal/mol
 --------------------------------------------------
 SCF Energy (H0 + V/2)                       =   -1588.63158003 
 Solute Internal Energy (H0)                 =   -1588.62051189 
 Total Free Energy (H0 + V/2 + non-elec)     =   -1588.63158003 hartree
                                             = -996881.36239694 kcal/mol
***********************************************************

 SCF   energy in the final basis set =    -1588.6315800275
 Total energy in the final basis set =    -1588.6315800275
 
 --------------------------------------------------------------
 
                    Orbital Energies (a.u.)
 --------------------------------------------------------------
 
 Alpha MOs
 -- Occupied --
-10.473 -10.473 -10.473 -10.473 -10.470 -10.470 -10.470 -10.470
-10.470 -10.469 -10.469 -10.469 -10.460 -10.460 -10.460 -10.460
-10.458 -10.458 -10.458 -10.457 -10.455 -10.455 -10.455 -10.455
-10.452 -10.452 -10.452 -10.452 -10.449 -10.449 -10.449 -10.449
-10.440 -10.440 -10.440 -10.440 -10.434 -10.434 -10.433 -10.433
 -6.954  -6.952  -0.998  -0.998  -0.957  -0.957  -0.954  -0.951
 -0.906  -0.903  -0.879  -0.878  -0.877  -0.871  -0.846  -0.846
 -0.820  -0.817  -0.817  -0.806  -0.791  -0.791  -0.749  -0.749
 -0.733  -0.719  -0.716  -0.710  -0.687  -0.679  -0.669  -0.668
 -0.665  -0.663  -0.622  -0.614  -0.607  -0.603  -0.581  -0.571
 -0.567  -0.557  -0.555  -0.538  -0.535  -0.528  -0.527  -0.514
 -0.512  -0.512  -0.504  -0.499  -0.495  -0.494  -0.487  -0.486
 -0.486  -0.485  -0.479  -0.479  -0.477  -0.467  -0.467  -0.465
 -0.463  -0.456  -0.450  -0.448  -0.445  -0.439  -0.432  -0.431
 -0.423  -0.414  -0.413  -0.413  -0.412  -0.412  -0.406  -0.405
 -0.398  -0.393  -0.389  -0.388  -0.376  -0.370  -0.360  -0.354
 -0.334  -0.334  -0.332  -0.329  -0.323  -0.321  -0.284  -0.275
 -0.265  -0.252  -0.251  -0.248
 -- Virtual --
 -0.082  -0.053  -0.028  -0.023  -0.019  -0.015   0.001   0.030
  0.049   0.051   0.060   0.063   0.078   0.117   0.140   0.140
  0.141   0.146   0.150   0.155   0.165   0.168   0.169   0.170
  0.170   0.174   0.179   0.180   0.184   0.185   0.187   0.192
  0.196   0.197   0.198   0.215   0.216   0.219   0.220   0.227
  0.231   0.233   0.233   0.233   0.237   0.237   0.242   0.243
  0.245   0.256   0.263   0.267   0.270   0.272   0.277   0.281
  0.282   0.287   0.294   0.297   0.298   0.299   0.305   0.310
  0.317   0.324   0.334   0.335   0.343   0.344   0.353   0.363
  0.368   0.372   0.373   0.385   0.391   0.393   0.397   0.399
  0.411   0.414   0.418   0.440   0.444   0.452   0.461   0.469
  0.478   0.479   0.483   0.488   0.488   0.490   0.498   0.499
  0.500   0.512   0.513   0.516   0.516   0.518   0.520   0.524
  0.526   0.527   0.530   0.531   0.535   0.536   0.548   0.551
  0.554   0.555   0.556   0.563   0.565   0.571   0.571   0.575
  0.579   0.581   0.585   0.585   0.588   0.590   0.599   0.601
  0.601   0.602   0.603   0.606   0.607   0.609   0.611   0.615
  0.615   0.617   0.618   0.626   0.627   0.631   0.631   0.640
  0.644   0.650   0.659   0.665   0.672   0.675   0.681   0.682
  0.693   0.694   0.694   0.695   0.700   0.707   0.714   0.722
  0.729   0.730   0.733   0.734   0.740   0.741   0.745   0.745
  0.754   0.756   0.757   0.761   0.768   0.770   0.771   0.775
  0.780   0.783   0.785   0.797   0.801   0.811   0.813   0.818
  0.821   0.836   0.845   0.852   0.858   0.870   0.892   0.908
  0.915   0.922   0.926   0.927   0.929   0.930   0.936   0.950
  0.954   0.960   0.960   0.995   0.998   1.002   1.003   1.005
  1.005   1.008   1.009   1.010   1.011   1.014   1.019   1.023
  1.023   1.036   1.036   1.037   1.039   1.058   1.060   1.060
  1.069   1.070   1.080   1.081   1.083   1.084   1.085   1.095
  1.095   1.103   1.104   1.122   1.123   1.125   1.128   1.133
  1.135   1.139   1.147   1.149   1.150   1.158   1.166   1.182
  1.211   1.212   1.213   1.225   1.235   1.238   1.242   1.249
  1.251   1.259   1.263   1.268   1.273   1.278   1.282   1.303
  1.307   1.308   1.308   1.311   1.324   1.338   1.344   1.351
  1.360   1.368   1.377   1.385   1.386   1.387   1.390   1.393
  1.395   1.396   1.398   1.402   1.408   1.422   1.436   1.436
  1.438   1.438   1.450   1.458   1.459   1.462   1.473   1.487
  1.497   1.505   1.508   1.509   1.515   1.522   1.524   1.525
  1.527   1.528   1.531   1.532   1.544   1.546   1.546   1.546
  1.547   1.553   1.565   1.576   1.578   1.587   1.598   1.606
  1.619   1.632   1.636   1.666   1.669   1.676   1.736   1.750
  1.755   1.758   1.759   1.761   1.770   1.773   1.801   1.803
  1.808   1.815   1.839   1.843   1.848   1.848   1.851   1.853
  1.862   1.875   1.885   1.886   1.893   1.897   1.923   1.925
  1.927   1.935   1.936   1.938   1.940   1.940   1.941   1.942
  1.952   1.959   1.960   1.962   1.973   1.974   1.977   2.017
  2.021   2.022   2.030   2.032   2.036   2.045   2.045   2.047
  2.051   2.058   2.115   2.125   2.129   2.131   2.140   2.141
  2.142   2.145   2.159   2.175   2.175   2.184   2.207   2.215
  2.215   2.219   2.220   2.220   2.223   2.229   2.247   2.271
  2.277   2.278   2.280   2.283   2.285   2.286   2.293   2.298
  2.307   2.314   2.334   2.345   2.347   2.349   2.349   2.350
  2.350   2.352   2.357   2.357   2.371   2.380   2.387   2.394
  2.400   2.403   2.403   2.413   2.413   2.423   2.427   2.428
  2.429   2.432   2.432   2.440   2.454   2.457   2.460   2.469
  2.482   2.484   2.485   2.487   2.502   2.534   2.606   2.625
  2.628   2.650   2.672   2.674   2.678   2.680   2.687   2.687
  2.688   2.688   2.695   2.699   2.705   2.706   2.723   2.738
  2.738   2.754   2.766   2.779   2.781   2.784   2.815   2.821
  2.825   2.827   2.831   2.838   2.847   2.847   2.898   2.899
  2.908   2.919   2.921   2.924   2.930   2.936   2.947   2.989
  2.995   3.001   3.008   3.019   3.035   3.102   3.148   3.150
  3.168   3.177   3.179   3.243   3.406   3.406   3.417   3.443
  3.539   3.547   3.632   3.648   9.315   9.435  13.143  13.171
 13.432  13.436  13.493  13.510  13.633  13.637  13.720  13.734
 13.749  13.750  13.818  13.819  13.873  13.873  13.996  13.997
 14.008  14.010  14.028  14.031  14.121  14.121  14.141  14.143
 14.150  14.158  14.206  14.207  14.208  14.224  14.443  14.462
 14.497  14.504  14.508  14.508  14.546  14.548
 --------------------------------------------------------------
 
          Ground-State Mulliken Net Atomic Charges

     Atom                 Charge (a.u.)
  ----------------------------------------
      1 C                    -0.084200
      2 C                    -0.081332
      3 B                     0.231314
      4 C                    -0.081467
      5 C                    -0.084596
      6 B                     0.233751
      7 C                    -0.404025
      8 C                     0.094986
      9 C                     0.096270
     10 C                    -0.404124
     11 C                    -0.404602
     12 C                     0.095413
     13 C                     0.097360
     14 C                    -0.404418
     15 H                     0.229137
     16 H                     0.038744
     17 C                     0.105699
     18 C                     0.106120
     19 C                    -0.383055
     20 C                     0.134861
     21 C                    -0.257519
     22 C                    -0.258104
     23 C                     0.135433
     24 C                    -0.707325
     25 H                     0.229154
     26 C                    -0.382481
     27 H                     0.229282
     28 C                     0.105571
     29 C                    -0.257245
     30 C                     0.134534
     31 C                    -0.383083
     32 C                    -0.707483
     33 H                     0.222775
     34 H                     0.228911
     35 H                     0.222731
     36 C                     0.105149
     37 C                    -0.383052
     38 C                     0.135052
     39 C                    -0.257602
     40 C                    -0.707591
     41 H                     0.223047
     42 C                     0.072160
     43 C                     0.072797
     44 C                     0.072073
     45 C                     0.072212
     46 C                    -0.325312
     47 C                    -0.324844
     48 H                     0.233136
     49 H                     0.225950
     50 H                     0.222880
     51 C                    -0.707493
     52 H                     0.233098
     53 H                     0.226051
     54 C                    -0.325129
     55 H                     0.226090
     56 H                     0.233121
     57 C                    -0.325463
     58 H                     0.233205
     59 H                     0.225970
     60 H                     0.236390
     61 H                     0.231674
     62 H                     0.236457
     63 H                     0.236347
     64 H                     0.231732
     65 H                     0.236504
     66 H                     0.236617
     67 H                     0.236346
     68 H                     0.231591
     69 H                     0.236438
     70 H                     0.231729
     71 H                     0.236441
     72 H                     0.039243
  ----------------------------------------
  Sum of atomic charges =    -0.000000

 -----------------------------------------------------------------
                    Cartesian Multipole Moments
 -----------------------------------------------------------------
    Charge (ESU x 10^10)
                -0.0000
    Dipole Moment (Debye)
         X      -0.2364      Y      -0.1031      Z      -0.7662
       Tot       0.8084
    Quadrupole Moments (Debye-Ang)
        XX    -181.4841     XY      -8.2572     YY    -193.4439
        XZ     -16.7574     YZ      -4.9283     ZZ    -254.1906
    Octopole Moments (Debye-Ang^2)
       XXX    2985.5895    XXY    -395.6556    XYY    1020.2309
       YYY   -1599.6929    XXZ     -74.5100    XYZ      -7.1241
       YYZ    -291.1280    XZZ    1385.1621    YZZ    -721.4704
       ZZZ    -959.0594
    Hexadecapole Moments (Debye-Ang^3)
      XXXX  -62172.9450   XXXY   12208.8830   XXYY  -13650.9859
      XYYY   12967.0486   YYYY  -21636.8833   XXXZ    5416.6675
      XXYZ    -695.5900   XYYZ    2764.2030   YYYZ   -3150.3492
      XXZZ  -14163.0629   XYZZ    6068.8148   YYZZ   -5469.9333
      XZZZ    9975.7902   YZZZ   -3867.0100   ZZZZ   -5390.1358
 -----------------------------------------------------------------
 Calculating analytic gradient of the SCF energy
  4.126487037346040E-004  4.126245487171105E-004
  4.126402085959472E-004  4.126330660508006E-004
  4.126279436522682E-004  4.126452317665763E-004
  4.126420996126214E-004  4.126311557840722E-004
  4.126228221322090E-004  4.126504498823058E-004
  4.126309130719862E-004  4.126422622909781E-004
  4.126444676426900E-004  4.126287953490903E-004
  4.126643009404357E-004  4.126089757981538E-004
  4.126186395485025E-004  4.126545531004937E-004
  4.126210157002910E-004  4.126522275960298E-004
  4.126321954089550E-004  4.126410818486197E-004
  4.126355168207538E-004  4.126376658662845E-004
  4.126289040933021E-004  4.126443432333675E-004
  4.126491322265996E-004  4.126241410351491E-004
  4.126329910433138E-004  4.126401908576200E-004
  4.126230037050930E-004  4.126502628015515E-004
  4.126063651384824E-004  4.126669136942602E-004
  4.126357762137026E-004  4.126374111090231E-004
  4.126229692610900E-004  4.126502939577427E-004
  4.126180729703498E-004  4.126552019163482E-004
  4.126430565299486E-004  4.126301333060223E-004
  4.126327615409041E-004  4.126405034391682E-004
  4.126473847606559E-004  4.126258860795942E-004
  4.126378366930079E-004  4.126353604253254E-004
  4.126259846074052E-004  4.126472755091487E-004
  4.126331373253474E-004  4.126401360280369E-004
  4.126403075541300E-004  4.126328920243671E-004
  4.126389685754298E-004  4.126342859775001E-004
  4.126599961928148E-004  4.126132861523060E-004
  4.126308230207025E-004  4.126423690550205E-004
  4.126341147847323E-004  4.126391555655401E-004
  4.126131718962932E-004  4.126601063922961E-004
  4.126406645631208E-004  4.126325147053590E-004
  4.126469982413797E-004  4.126262808442417E-004
  4.126409912298945E-004  4.126322784524940E-004
  4.126343065339364E-004  4.126388775037179E-004
  4.126418885681455E-004  4.126313929965272E-004
  4.126260303609456E-004  4.126472367880471E-004
  4.126372242611901E-004  4.126359595662987E-004
  4.126493701373987E-004  4.126239066065181E-004
  4.126552408640043E-004  4.126180310554002E-004
  4.126286508813452E-004  4.126445286474771E-004
  4.126358430364694E-004  4.126374459159648E-004
  4.126302426265529E-004  4.126430416437124E-004
  4.126399986108886E-004  4.126332364369726E-004
  4.126397626543175E-004  4.126335328329824E-004
  4.126465627860697E-004  4.126267320738334E-004
  4.126322965753557E-004  4.126409557665244E-004
  4.126325791751541E-004  4.126406814125760E-004
  4.126292655276481E-004  4.126440174818985E-004
  4.126393908629755E-004  4.126338131252912E-004
  4.126404703959091E-004  4.126328037982798E-004
  4.126447046389869E-004  4.126285762627932E-004
  4.126349817325706E-004  4.126382107689140E-004
  4.126233789183820E-004  4.126498948833785E-004
  4.126340014185275E-004  4.126392726054871E-004
  4.126397697715589E-004  4.126334282700639E-004
  4.126242508189257E-004  4.126490010360462E-004
  4.126406997163667E-004  4.126325797619006E-004
  4.126427148652681E-004  4.126305087855633E-004
  4.126411277911354E-004  4.126321390366083E-004
  4.126420661166761E-004  4.126311979869284E-004
  4.126356647108204E-004  4.126375590070595E-004
  4.126327553845256E-004  4.126405222545163E-004
  4.126308755067453E-004  4.126423868903388E-004
  4.126388942010979E-004  4.126343202866077E-004
  4.126504641552326E-004  4.126227956429649E-004
  4.126338355505748E-004  4.126394424869027E-004
  4.126361297407001E-004  4.126370869167726E-004
  4.126451242489128E-004  4.126281290639970E-004
  4.126496901602891E-004  4.126235938629521E-004
  4.126358993705274E-004  4.126373870326097E-004
  4.126370620118026E-004  4.126362196489474E-004
  4.126436918205781E-004  4.126295953231862E-004
  4.126343462003143E-004  4.126388941764482E-004
  4.126496677163066E-004  4.126235938873456E-004
  4.126381183881628E-004  4.126351572762340E-004
  4.126319502243270E-004  4.126412588876197E-004
  4.126341884395531E-004  4.126391030300238E-004
  4.126310617352457E-004  4.126422159507357E-004
  4.126411961405449E-004  4.126320429067177E-004
  4.126395188128554E-004  4.126337384362362E-004
  4.126451900674957E-004  4.126280955668992E-004
  4.126350562912546E-004  4.126381486737672E-004
  4.126357088888779E-004  4.126375564524069E-004
  4.126294501841256E-004  4.126438143687117E-004
  4.126378787384533E-004  4.126353460116179E-004
  4.126266231676369E-004  4.126466373335872E-004
  4.126442914038779E-004  4.126289769114359E-004
  4.126426725275719E-004  4.126305532437612E-004
  4.126435843476238E-004  4.126296745345606E-004
  4.126248810740293E-004  4.126483953192443E-004
  4.126338965333317E-004  4.126393144057348E-004
  4.126412791280300E-004  4.126319980246460E-004
  4.126514682789676E-004  4.126217947812676E-004
  4.126390014342507E-004  4.126342821687796E-004
  4.126433086985654E-004  4.126299604382093E-004
  4.126425078725082E-004  4.126307847664622E-004
  4.126338467234625E-004  4.126393939891322E-004
  4.126404157828197E-004  4.126328811350360E-004
  4.126422841268086E-004  4.126309923569097E-004
  4.126342879471206E-004  4.126389470546178E-004
  4.126357095312962E-004  4.126375701602533E-004
  4.126456306279467E-004  4.126276585630017E-004
  4.126347713915033E-004  4.126384620738939E-004
  4.126349104235455E-004  4.126383609340961E-004
  4.126282983360056E-004  4.126449842878678E-004
  4.126393460480664E-004  4.126338474337493E-004
  4.126281471809286E-004  4.126451258705906E-004
  4.126477499677791E-004  4.126255241817092E-004
  4.126372286137980E-004  4.126359704666131E-004
  4.126492383618852E-004  4.126240306719632E-004
  4.126297801976279E-004  4.126434873083717E-004
  4.126367102372342E-004  4.126365081437457E-004
  4.126373686029317E-004  4.126359083005972E-004
  4.126436967441710E-004  4.126295656077774E-004
  4.126361479901623E-004  4.126370674178131E-004
  4.126342318427441E-004  4.126390403288422E-004
  4.126216563521295E-004  4.126516090335742E-004
  4.126408147750473E-004  4.126324715050421E-004
  4.126301067325338E-004  4.126431715963576E-004
  4.126305649462009E-004  4.126427279837039E-004
  4.126376742136056E-004  4.126355582700496E-004
  4.126453686542826E-004  4.126279040719862E-004
  4.126472791455539E-004  4.126259973857306E-004
  4.126343666304226E-004  4.126388366111001E-004
  4.126383148528436E-004  4.126349506613158E-004
  4.126504906776647E-004  4.126227827677467E-004
  4.126367843593468E-004  4.126364292645383E-004
  4.126278648244290E-004  4.126453951891203E-004
  4.126265491592995E-004  4.126467300224717E-004
  4.126408307696528E-004  4.126323827227375E-004
  4.126365535056067E-004  4.126367242280607E-004
  4.126228903556431E-004  4.126503812127787E-004
  4.126396051946347E-004  4.126335980078958E-004
  4.126219006658662E-004  4.126513536793516E-004
  4.126368352735824E-004  4.126364614283200E-004
  4.126435072622169E-004  4.126297112595469E-004
  4.126272928517462E-004  4.126459786524549E-004
  4.126485737097823E-004  4.126247016822841E-004
  4.126416319358592E-004  4.126315905431819E-004
  4.126301333022394E-004  4.126431318804476E-004
  4.126391260568823E-004  4.126341439363828E-004
  4.126409473568191E-004  4.126323003799429E-004
  4.126344158313457E-004  4.126388637059866E-004
  4.126355648654016E-004  4.126377163501515E-004
  4.126390334979537E-004  4.126342198673666E-004
  4.126360617081711E-004  4.126372133346257E-004
  4.126277965227377E-004  4.126454940735481E-004
  4.126345904615414E-004  4.126386478102113E-004
  4.126288768605543E-004  4.126443814796308E-004
  4.126237433788331E-004  4.126495409411384E-004
  4.126412710002056E-004  4.126320101488884E-004
  4.126303601362830E-004  4.126429115933208E-004
  4.126407474276083E-004  4.126325158259780E-004
  4.126398071288763E-004  4.126334409130002E-004
  4.126357351041510E-004  4.126375365326570E-004
  4.126395233480551E-004  4.126337685240550E-004
  4.126373796680515E-004  4.126358709641871E-004
  4.126482938619522E-004  4.126249876632255E-004
  4.126253264740544E-004  4.126479483905886E-004
  4.126373209499139E-004  4.126358921618543E-004
  4.126395287302621E-004  4.126337569405145E-004
  4.126378881080510E-004  4.126353930326631E-004
  4.126364823826532E-004  4.126367649736595E-004
  4.126445275639069E-004  4.126287441685744E-004
  4.126345276980014E-004  4.126387406789436E-004
  4.126362046333826E-004  4.126370383309202E-004
  4.126525165046705E-004  4.126207472501207E-004
  4.126374210418202E-004  4.126358729169805E-004
  4.126346791362193E-004  4.126385325054419E-004
  4.126439393824374E-004  4.126293382567678E-004
  4.126330497690533E-004  4.126402130275236E-004
  4.126369784161006E-004  4.126362640024900E-004
  4.126381478026790E-004  4.126351290227114E-004
  4.126339304971288E-004  4.126393596115611E-004
  4.126377404795709E-004  4.126355066337684E-004
  4.126400012686639E-004  4.126332611011807E-004
  4.126409024839422E-004  4.126323795280430E-004
  4.126233580764879E-004  4.126499260486986E-004
  4.126352747539812E-004  4.126380000085695E-004
  4.126307944164008E-004  4.126425058872171E-004
  4.126365340837906E-004  4.126367296600876E-004
  4.126486942522246E-004  4.126245715874508E-004
  4.126411924424446E-004  4.126320904653128E-004
  4.126428659026598E-004  4.126304143154658E-004
  4.126431778976539E-004  4.126300996247387E-004
  4.126263567371633E-004  4.126469127436949E-004
  4.126447968687666E-004  4.126284864312361E-004
  4.126403540714453E-004  4.126329263549866E-004
  4.126414322702551E-004  4.126318609728562E-004
  4.126357770741490E-004  4.126374879003731E-004
  4.126341346261809E-004  4.126391411657162E-004
  4.126283647477934E-004  4.126449021658475E-004
  4.126254577203786E-004  4.126478266012500E-004
  4.126272687933395E-004  4.126459913030158E-004
  4.126305097666120E-004  4.126427723003931E-004
  4.126277595917563E-004  4.126455261652734E-004
  4.126294834595294E-004  4.126437762839986E-004
  4.126333323972400E-004  4.126399502340693E-004
  4.126488859854996E-004  4.126244010269561E-004
  4.126374572771336E-004  4.126358187968380E-004
  4.126427476086967E-004  4.126305524653821E-004
  4.126358086891492E-004  4.126374536386285E-004
  4.126320523893400E-004  4.126412197587818E-004
  4.126436473707590E-004  4.126296213963326E-004
  4.126250424350425E-004  4.126482454311840E-004
  4.126333749913622E-004  4.126399072587077E-004
  4.126317412673698E-004  4.126415525985459E-004
  4.126376950950176E-004  4.126355675965220E-004
  4.126353087375004E-004  4.126379643876103E-004
  4.126475925624035E-004  4.126256779902600E-004
  4.126457786825809E-004  4.126275062937531E-004
  4.126332384889405E-004  4.126400586069316E-004
  4.126268270543847E-004  4.126464684760649E-004
  4.126401216377275E-004  4.126331282287751E-004
 Gradient of SCF Energy
            1           2           3           4           5           6
    1  -0.0182944   0.0037017  -0.0059522   0.0159051  -0.0067193   0.0121057
    2  -0.0284994   0.0313809  -0.0217034   0.0267623  -0.0333058   0.0250424
    3   0.0054657  -0.0090475   0.0147993  -0.0111467   0.0015721   0.0038378
            7           8           9          10          11          12
    1   0.0080636   0.0208645   0.0124722  -0.0070659   0.0074581  -0.0158965
    2   0.0197353   0.0001344  -0.0172436  -0.0193390   0.0203539   0.0160027
    3  -0.0031479  -0.0081425  -0.0052837   0.0056437  -0.0038641   0.0003381
           13          14          15          16          17          18
    1  -0.0220644  -0.0064765   0.0026036   0.0020931  -0.0254174   0.0259716
    2  -0.0020146  -0.0191526  -0.0077354   0.0068148  -0.0070093   0.0078303
    3   0.0041555   0.0060385   0.0001476  -0.0041585   0.0102678  -0.0054194
           19          20          21          22          23          24
    1   0.0187424   0.0187357   0.0032185  -0.0019898  -0.0207012   0.0015579
    2  -0.0186339  -0.0135865   0.0227288  -0.0231576   0.0125995   0.0087802
    3   0.0000563  -0.0076438  -0.0013226   0.0039648   0.0011522  -0.0011156
           25          26          27          28          29          30
    1  -0.0023812  -0.0167961  -0.0069213  -0.0115006  -0.0139783   0.0219251
    2   0.0079609   0.0192052  -0.0035987   0.0247024  -0.0178422  -0.0063784
    3  -0.0002351   0.0063601   0.0025013   0.0052758   0.0054672  -0.0097570
           31          32          33          34          35          36
    1  -0.0245031   0.0051700   0.0061586   0.0072593  -0.0082104   0.0140904
    2   0.0006516   0.0074895  -0.0046111   0.0041479   0.0016583  -0.0239122
    3   0.0109425  -0.0010124  -0.0026983  -0.0027298   0.0009959   0.0016136
           37          38          39          40          41          42
    1   0.0262687  -0.0237351   0.0133881  -0.0044554  -0.0068657  -0.0055574
    2   0.0001431   0.0054118   0.0180500  -0.0073890   0.0045002  -0.0230272
    3  -0.0048186   0.0032372  -0.0051377   0.0016801   0.0003771   0.0047654
           43          44          45          46          47          48
    1  -0.0113764   0.0066287   0.0113258   0.0054576   0.0174045   0.0007907
    2  -0.0208826   0.0232988   0.0209144  -0.0194603   0.0087939  -0.0018896
    3   0.0051415  -0.0028665  -0.0052608  -0.0025349  -0.0066935  -0.0004836
           49          50          51          52          53          54
    1  -0.0038567   0.0074718  -0.0019948   0.0019107   0.0024927  -0.0176568
    2  -0.0071114  -0.0017218  -0.0086496   0.0006480   0.0079621  -0.0091876
    3   0.0015202  -0.0030159   0.0003472  -0.0007318  -0.0010509   0.0042751
           55          56          57          58          59          60
    1   0.0036802  -0.0010548  -0.0067296  -0.0018782  -0.0020464   0.0106038
    2   0.0073711   0.0019136   0.0195385  -0.0006511  -0.0077743  -0.0014820
    3  -0.0018083  -0.0000875  -0.0017920   0.0003432   0.0014948   0.0101179
           61          62          63          64          65          66
    1  -0.0104630   0.0006930  -0.0006561  -0.0149769   0.0097502  -0.0039432
    2   0.0114112  -0.0011664  -0.0033138   0.0009956  -0.0040908   0.0029858
    3   0.0045870  -0.0144411  -0.0145433   0.0059100   0.0097663   0.0135193
           67          68          69          70          71          72
    1  -0.0080263   0.0120786  -0.0030336   0.0159536  -0.0072954  -0.0035252
    2  -0.0009687  -0.0107705   0.0054164  -0.0003755   0.0015936  -0.0072933
    3  -0.0122911  -0.0005046   0.0132670  -0.0025184  -0.0125182  -0.0011217
 Max gradient component =       3.331E-02
 RMS gradient           =       1.148E-02
 Computing fast IEFPCM-SWIG gradient.
 Updating gradient with PCM contributions...
 -- total gradient after adding PCM contribution --
---------------------------------------------------
  Atom         X              Y              Z     
---------------------------------------------------
   1      -0.017389      -0.028461       0.005302
   2       0.004360       0.030730      -0.009027
   3      -0.005830      -0.021431       0.014880
   4       0.015088       0.026773      -0.010719
   5      -0.007296      -0.032609       0.001756
   6       0.012043       0.024791       0.004044
   7       0.009466       0.020926      -0.003664
   8       0.022285       0.000302      -0.008621
   9       0.013290      -0.018485      -0.005593
  10      -0.006971      -0.021228       0.005600
  11       0.007233       0.022220      -0.004114
  12      -0.016823       0.017203       0.000389
  13      -0.023542      -0.002233       0.004494
  14      -0.007861      -0.020342       0.006468
  15       0.002762      -0.008129       0.000170
  16       0.001666       0.005710      -0.003911
  17      -0.026735      -0.007074       0.010818
  18       0.027409       0.007937      -0.005681
  19       0.019580      -0.020858       0.000299
  20       0.019057      -0.013328      -0.007766
  21       0.005829       0.023037      -0.002400
  22      -0.004775      -0.023559       0.004444
  23      -0.021039       0.012295       0.001246
  24       0.000762       0.006704      -0.000706
  25      -0.002481       0.008390      -0.000177
  26      -0.017471       0.021516       0.006575
  27      -0.007260      -0.003761       0.002623
  28      -0.012355       0.025824       0.005630
  29      -0.012486      -0.020161       0.004735
  30       0.021947      -0.006793      -0.009774
  31      -0.026492      -0.000386       0.011827
  32       0.004283       0.005406      -0.000765
  33       0.007092      -0.004098      -0.003102
  34       0.007633       0.004360      -0.002824
  35      -0.008593       0.002657       0.000894
  36       0.015062      -0.024978       0.001614
  37       0.028383       0.001231      -0.005378
  38      -0.023776       0.005856       0.003177
  39       0.011598       0.020264      -0.005193
  40      -0.003682      -0.005317       0.001212
  41      -0.007845       0.003949       0.000641
  42      -0.006018      -0.024040       0.005019
  43      -0.011740      -0.021927       0.005315
  44       0.007129       0.024274      -0.003062
  45       0.011642       0.021985      -0.005475
  46       0.007554      -0.021118      -0.003444
  47       0.019929       0.008207      -0.007773
  48      -0.000305      -0.000280       0.000051
  49      -0.005360      -0.006787       0.002206
  50       0.007735      -0.002849      -0.003131
  51      -0.001123      -0.006584       0.000007
  52       0.000052       0.000484       0.000035
  53       0.001237       0.008983      -0.000552
  54      -0.020418      -0.008710       0.004635
  55       0.005377       0.007123      -0.002018
  56       0.000248       0.000386      -0.000052
  57      -0.009079       0.021085      -0.001669
  58       0.000090      -0.000414       0.000014
  59      -0.000695      -0.008732       0.001418
  60       0.009252      -0.001706       0.009401
  61      -0.009485       0.010135       0.004172
  62       0.000225      -0.001414      -0.012972
  63      -0.000625      -0.002467      -0.013239
  64      -0.013430       0.001032       0.005271
  65       0.008860      -0.003148       0.008906
  66      -0.003169       0.003096       0.012187
  67      -0.006893      -0.000524      -0.011328
  68       0.010981      -0.009542      -0.000510
  69      -0.002704       0.004381       0.012180
  70       0.014302      -0.000490      -0.002232
  71      -0.006574       0.000907      -0.011322
  72      -0.003122      -0.006193      -0.001457
---------------------------------------------------
 Number of fixed atoms: 0
 Gradient time:  CPU 541.18 s  wall 205.55 s
 Geometry Optimization Parameters
   NAtoms,    NIC,     NZ,  NCons,   NDum,   NFix, NCnnct, MaxDiis
       72     570       0       0       0       0       0       0


** GEOMETRY OPTIMIZATION IN DELOCALIZED INTERNAL COORDINATES **
   Searching for a Minimum

   Optimization Cycle:   1

                       Coordinates (Angstroms)
     ATOM                X               Y               Z
      1  C        -6.3678600000    3.9885800000    1.8255300000
      2  C        -6.8483800000    2.7178500000    2.1418500000
      3  B        -5.8920500000    1.4667400000    2.1091100000
      4  C        -4.4351300000    1.6468000000    1.5399500000
      5  C        -3.9433800000    2.9172100000    1.2398300000
      6  B        -4.8524500000    4.1937800000    1.4335400000
      7  C        -2.6561300000    3.0593000000    0.7312700000
      8  C        -1.8321000000    1.9297000000    0.4598000000
      9  C        -2.3560200000    0.6270100000    0.7221000000
     10  C        -3.6549000000    0.5222200000    1.2927200000
     11  C        -7.2361800000    5.0771000000    1.8228200000
     12  C        -8.6234800000    4.9257700000    2.1095200000
     13  C        -9.1149700000    3.6205500000    2.4197700000
     14  C        -8.1923600000    2.5382800000    2.4456900000
     15  H        -6.8001700000    6.0223500000    1.5643300000
     16  H        -6.3001800000    0.3918300000    2.3859900000
     17  C        -0.5175400000    2.0752200000   -0.0840400000
     18  C       -10.5076500000    3.4209100000    2.6762100000
     19  C       -11.0388000000    2.1273400000    2.9597600000
     20  C         1.3379000000    3.5006200000   -0.8508000000
     21  C         2.0807900000    2.3725100000   -1.1588900000
     22  C       -13.2637400000    3.0116000000    3.1597600000
     23  C       -12.3986500000    1.9302800000    3.1947000000
     24  C       -12.9354500000    0.5553000000    3.4802300000
     25  H        -4.1049500000   -0.4211500000    1.5327200000
     26  C         0.0544200000    3.3591100000   -0.3244100000
     27  H        -2.3431500000    4.0642600000    0.5260400000
     28  C        -1.5878000000   -0.5338800000    0.3910000000
     29  C        -0.0962700000   -2.8319600000   -0.3104700000
     30  C        -1.3631800000   -2.9817000000    0.2291500000
     31  C        -2.1006000000   -1.8515600000    0.5830800000
     32  C        -1.9326100000   -4.3604100000    0.4159500000
     33  H        -3.0744800000   -2.0393700000    0.9883400000
     34  H        -8.4879400000    1.5331300000    2.6722400000
     35  H       -10.4291900000    1.2476900000    2.9994100000
     36  C        -9.5229500000    6.0381400000    2.0767800000
     37  C        -9.0701600000    7.3583400000    1.7822800000
     38  C        -9.9476800000    8.4423500000    1.7522900000
     39  C       -11.2944300000    8.2416800000    2.0076100000
     40  C        -9.4467000000    9.8268500000    1.4493900000
     41  H        -8.0433900000    7.5838300000    1.5760900000
     42  C       -10.9125200000    5.8402700000    2.3404400000
     43  C         0.2566300000    0.9173100000   -0.3985300000
     44  C        -0.2850300000   -0.3886000000   -0.1744100000
     45  C       -11.4065100000    4.5289500000    2.6349900000
     46  C         1.5591700000    1.1034900000   -0.9424900000
     47  C         0.4410800000   -1.5668100000   -0.5094100000
     48  H         0.4810000000   -3.7057800000   -0.5882800000
     49  H         1.4230500000   -1.5477200000   -0.9396800000
     50  H        -0.4626500000    4.2715500000   -0.1056200000
     51  C         1.9252400000    4.8645300000   -1.0822100000
     52  H         3.0781200000    2.4758100000   -1.5693100000
     53  H         2.2053200000    0.2898100000   -1.2079000000
     54  C       -11.7765200000    6.9711200000    2.2950300000
     55  H       -12.8312800000    6.9107300000    2.4786900000
     56  H       -11.9811900000    9.0794700000    1.9848200000
     57  C       -12.7872400000    4.2879100000    2.8867300000
     58  H       -14.3216800000    2.8648700000    3.3413100000
     59  H       -13.5292000000    5.0620200000    2.8745700000
     60  H         2.8529700000    4.9757200000   -0.4823100000
     61  H         1.2238700000    5.6740800000   -0.7865000000
     62  H         2.1687200000    4.9909200000   -2.1577300000
     63  H        -1.9857600000   -4.8762800000   -0.5664100000
     64  H        -2.9569400000   -4.3327000000    0.8454900000
     65  H        -1.2827900000   -4.9457700000    1.0990500000
     66  H       -13.4130100000    0.5405200000    4.4819500000
     67  H       -13.6894800000    0.2821900000    2.7121600000
     68  H       -12.1343400000   -0.2147700000    3.4653900000
     69  H        -9.6606400000   10.4954000000    2.3096800000
     70  H        -8.3511800000    9.8408300000    1.2645500000
     71  H        -9.9565000000   10.2217100000    0.5457000000
     72  H        -4.4455200000    5.2682100000    1.1521900000
   Point Group: c1    Number of degrees of freedom:   210


   Energy is  -1588.631580027


 Attempting to Generate Delocalized Internal Coordinates

210 Hessian modes will be used to form the next step
  Hessian Eigenvalues:
     0.008546    0.008727    0.008739    0.008757    0.008792    0.008992
     0.009113    0.015497    0.016400    0.017451    0.017455    0.017482
     0.017491    0.018241    0.018473    0.018508    0.018564    0.018580
     0.018666    0.018693    0.018714    0.018733    0.018747    0.018764
     0.018801    0.018832    0.018875    0.018903    0.018920    0.018964
     0.019000    0.019024    0.019037    0.019950    0.020391    0.020797
     0.020827    0.020868    0.020904    0.021263    0.021274    0.021301
     0.021303    0.021306    0.021318    0.021470    0.021472    0.021493
     0.021512    0.021579    0.021592    0.021830    0.021931    0.023634
     0.023646    0.023652    0.023665    0.024091    0.024104    0.024109
     0.024132    0.072894    0.072969    0.072972    0.073028    0.075169
     0.075242    0.075262    0.075270    0.158220    0.158585    0.159886
     0.159924    0.159930    0.159936    0.159974    0.159984    0.159990
     0.159995    0.159996    0.159996    0.159998    0.159998    0.159998
     0.159999    0.160000    0.160000    0.160000    0.160000    0.160000
     0.160000    0.160000    0.160000    0.160000    0.160000    0.160000
     0.160000    0.160000    0.160000    0.224080    0.224083    0.224334
     0.224337    0.228809    0.231679    0.234128    0.235101    0.235115
     0.235227    0.235236    0.235770    0.239371    0.240672    0.245952
     0.245964    0.246164    0.246187    0.249453    0.249802    0.249860
     0.249886    0.249922    0.249930    0.249974    0.249983    0.249989
     0.249993    0.249998    0.249998    0.249999    0.252364    0.253004
     0.255502    0.256016    0.259602    0.259762    0.320218    0.320310
     0.320453    0.320729    0.324619    0.324747    0.324847    0.324847
     0.325107    0.325532    0.325607    0.325653    0.325826    0.326048
     0.326179    0.326268    0.355704    0.355743    0.355851    0.355882
     0.361529    0.363521    0.364316    0.364321    0.369064    0.369255
     0.369293    0.369297    0.369368    0.369369    0.369447    0.369881
     0.370506    0.370608    0.370702    0.371076    0.388485    0.390934
     0.392496    0.392912    0.393083    0.393448    0.395270    0.395578
     0.401472    0.402800    0.403805    0.403861    0.408624    0.408831
     0.415015    0.415073    0.415343    0.415633    0.416417    0.417026
     0.429199    0.451394    0.452862    0.452982    0.453728    0.454127
     0.456498    0.456621    0.460706    0.460984    0.461484    0.461738
     0.468251    0.469840    0.475917    0.475942    0.476087    0.476206

 Minimum Search - Taking Simple RFO Step
 Searching for Lamda that Minimizes Along All modes
 Value Taken    Lamda =  -0.03835686
 Calculated Step too Large.  Step scaled by  0.843999
 Step Taken.  Stepsize is  0.300000

                             Maximum     Tolerance    Cnvgd?
         Gradient           0.047059      0.000300      NO
         Displacement       0.143670      0.001200      NO
         Energy change     *********      0.000001      NO


 New Cartesian Coordinates Obtained by Inverse Iteration

 Displacement from previous Coordinates is:  0.863810
 Adding empirical dispersion correction 
 ----------------------------------------------------------------
 Doing -D3(BJ) with
 s6 =   1.00000
 s8 =   0.00000
 a1 =   0.48600
 a2 =   4.50000
 -D3 energy including 3body term =     -0.0619694054 hartrees
 ----------------------------------------------------------------
 Adding gCP correction 
 ----------------------------------------------------------------
 gCP energy =      0.0913213837 hartrees
 ----------------------------------------------------------------
             Standard Nuclear Orientation (Angstroms)
    I     Atom           X                Y                Z
 ----------------------------------------------------------------
    1      C      -6.3617940764     3.9860192474     1.7689041948
    2      C      -6.8482203871     2.7009053559     2.0824013717
    3      B      -5.9108752518     1.4652085386     2.0257365036
    4      C      -4.4668304087     1.6451033710     1.4872235638
    5      C      -3.9685881986     2.9294705771     1.1898972598
    6      B      -4.8727620871     4.1835438440     1.3649912679
    7      C      -2.6806562897     3.0553237509     0.6984703011
    8      C      -1.8608465467     1.9358348010     0.4431605687
    9      C      -2.3808528865     0.6459154212     0.7000960731
   10      C      -3.6739324744     0.5378736154     1.2477265279
   11      C      -7.2352435697     5.0602200478     1.7876230504
   12      C      -8.6063033247     4.9095057618     2.0846210721
   13      C      -9.0933322692     3.6159992258     2.3871561685
   14      C      -8.1853712371     2.5393502803     2.3944380261
   15      H      -6.8277775820     6.0279687030     1.5382172052
   16      H      -6.3180408755     0.3832561479     2.3190435695
   17      C      -0.5274286799     2.0814395094    -0.0874945932
   18      C     -10.4946625796     3.4140578976     2.6630895378
   19      C     -11.0101739056     2.1327130005     2.9421552087
   20      C       1.3070383605     3.5101171337    -0.8263387653
   21      C       2.0541760858     2.3692059711    -1.1192281875
   22      C     -13.2145396931     3.0130031924     3.1744664272
   23      C     -12.3501577714     1.9187994725     3.1946002631
   24      C     -12.8796145616     0.5406975470     3.4815014564
   25      H      -4.0974367277    -0.4279850954     1.4777154987
   26      C       0.0332210558     3.3518624693    -0.3197599114
   27      H      -2.3328372110     4.0543977546     0.4854511410
   28      C      -1.6024460449    -0.5264011137     0.3838170080
   29      C      -0.1185750688    -2.8019631594    -0.2738731633
   30      C      -1.3997535497    -2.9554603268     0.2555782510
   31      C      -2.1183170778    -1.8226491540     0.5794697248
   32      C      -1.9791047355    -4.3288570829     0.4546045101
   33      H      -3.1088056598    -1.9726955949     0.9802034290
   34      H      -8.5172005764     1.5386082639     2.6255245775
   35      H     -10.3673665093     1.2667438763     2.9616438558
   36      C      -9.5120356624     6.0333716631     2.0709629367
   37      C      -9.0601204143     7.3360475426     1.7840162429
   38      C      -9.9131105393     8.4211248312     1.7648008398
   39      C     -11.2649812825     8.2119131748     2.0360783147
   40      C      -9.4075067213     9.8039984332     1.4620967530
   41      H      -8.0204331130     7.5283464873     1.5702816534
   42      C     -10.8841410162     5.8350324240     2.3460764706
   43      C       0.2407405641     0.9327570899    -0.3836496996
   44      C      -0.3071023254    -0.3834940441    -0.1591624090
   45      C     -11.3812389701     4.5126995621     2.6401970921
   46      C       1.5339721487     1.1133592058    -0.9040542058
   47      C       0.4140836806    -1.5490098746    -0.4746682935
   48      H       0.4665543811    -3.6746868313    -0.5381332674
   49      H       1.4066789018    -1.5007933899    -0.8943347153
   50      H      -0.5199988560     4.2514298766    -0.0996158002
   51      C       1.8874366175     4.8771925221    -1.0576592113
   52      H       3.0565245828     2.4653624176    -1.5187703068
   53      H       2.1640256942     0.2725905643    -1.1493293061
   54      C     -11.7382980823     6.9512215867     2.3186965175
   55      H     -12.7942536338     6.8568873371     2.5191336885
   56      H     -11.9554958773     9.0466571219     2.0262713734
   57      C     -12.7422389452     4.2768317137     2.9041135729
   58      H     -14.2710344384     2.8724596096     3.3690555596
   59      H     -13.4640522427     5.0784706112     2.8994197672
   60      H       2.7986231089     5.0148598884    -0.4664621608
   61      H       1.1867564962     5.6686103407    -0.7780807747
   62      H       2.1454248769     5.0157157408    -2.1124531822
   63      H      -2.0299573218    -4.8671593291    -0.4975977675
   64      H      -2.9908298168    -4.2882308375     0.8670844419
   65      H      -1.3605882506    -4.9163119216     1.1405989651
   66      H     -13.3424837112     0.5018148608     4.4728054418
   67      H     -13.6376434370     0.2567180616     2.7442078835
   68      H     -12.0892398104    -0.2143012788     3.4523425060
   69      H      -9.5992221619    10.4773252099     2.3038875859
   70      H      -8.3314416746     9.8108160759     1.2688225237
   71      H      -9.9085061067    10.2158265238     0.5800999181
   72      H      -4.4542043265     5.2706037802     1.1102780593
 ----------------------------------------------------------------
 Nuclear Repulsion Energy =  4018.8155840446 hartrees
 There are      140 alpha and      140 beta electrons
 Discretize the solute cavity surface with Lebedev spheres
	Using 302 Lebedev grid points for each H atom
	Using 302 Lebedev grid points for other atoms
	Atomic van der Waals radii will be scaled by 1.20
 Remove points where switching function is < 1.0e-08
 Keep 7502 surface tesserae and discard 14242 interior tesserae
 Molecular Surface Area = 580.127 Angst**2
 Applying Cartesian multipole field
    Component          Value
    ---------          -----
     (2,0,0)        1.00000E-12
     (0,2,0)        2.00000E-12
     (0,0,2)       -3.00000E-11
 Nucleus-field energy     =    -0.0000000077 hartrees
 Requested basis set is def2-mSVP
 There are 354 shells and 690 basis functions
 A cutoff of  1.0D-12 yielded  25251 shell pairs
 There are    101681 function pairs (    112889 Cartesian)
 Smallest overlap matrix eigenvalue = 1.25E-04
 Guess MOs from SCF MO coefficient file

 -----------------------------------------------------------------------
  General SCF calculation program by
  Eric Jon Sundstrom, Paul Horn, Yuezhi Mao, Dmitri Zuev, Alec White,
  David Stuck, Shaama M.S., Shane Yost, Joonho Lee, David Small,
  Daniel Levine, Susi Lehtola, Hugh Burton, Evgeny Epifanovsky
 -----------------------------------------------------------------------
 Exchange:     0.4200 Hartree-Fock + 0.5800 PBEh-3c
 Correlation:  1.0000 PBEh-3c
 Using SG-1 standard quadrature grid
 Dispersion:   Grimme D3
 using 4 threads for integral computing
 -------------------------------------------------------
 OpenMP Integral computing Module                
 Release: version 2.0, May 2017, Q-Chem Inc. Pleasanton 
 -------------------------------------------------------
 -------------------------------------------------------
 OpenMP BLAS3 based DFT computing Module                
 Release: version 1.0, May 2013, Q-Chem Inc. Pittsburgh 
 -------------------------------------------------------
 A restricted SCF calculation will be
 performed using DIIS
 SCF converges when DIIS error is below 1.0e-09
 ---------------------------------------
  Cycle       Energy         DIIS error
 ---------------------------------------
 Using non-symmetric K matrix
    1   -1587.5289719121      3.34e-04  
    2   -1588.6503778474      1.33e-04  
    3   -1588.6513579957      1.04e-04  
    4   -1588.6520197369      3.33e-05  
    5   -1588.6520799677      1.53e-05  
    6   -1588.6520945965      3.99e-06  
    7   -1588.6520955149      1.45e-06  
    8   -1588.6520956549      4.39e-07  
    9   -1588.6520956681      1.51e-07  
   10   -1588.6520956697      5.30e-08  
   11   -1588.6520956699      1.73e-08  
   12   -1588.6520956700      6.36e-09  
   13   -1588.6520956700      1.46e-09  
   14   -1588.6520956700      8.26e-10  Convergence criterion met
 ---------------------------------------
 SCF time:   CPU 4537.62s  wall 1178.00s 

************** Final PCM Free Energy Summary **************
 G_electrostatic  =      -0.01063017 hartree =      -6.67053152 kcal/mol
 G_cavitation     =       0.00000000 hartree =       0.00000000 kcal/mol
 G_dispersion     =       0.00000000 hartree =       0.00000000 kcal/mol
 G_repulsion      =       0.00000000 hartree =       0.00000000 kcal/mol
 --------------------------------------------------
 Non-electrostatic Free Energy =       0.00000000 hartree =       0.00000000 kcal/mol
 Total                         =      -0.01063017 hartree =      -6.67053152 kcal/mol
 --------------------------------------------------
 SCF Energy (H0 + V/2)                       =   -1588.65209567 
 Solute Internal Energy (H0)                 =   -1588.64146550 
 Total Free Energy (H0 + V/2 + non-elec)     =   -1588.65209567 hartree
                                             = -996894.23615690 kcal/mol
***********************************************************

 SCF   energy in the final basis set =    -1588.6520956700
 Total energy in the final basis set =    -1588.6520956700
 
 --------------------------------------------------------------
 
                    Orbital Energies (a.u.)
 --------------------------------------------------------------
 
 Alpha MOs
 -- Occupied --
-10.471 -10.471 -10.470 -10.470 -10.467 -10.467 -10.467 -10.466
-10.466 -10.466 -10.465 -10.465 -10.460 -10.460 -10.460 -10.460
-10.457 -10.456 -10.456 -10.456 -10.452 -10.452 -10.452 -10.452
-10.449 -10.449 -10.449 -10.449 -10.449 -10.449 -10.449 -10.449
-10.435 -10.435 -10.435 -10.435 -10.432 -10.432 -10.431 -10.431
 -6.948  -6.947  -1.002  -1.001  -0.962  -0.962  -0.958  -0.955
 -0.906  -0.904  -0.881  -0.879  -0.878  -0.872  -0.850  -0.850
 -0.822  -0.820  -0.819  -0.808  -0.795  -0.795  -0.753  -0.753
 -0.734  -0.719  -0.717  -0.709  -0.688  -0.681  -0.671  -0.669
 -0.665  -0.662  -0.626  -0.618  -0.611  -0.607  -0.581  -0.572
 -0.567  -0.557  -0.554  -0.540  -0.535  -0.530  -0.528  -0.515
 -0.515  -0.513  -0.507  -0.500  -0.497  -0.495  -0.488  -0.487
 -0.485  -0.480  -0.480  -0.480  -0.475  -0.470  -0.469  -0.466
 -0.465  -0.455  -0.451  -0.449  -0.446  -0.438  -0.436  -0.435
 -0.426  -0.418  -0.416  -0.415  -0.412  -0.412  -0.409  -0.409
 -0.399  -0.390  -0.388  -0.387  -0.377  -0.369  -0.357  -0.353
 -0.338  -0.333  -0.333  -0.329  -0.324  -0.323  -0.287  -0.278
 -0.268  -0.255  -0.253  -0.250
 -- Virtual --
 -0.084  -0.051  -0.025  -0.020  -0.016  -0.011   0.005   0.032
  0.051   0.053   0.061   0.068   0.077   0.121   0.140   0.141
  0.141   0.145   0.149   0.156   0.170   0.172   0.173   0.174
  0.175   0.175   0.181   0.183   0.186   0.186   0.190   0.196
  0.200   0.202   0.203   0.219   0.220   0.220   0.223   0.229
  0.232   0.235   0.236   0.237   0.241   0.241   0.244   0.245
  0.248   0.258   0.265   0.269   0.273   0.273   0.282   0.287
  0.289   0.293   0.299   0.301   0.303   0.304   0.311   0.316
  0.318   0.328   0.338   0.338   0.345   0.348   0.360   0.364
  0.373   0.373   0.374   0.391   0.397   0.397   0.404   0.404
  0.415   0.416   0.420   0.448   0.448   0.454   0.467   0.473
  0.475   0.486   0.486   0.488   0.489   0.490   0.496   0.497
  0.502   0.509   0.514   0.514   0.518   0.521   0.522   0.525
  0.525   0.529   0.533   0.534   0.537   0.537   0.552   0.553
  0.554   0.555   0.555   0.563   0.569   0.572   0.573   0.573
  0.579   0.583   0.583   0.589   0.592   0.593   0.603   0.604
  0.605   0.606   0.606   0.608   0.612   0.612   0.614   0.616
  0.616   0.619   0.623   0.626   0.630   0.633   0.636   0.650
  0.652   0.653   0.664   0.666   0.680   0.683   0.684   0.684
  0.695   0.696   0.700   0.702   0.704   0.710   0.719   0.724
  0.733   0.735   0.737   0.741   0.742   0.743   0.747   0.748
  0.758   0.760   0.761   0.766   0.774   0.774   0.775   0.780
  0.786   0.787   0.791   0.799   0.805   0.814   0.818   0.827
  0.830   0.840   0.848   0.856   0.868   0.874   0.894   0.911
  0.918   0.925   0.930   0.932   0.932   0.934   0.940   0.952
  0.956   0.962   0.963   0.994   0.997   1.004   1.006   1.012
  1.012   1.016   1.016   1.018   1.019   1.020   1.023   1.028
  1.029   1.046   1.050   1.051   1.052   1.061   1.062   1.067
  1.076   1.077   1.082   1.083   1.083   1.087   1.095   1.101
  1.102   1.105   1.108   1.126   1.128   1.131   1.140   1.141
  1.144   1.145   1.150   1.152   1.156   1.167   1.170   1.183
  1.212   1.213   1.214   1.230   1.239   1.241   1.245   1.251
  1.256   1.258   1.262   1.268   1.274   1.277   1.282   1.303
  1.306   1.308   1.308   1.310   1.328   1.330   1.349   1.357
  1.360   1.367   1.385   1.387   1.391   1.393   1.395   1.396
  1.397   1.398   1.400   1.410   1.420   1.428   1.437   1.438
  1.440   1.441   1.454   1.468   1.470   1.472   1.476   1.496
  1.502   1.505   1.513   1.514   1.518   1.524   1.527   1.528
  1.531   1.533   1.534   1.545   1.548   1.548   1.548   1.551
  1.551   1.556   1.569   1.584   1.586   1.592   1.606   1.608
  1.621   1.636   1.642   1.672   1.673   1.685   1.747   1.750
  1.762   1.766   1.770   1.776   1.779   1.781   1.800   1.802
  1.806   1.823   1.838   1.842   1.848   1.848   1.857   1.858
  1.870   1.888   1.890   1.890   1.898   1.901   1.924   1.927
  1.930   1.933   1.935   1.935   1.943   1.944   1.946   1.949
  1.955   1.957   1.958   1.968   1.979   1.985   1.995   2.017
  2.021   2.024   2.043   2.048   2.057   2.058   2.064   2.065
  2.067   2.067   2.122   2.132   2.137   2.145   2.148   2.153
  2.153   2.155   2.171   2.177   2.178   2.192   2.216   2.223
  2.224   2.231   2.232   2.233   2.238   2.246   2.269   2.280
  2.285   2.289   2.293   2.294   2.294   2.304   2.310   2.317
  2.318   2.319   2.333   2.349   2.351   2.354   2.356   2.362
  2.364   2.368   2.368   2.369   2.385   2.386   2.386   2.388
  2.392   2.403   2.405   2.411   2.414   2.429   2.436   2.437
  2.439   2.441   2.447   2.448   2.465   2.471   2.474   2.482
  2.487   2.499   2.499   2.500   2.512   2.556   2.614   2.628
  2.637   2.651   2.679   2.687   2.689   2.689   2.697   2.697
  2.706   2.706   2.707   2.708   2.715   2.718   2.743   2.752
  2.757   2.769   2.781   2.798   2.802   2.804   2.814   2.825
  2.834   2.837   2.847   2.848   2.851   2.867   2.912   2.914
  2.919   2.926   2.931   2.938   2.945   2.947   2.955   2.999
  3.009   3.010   3.017   3.023   3.056   3.113   3.156   3.157
  3.178   3.188   3.190   3.261   3.434   3.435   3.441   3.470
  3.550   3.559   3.667   3.683   9.346   9.469  13.147  13.176
 13.435  13.440  13.502  13.521  13.650  13.651  13.728  13.741
 13.759  13.761  13.825  13.828  13.883  13.884  13.999  14.006
 14.017  14.019  14.034  14.035  14.154  14.154  14.159  14.164
 14.172  14.176  14.224  14.227  14.228  14.246  14.442  14.463
 14.522  14.532  14.543  14.544  14.578  14.580
 --------------------------------------------------------------
 
          Ground-State Mulliken Net Atomic Charges

     Atom                 Charge (a.u.)
  ----------------------------------------
      1 C                    -0.072915
      2 C                    -0.071357
      3 B                     0.215740
      4 C                    -0.070918
      5 C                    -0.073915
      6 B                     0.218162
      7 C                    -0.414616
      8 C                     0.102381
      9 C                     0.101850
     10 C                    -0.414187
     11 C                    -0.415082
     12 C                     0.102792
     13 C                     0.102671
     14 C                    -0.414438
     15 H                     0.227730
     16 H                     0.035676
     17 C                     0.116988
     18 C                     0.118924
     19 C                    -0.389917
     20 C                     0.131341
     21 C                    -0.267388
     22 C                    -0.267608
     23 C                     0.131511
     24 C                    -0.711895
     25 H                     0.228128
     26 C                    -0.389060
     27 H                     0.227790
     28 C                     0.118146
     29 C                    -0.267412
     30 C                     0.131198
     31 C                    -0.389201
     32 C                    -0.711794
     33 H                     0.222180
     34 H                     0.227983
     35 H                     0.222194
     36 C                     0.117768
     37 C                    -0.390367
     38 C                     0.131814
     39 C                    -0.267587
     40 C                    -0.711998
     41 H                     0.222432
     42 C                     0.077546
     43 C                     0.078871
     44 C                     0.078316
     45 C                     0.077167
     46 C                    -0.322766
     47 C                    -0.322813
     48 H                     0.231343
     49 H                     0.225171
     50 H                     0.222311
     51 C                    -0.711940
     52 H                     0.231224
     53 H                     0.225390
     54 C                    -0.322032
     55 H                     0.225481
     56 H                     0.231237
     57 C                    -0.322139
     58 H                     0.231421
     59 H                     0.225185
     60 H                     0.239799
     61 H                     0.235634
     62 H                     0.239762
     63 H                     0.239787
     64 H                     0.235670
     65 H                     0.239792
     66 H                     0.239909
     67 H                     0.239722
     68 H                     0.235654
     69 H                     0.239789
     70 H                     0.235658
     71 H                     0.239724
     72 H                     0.036386
  ----------------------------------------
  Sum of atomic charges =    -0.000000

 -----------------------------------------------------------------
                    Cartesian Multipole Moments
 -----------------------------------------------------------------
    Charge (ESU x 10^10)
                -0.0000
    Dipole Moment (Debye)
         X      -0.2423      Y      -0.1156      Z      -0.7402
       Tot       0.7874
    Quadrupole Moments (Debye-Ang)
        XX    -181.4931     XY      -7.9093     YY    -193.0413
        XZ     -16.7385     YZ      -4.9824     ZZ    -253.6899
    Octopole Moments (Debye-Ang^2)
       XXX    2993.6093    XXY    -400.4440    XYY    1019.4966
       YYY   -1595.9423    XXZ     -67.1860    XYZ      -9.8065
       YYZ    -287.5814    XZZ    1379.0197    YZZ    -718.2926
       ZZZ    -951.9029
    Hexadecapole Moments (Debye-Ang^3)
      XXXX  -62086.8807   XXXY   12291.8516   XXYY  -13587.4718
      XYYY   12895.0515   YYYY  -21404.4879   XXXZ    5288.0933
      XXYZ    -664.7304   XYYZ    2715.3632   YYYZ   -3116.4902
      XXZZ  -14017.5320   XYZZ    6012.7207   YYZZ   -5416.1537
      XZZZ    9873.9383   YZZZ   -3825.1807   ZZZZ   -5302.3356
 -----------------------------------------------------------------
 Calculating analytic gradient of the SCF energy
  4.240411309618802E-004  4.240182506343384E-004
  4.240333727314401E-004  4.240260322205936E-004
  4.240214844874441E-004  4.240378197156734E-004
  4.240347664485981E-004  4.240246180769255E-004
  4.240163643310774E-004  4.240430379564944E-004
  4.240243537577520E-004  4.240349504223315E-004
  4.240382290206515E-004  4.240211643770113E-004
  4.240577618157035E-004  4.240016455465867E-004
  4.240138930884229E-004  4.240454273452729E-004
  4.240148171300144E-004  4.240445561823899E-004
  4.240252248867136E-004  4.240341824348638E-004
  4.240287059551586E-004  4.240306047176549E-004
  4.240225007670068E-004  4.240368767506607E-004
  4.240417214734977E-004  4.240176817899550E-004
  4.240262167223834E-004  4.240330933587955E-004
  4.240167019867884E-004  4.240426947692889E-004
  4.239997432379934E-004  4.240596662443124E-004
  4.240308990652725E-004  4.240284166664565E-004
  4.240145751047011E-004  4.240448184497889E-004
  4.240112376106194E-004  4.240481697039182E-004
  4.240364425164839E-004  4.240228757261160E-004
  4.240259227548493E-004  4.240334748024228E-004
  4.240406259067158E-004  4.240187761227747E-004
  4.240307133058976E-004  4.240286129271094E-004
  4.240188259154056E-004  4.240405668055480E-004
  4.240258785611099E-004  4.240335259499327E-004
  4.240333898767398E-004  4.240259385451761E-004
  4.240311178595557E-004  4.240282699384321E-004
  4.240540325397317E-004  4.240053787602945E-004
  4.240241447639069E-004  4.240351758254538E-004
  4.240282788725497E-004  4.240311234670953E-004
  4.240051521025555E-004  4.240542555870203E-004
  4.240333182864612E-004  4.240259906717401E-004
  4.240400712006089E-004  4.240193389170692E-004
  4.240342619917175E-004  4.240251390878169E-004
  4.240271821407572E-004  4.240321323570060E-004
  4.240349075084381E-004  4.240245047218014E-004
  4.240187534227857E-004  4.240406452147582E-004
  4.240302496855918E-004  4.240290645784124E-004
  4.240438109008978E-004  4.240155948650969E-004
  4.240483382186401E-004  4.240110663227484E-004
  4.240214287728232E-004  4.240378800661743E-004
  4.240282795687953E-004  4.240311405461577E-004
  4.240235266484582E-004  4.240358875281056E-004
  4.240328130511095E-004  4.240265526044472E-004
  4.240329721383092E-004  4.240264543313801E-004
  4.240401769069606E-004  4.240192492190079E-004
  4.240249384993655E-004  4.240344447805003E-004
  4.240251016916392E-004  4.240342910071563E-004
  4.240221022139232E-004  4.240373124848898E-004
  4.240322817510080E-004  4.240270516690005E-004
  4.240338298075790E-004  4.240255750396061E-004
  4.240380731295239E-004  4.240213396003073E-004
  4.240278068336627E-004  4.240315163963115E-004
  4.240165685733646E-004  4.240428359156179E-004
  4.240260799397022E-004  4.240333271091241E-004
  4.240330739056808E-004  4.240262542391325E-004
  4.240170215010119E-004  4.240423621540390E-004
  4.240338578522922E-004  4.240255530185386E-004
  4.240355728466961E-004  4.240237809283181E-004
  4.240342577549210E-004  4.240251418060419E-004
  4.240349646555536E-004  4.240244307977782E-004
  4.240286075286307E-004  4.240307467874199E-004
  4.240257786788851E-004  4.240336308760955E-004
  4.240240026532943E-004  4.240353911648897E-004
  4.240319639565222E-004  4.240273818172201E-004
  4.240436290143353E-004  4.240157617584580E-004
  4.240269054859475E-004  4.240325041603593E-004
  4.240289383811294E-004  4.240304088899762E-004
  4.240383692674446E-004  4.240210135100938E-004
  4.240428002201809E-004  4.240166145220156E-004
  4.240286875728807E-004  4.240307313662643E-004
  4.240305361429847E-004  4.240288769700215E-004
  4.240363845301334E-004  4.240230323240923E-004
  4.240269310379159E-004  4.240324392870985E-004
  4.240427669524397E-004  4.240166260937119E-004
  4.240320525791455E-004  4.240273560188899E-004
  4.240248354339252E-004  4.240345031226393E-004
  4.240277332044878E-004  4.240316880320485E-004
  4.240239045482601E-004  4.240355050059303E-004
  4.240339044514157E-004  4.240254645906198E-004
  4.240325438385431E-004  4.240268463445630E-004
  4.240386968802084E-004  4.240207193975296E-004
  4.240280673378897E-004  4.240312671726002E-004
  4.240288415561390E-004  4.240305563351801E-004
  4.240225080844436E-004  4.240368881348968E-004
  4.240309813474866E-004  4.240283738388243E-004
  4.240195334502432E-004  4.240398582640519E-004
  4.240376143252978E-004  4.240217861292033E-004
  4.240355829983569E-004  4.240237725705624E-004
  4.240358954763770E-004  4.240234966263346E-004
  4.240172815353072E-004  4.240421259796641E-004
  4.240275234899973E-004  4.240318166534488E-004
  4.240340581701519E-004  4.240253499059320E-004
  4.240447254223920E-004  4.240146661986946E-004
  4.240318029379968E-004  4.240276137716383E-004
  4.240366493222105E-004  4.240227521786888E-004
  4.240360701535593E-004  4.240233511139840E-004
  4.240269414029031E-004  4.240324286717100E-004
  4.240328290717500E-004  4.240265972393534E-004
  4.240354885549594E-004  4.240239197569069E-004
  4.240273095516431E-004  4.240320556838512E-004
  4.240289806849057E-004  4.240304287110548E-004
  4.240392313703526E-004  4.240201893728830E-004
  4.240277973780781E-004  4.240315655837856E-004
  4.240280630300932E-004  4.240313399350459E-004
  4.240208412589017E-004  4.240385723802767E-004
  4.240321183464344E-004  4.240272057568705E-004
  4.240217150053998E-004  4.240376901784858E-004
  4.240414209413388E-004  4.240179845212268E-004
  4.240300104542376E-004  4.240293190622142E-004
  4.240424358088587E-004  4.240169636455280E-004
  4.240227557692810E-004  4.240366439304317E-004
  4.240295277488911E-004  4.240298213208872E-004
  4.240302611405364E-004  4.240291476019798E-004
  4.240367114870698E-004  4.240226823753701E-004
  4.240292330892028E-004  4.240301136018409E-004
  4.240273694251043E-004  4.240320335722870E-004
  4.240145237570126E-004  4.240448708460949E-004
  4.240339155087358E-004  4.240255034720068E-004
  4.240230257733190E-004  4.240363845541548E-004
  4.240231615531120E-004  4.240362605639914E-004
  4.240308358149677E-004  4.240285268015298E-004
  4.240384953569252E-004  4.240209080012639E-004
  4.240402185259741E-004  4.240191896467074E-004
  4.240272772051975E-004  4.240320562503950E-004
  4.240311921090915E-004  4.240282051103849E-004
  4.240435321292136E-004  4.240158727300237E-004
  4.240297657039833E-004  4.240295772427086E-004
  4.240206843359087E-004  4.240387073818954E-004
  4.240197599103526E-004  4.240396506475026E-004
  4.240339099359669E-004  4.240254329127956E-004
  4.240298062222680E-004  4.240296020954895E-004
  4.240158656868078E-004  4.240435375592986E-004
  4.240325006602963E-004  4.240268327588967E-004
  4.240143949732826E-004  4.240449925526920E-004
  4.240302688895271E-004  4.240291591526416E-004
  4.240364630152617E-004  4.240228863676335E-004
[...]
     17  C        -0.5082795617    2.0771223063   -0.0856306470
     18  C       -10.5147768712    3.4177287835    2.6569801211
     19  C       -11.0282347695    2.1417552224    2.9502133474
     20  C         1.3249409045    3.5149266125   -0.8120537965
     21  C         2.0680630496    2.3677765598   -1.1149404547
     22  C       -13.2258292551    3.0192957588    3.1878973465
     23  C       -12.3607570998    1.9190862665    3.2147840667
     24  C       -12.8854497700    0.5490090999    3.5249048537
     25  H        -4.1062782519   -0.4369793979    1.3881896560
     26  C         0.0572955081    3.3442972812   -0.3034213575
     27  H        -2.3107401296    4.0392453828    0.4907231895
     28  C        -1.5886563698   -0.5390778783    0.3729556813
     29  C        -0.0985732066   -2.8101841263   -0.2647347614
     30  C        -1.3780272597   -2.9703201225    0.2805654275
     31  C        -2.0925501082   -1.8342035429    0.5861923507
     32  C        -1.9431251167   -4.3401006751    0.5107885021
     33  H        -3.0821539028   -1.9675001718    1.0001929400
     34  H        -8.5585582325    1.5416048002    2.5317384898
     35  H       -10.3685126635    1.2857948971    2.9731358500
     36  C        -9.5242716959    6.0470186011    2.0852600872
     37  C        -9.0717949497    7.3503339825    1.8186824010
     38  C        -9.9148221407    8.4384502779    1.7890710155
     39  C       -11.2750242052    8.2204076929    2.0367686091
     40  C        -9.4074948458    9.8188762289    1.5004864365
     41  H        -8.0229643206    7.5260647185    1.6252695145
     42  C       -10.8920884510    5.8450734126    2.3432188417
     43  C         0.2512180481    0.9333764314   -0.3895181489
     44  C        -0.3001833107   -0.3938261943   -0.1672442329
     45  C       -11.3949567733    4.5126085878    2.6371692436
     46  C         1.5435682070    1.1172292967   -0.9068191997
     47  C         0.4203610097   -1.5588364450   -0.4797199285
     48  H         0.4896856507   -3.6829775923   -0.5226942517
     49  H         1.4107153607   -1.4916576073   -0.9057055798
     50  H        -0.5105046815    4.2333911046   -0.0676539954
     51  C         1.8991603440    4.8792995322   -1.0457080837
     52  H         3.0696368820    2.4652144265   -1.5166858105
     53  H         2.1591562101    0.2639676167   -1.1522342880
     54  C       -11.7447015303    6.9603222952    2.3067350765
     55  H       -12.8027850012    6.8443952502    2.4911284148
     56  H       -11.9667589585    9.0542335329    2.0160744691
     57  C       -12.7531564015    4.2759476024    2.9082607022
     58  H       -14.2812210651    2.8784583289    3.3897052313
     59  H       -13.4627398004    5.0903406473    2.9021135898
     60  H         2.8424765560    5.0093282323   -0.5130873856
     61  H         1.2193467645    5.6629791951   -0.7144618184
     62  H         2.1032759102    5.0435186914   -2.1051752259
     63  H        -2.0163882408   -4.8982530208   -0.4240830060
     64  H        -2.9390565316   -4.2958905843    0.9493426509
     65  H        -1.3102518430   -4.9216881503    1.1830378972
     66  H       -13.3086472828    0.5070329413    4.5300685223
     67  H       -13.6782723743    0.2638880859    2.8314374652
     68  H       -12.1035786096   -0.2066246090    3.4634034391
     69  H        -9.6063804342   10.4941712033    2.3343101838
     70  H        -8.3336769328    9.8233199630    1.3191750385
     71  H        -9.8948133273   10.2424065777    0.6207264437
     72  H        -4.4505315819    5.2673014394    1.1280996416

Z-matrix Print:
$molecule
0 1
C 
C  1 1.406168
H  2 1.081170 1 119.778723
C  2 1.378704 1 122.935278 3 -178.850815 0
C  1 1.407320 2 118.329615 3 -179.064735 0
C  5 1.408895 1 118.362231 2 -1.409278 0
H  6 1.081105 5 119.642334 1 -178.820036 0
C  6 1.380720 5 122.971756 1 -0.405632 0
C  5 1.455079 1 119.856493 2 179.795290 0
C  9 1.404650 5 121.405008 1 -178.295037 0
H  10 1.080958 9 119.781156 5 0.978081 0
C  10 1.376498 9 122.678459 5 -179.052027 0
C  12 1.399973 10 117.853155 9 -0.208602 0
H  13 1.083533 12 119.814410 10 -179.984769 0
C  13 1.371961 12 120.740262 10 -0.096156 0
H  15 1.080385 13 117.878469 12 -179.709334 0
C  15 1.404126 13 121.809716 12 0.154171 0
C  17 1.454275 15 121.653523 13 -179.849816 0
C  18 1.404663 17 120.062647 15 178.927959 0
C  18 1.405017 17 121.889824 15 -1.143387 0
H  20 1.080175 18 120.419724 17 -0.519975 0
C  20 1.371635 18 121.842204 17 179.736445 0
H  22 1.083679 20 119.477803 18 179.819604 0
C  22 1.399999 20 120.740963 18 -0.051231 0
C  24 1.376485 22 117.805402 20 0.228878 0
H  25 1.080963 24 117.288982 22 179.574374 0
C  12 1.498611 10 121.556191 9 179.453372 0
H  27 1.089047 12 111.625342 10 3.189635 0
H  27 1.091072 12 111.325564 10 123.687302 0
H  27 1.091376 12 111.100755 10 -117.022078 0
C  24 1.499546 22 120.576091 20 179.842866 0
H  31 1.089111 24 111.675298 22 179.338330 0
H  31 1.091188 24 111.277305 22 58.957033 0
H  31 1.091277 24 111.160511 22 -60.329735 0
B  4 1.542333 2 120.851106 1 176.766640 0
H  35 1.198042 4 120.190522 2 4.719304 0
C  35 1.542607 4 119.730356 2 -173.469381 0
C  37 1.378728 35 120.737693 4 174.139601 0
H  38 1.081134 37 117.360710 35 2.445691 0
C  38 1.405909 37 122.955999 35 -176.390027 0
C  40 1.407775 38 118.357628 37 -1.031002 0
C  41 1.408872 40 118.338490 38 -0.157025 0
H  42 1.081313 41 119.610694 40 179.921909 0
C  42 1.381097 41 122.968407 40 1.193414 0
C  40 1.455335 38 121.250742 37 177.920466 0
C  45 1.404945 40 119.702956 38 -177.639835 0
C  46 1.405064 45 118.138791 40 179.086046 0
H  47 1.080177 46 120.458574 45 -179.947917 0
C  47 1.371419 46 121.792438 45 0.066264 0
H  49 1.083704 47 119.518866 46 -179.878727 0
C  49 1.399833 47 120.737623 46 0.100326 0
C  51 1.376661 49 117.862544 47 -0.101730 0
H  52 1.080938 51 117.296732 49 -179.983643 0
C  46 1.454217 45 120.017824 40 -0.975034 0
C  54 1.404301 46 121.532187 45 179.590967 0
H  55 1.080269 54 120.332437 46 -0.484243 0
C  55 1.371603 54 121.789965 46 179.662234 0
H  57 1.083601 55 119.478392 54 179.876694 0
C  57 1.399659 55 120.712152 54 -0.147113 0
C  59 1.376797 57 117.912604 55 0.335396 0
H  60 1.080896 59 117.503820 57 179.925306 0
C  60 1.405144 59 122.680809 57 0.003621 0
C  59 1.498745 57 120.432218 55 -179.738870 0
H  63 1.089026 59 111.690338 57 -179.386471 0
H  63 1.091254 59 111.194975 57 -59.005615 0
H  63 1.091257 59 111.170817 57 60.259087 0
C  51 1.499530 49 120.387400 47 179.842544 0
H  67 1.089076 51 111.780351 49 177.377054 0
H  67 1.091219 51 111.193828 49 56.942875 0
H  67 1.091427 51 111.178862 49 -62.255351 0
B  44 1.546910 42 121.717882 41 176.862963 0
H  71 1.197662 44 120.086258 42 4.188458 0
$end

 
 --------------------------------------------------------------
 
                    Orbital Energies (a.u.)
 --------------------------------------------------------------
 
 Alpha MOs
 -- Occupied --
-10.472 -10.471 -10.471 -10.471 -10.467 -10.467 -10.467 -10.467
-10.466 -10.466 -10.466 -10.465 -10.461 -10.461 -10.461 -10.461
-10.457 -10.457 -10.456 -10.456 -10.452 -10.452 -10.452 -10.452
-10.449 -10.449 -10.449 -10.449 -10.449 -10.449 -10.449 -10.449
-10.434 -10.434 -10.434 -10.434 -10.432 -10.432 -10.431 -10.431
 -6.947  -6.945  -1.002  -1.002  -0.963  -0.963  -0.959  -0.956
 -0.906  -0.904  -0.880  -0.878  -0.878  -0.872  -0.852  -0.852
 -0.823  -0.821  -0.821  -0.809  -0.796  -0.796  -0.755  -0.755
 -0.733  -0.719  -0.716  -0.709  -0.688  -0.682  -0.672  -0.669
 -0.665  -0.662  -0.628  -0.618  -0.613  -0.607  -0.580  -0.571
 -0.566  -0.557  -0.553  -0.540  -0.535  -0.530  -0.528  -0.516
 -0.515  -0.514  -0.509  -0.500  -0.498  -0.495  -0.488  -0.487
 -0.484  -0.480  -0.480  -0.478  -0.474  -0.471  -0.470  -0.466
 -0.464  -0.455  -0.452  -0.450  -0.447  -0.438  -0.437  -0.436
 -0.427  -0.421  -0.418  -0.416  -0.411  -0.411  -0.410  -0.410
 -0.400  -0.390  -0.389  -0.386  -0.377  -0.369  -0.356  -0.350
 -0.342  -0.333  -0.333  -0.329  -0.324  -0.322  -0.288  -0.279
 -0.270  -0.256  -0.254  -0.252
 -- Virtual --
 -0.085  -0.051  -0.024  -0.020  -0.015  -0.010   0.006   0.032
  0.051   0.052   0.060   0.072   0.075   0.121   0.140   0.141
  0.142   0.145   0.149   0.156   0.171   0.172   0.174   0.174
  0.175   0.176   0.181   0.183   0.187   0.187   0.191   0.196
  0.200   0.203   0.204   0.219   0.220   0.220   0.225   0.230
  0.233   0.235   0.235   0.238   0.242   0.242   0.243   0.246
  0.248   0.258   0.263   0.268   0.270   0.273   0.282   0.288
  0.290   0.293   0.300   0.302   0.302   0.304   0.311   0.316
  0.316   0.328   0.337   0.339   0.344   0.350   0.361   0.364
  0.370   0.371   0.373   0.391   0.396   0.398   0.404   0.404
  0.415   0.416   0.419   0.449   0.450   0.454   0.467   0.470
  0.473   0.485   0.486   0.487   0.489   0.490   0.495   0.495
  0.502   0.509   0.513   0.513   0.518   0.521   0.522   0.524
  0.525   0.528   0.533   0.534   0.537   0.538   0.552   0.553
  0.554   0.554   0.556   0.562   0.569   0.572   0.572   0.573
  0.578   0.582   0.583   0.591   0.592   0.593   0.603   0.605
  0.606   0.607   0.608   0.608   0.611   0.613   0.614   0.616
  0.617   0.619   0.626   0.626   0.629   0.634   0.636   0.652
  0.653   0.653   0.665   0.667   0.682   0.684   0.684   0.685
  0.694   0.697   0.700   0.703   0.706   0.710   0.719   0.724
  0.733   0.735   0.738   0.741   0.742   0.743   0.748   0.749
  0.759   0.761   0.763   0.767   0.775   0.777   0.778   0.782
  0.786   0.789   0.795   0.799   0.805   0.814   0.818   0.827
  0.831   0.842   0.850   0.855   0.871   0.876   0.894   0.912
  0.916   0.926   0.930   0.932   0.934   0.936   0.942   0.954
  0.957   0.963   0.964   0.992   0.995   1.003   1.005   1.012
  1.012   1.016   1.017   1.019   1.020   1.021   1.022   1.031
  1.031   1.049   1.054   1.055   1.056   1.060   1.062   1.068
  1.077   1.078   1.081   1.083   1.085   1.086   1.097   1.100
  1.103   1.104   1.109   1.123   1.127   1.132   1.140   1.141
  1.147   1.149   1.150   1.150   1.157   1.167   1.174   1.184
  1.210   1.211   1.214   1.229   1.237   1.239   1.243   1.247
  1.253   1.259   1.262   1.265   1.272   1.275   1.281   1.299
  1.306   1.307   1.308   1.309   1.326   1.331   1.346   1.358
  1.359   1.366   1.384   1.389   1.392   1.393   1.395   1.396
  1.397   1.398   1.402   1.411   1.421   1.429   1.437   1.438
  1.441   1.441   1.457   1.471   1.472   1.477   1.478   1.498
  1.502   1.507   1.515   1.516   1.520   1.523   1.528   1.528
  1.530   1.534   1.536   1.542   1.546   1.549   1.552   1.552
  1.553   1.556   1.572   1.586   1.587   1.593   1.608   1.609
  1.621   1.636   1.643   1.672   1.675   1.689   1.737   1.742
  1.760   1.762   1.768   1.780   1.786   1.787   1.798   1.800
  1.805   1.825   1.836   1.840   1.844   1.845   1.856   1.857
  1.869   1.889   1.890   1.891   1.896   1.900   1.925   1.926
  1.928   1.932   1.933   1.933   1.944   1.945   1.945   1.953
  1.953   1.955   1.959   1.970   1.977   1.988   2.003   2.013
  2.018   2.022   2.042   2.051   2.061   2.062   2.066   2.068
  2.075   2.075   2.120   2.133   2.138   2.145   2.151   2.153
  2.154   2.155   2.171   2.173   2.177   2.193   2.215   2.222
  2.223   2.231   2.233   2.236   2.240   2.252   2.277   2.282
  2.284   2.291   2.294   2.296   2.296   2.310   2.312   2.318
  2.322   2.323   2.330   2.343   2.351   2.354   2.354   2.362
  2.367   2.371   2.371   2.373   2.380   2.381   2.383   2.389
  2.393   2.401   2.403   2.409   2.412   2.428   2.436   2.438
  2.440   2.442   2.446   2.451   2.464   2.479   2.481   2.487
  2.489   2.499   2.505   2.506   2.515   2.566   2.613   2.623
  2.637   2.647   2.680   2.685   2.690   2.694   2.695   2.699
  2.706   2.709   2.709   2.710   2.719   2.722   2.747   2.755
  2.762   2.772   2.785   2.801   2.804   2.807   2.810   2.825
  2.836   2.839   2.848   2.848   2.852   2.873   2.914   2.916
  2.916   2.922   2.931   2.938   2.949   2.954   2.957   2.997
  3.008   3.016   3.023   3.023   3.067   3.110   3.154   3.155
  3.178   3.186   3.188   3.258   3.438   3.438   3.447   3.471
  3.539   3.550   3.673   3.688   9.359   9.482  13.148  13.178
 13.433  13.437  13.501  13.522  13.654  13.655  13.728  13.740
 13.759  13.761  13.826  13.829  13.889  13.890  13.993  14.004
 14.016  14.019  14.030  14.032  14.160  14.161  14.161  14.169
 14.176  14.178  14.223  14.225  14.226  14.251  14.435  14.456
 14.527  14.541  14.552  14.552  14.581  14.583
 --------------------------------------------------------------
 
          Ground-State Mulliken Net Atomic Charges

     Atom                 Charge (a.u.)
  ----------------------------------------
      1 C                    -0.070528
      2 C                    -0.068904
      3 B                     0.211259
      4 C                    -0.067592
      5 C                    -0.071828
      6 B                     0.213623
      7 C                    -0.416063
      8 C                     0.104690
      9 C                     0.103522
     10 C                    -0.416506
     11 C                    -0.416674
     12 C                     0.105438
     13 C                     0.103235
     14 C                    -0.415626
     15 H                     0.226851
     16 H                     0.033713
     17 C                     0.121026
     18 C                     0.123225
     19 C                    -0.392410
     20 C                     0.133276
     21 C                    -0.271646
     22 C                    -0.271541
     23 C                     0.133553
     24 C                    -0.714437
     25 H                     0.227220
     26 C                    -0.391730
     27 H                     0.226728
     28 C                     0.123056
     29 C                    -0.271899
     30 C                     0.133584
     31 C                    -0.392020
     32 C                    -0.714183
     33 H                     0.221716
     34 H                     0.226994
     35 H                     0.221663
     36 C                     0.121986
     37 C                    -0.393079
     38 C                     0.133746
     39 C                    -0.271689
     40 C                    -0.714514
     41 H                     0.221865
     42 C                     0.075491
     43 C                     0.077122
     44 C                     0.074984
     45 C                     0.074040
     46 C                    -0.318784
     47 C                    -0.318711
     48 H                     0.231108
     49 H                     0.224752
     50 H                     0.221769
     51 C                    -0.714536
     52 H                     0.230911
     53 H                     0.224976
     54 C                    -0.317991
     55 H                     0.225131
     56 H                     0.230960
     57 C                    -0.317974
     58 H                     0.231173
     59 H                     0.224839
     60 H                     0.240404
     61 H                     0.237087
     62 H                     0.241690
     63 H                     0.241267
     64 H                     0.237067
     65 H                     0.240864
     66 H                     0.241650
     67 H                     0.240516
     68 H                     0.237112
     69 H                     0.241108
     70 H                     0.237053
     71 H                     0.240888
     72 H                     0.034932
  ----------------------------------------
  Sum of atomic charges =    -0.000000

 -----------------------------------------------------------------
                    Cartesian Multipole Moments
 -----------------------------------------------------------------
    Charge (ESU x 10^10)
                -0.0000
    Dipole Moment (Debye)
         X      -0.2352      Y      -0.1138      Z      -0.6885
       Tot       0.7365
    Quadrupole Moments (Debye-Ang)
        XX    -180.9119     XY      -8.0533     YY    -192.3737
        XZ     -17.2957     YZ      -5.0063     ZZ    -253.4110
    Octopole Moments (Debye-Ang^2)
       XXX    2984.6813    XXY    -397.3880    XYY    1016.3847
       YYY   -1590.2586    XXZ     -58.9099    XYZ     -10.8263
       YYZ    -283.7996    XZZ    1376.3058    YZZ    -717.7164
       ZZZ    -945.9292
    Hexadecapole Moments (Debye-Ang^3)
      XXXX  -62112.6562   XXXY   12336.7968   XXYY  -13578.5125
      XYYY   12861.6409   YYYY  -21325.7788   XXXZ    5188.5420
      XXYZ    -670.4312   XYYZ    2700.4134   YYYZ   -3095.9356
      XXZZ  -14001.1915   XYZZ    6025.9136   YYZZ   -5415.8898
      XZZZ    9850.0570   YZZZ   -3821.2478   ZZZZ   -5256.3458
 -----------------------------------------------------------------
Archival summary:
1\1\ctcp003\OPT\ProcedureUnspecified\BasisUnspecified\40230\mewes1\MonDec1015:08:022018MonDec1015:08:022018\0\\#,OPT,ProcedureUnspecified,BasisUnspecified,\\0,1\C\C,1,1.40617\H,2,1.08117,1,119.779\C,2,1.3787,1,122.935,3,-178.851,0\C,1,1.40732,2,118.33,3,-179.065,0\C,5,1.4089,1,118.362,2,-1.40928,0\H,6,1.0811,5,119.642,1,-178.82,0\C,6,1.38072,5,122.972,1,-0.405632,0\C,5,1.45508,1,119.856,2,179.795,0\C,9,1.40465,5,121.405,1,-178.295,0\H,10,1.08096,9,119.781,5,0.978081,0\C,10,1.3765,9,122.678,5,-179.052,0\C,12,1.39997,10,117.853,9,-0.208602,0\H,13,1.08353,12,119.814,10,-179.985,0\C,13,1.37196,12,120.74,10,-0.0961563,0\H,15,1.08039,13,117.878,12,-179.709,0\C,15,1.40413,13,121.81,12,0.154171,0\C,17,1.45428,15,121.654,13,-179.85,0\C,18,1.40466,17,120.063,15,178.928,0\C,18,1.40502,17,121.89,15,-1.14339,0\H,20,1.08018,18,120.42,17,-0.519975,0\C,20,1.37163,18,121.842,17,179.736,0\H,22,1.08368,20,119.478,18,179.82,0\C,22,1.4,20,120.741,18,-0.0512314,0\C,24,1.37649,22,117.805,20,0.228878,0\H,25,1.08096,24,117.289,22,179.574,0\C,12,1.49861,10,121.556,9,179.453,0\H,27,1.08905,12,111.625,10,3.18963,0\H,27,1.09107,12,111.326,10,123.687,0\H,27,1.09138,12,111.101,10,-117.022,0\C,24,1.49955,22,120.576,20,179.843,0\H,31,1.08911,24,111.675,22,179.338,0\H,31,1.09119,24,111.277,22,58.957,0\H,31,1.09128,24,111.161,22,-60.3297,0\B,4,1.54233,2,120.851,1,176.767,0\H,35,1.19804,4,120.191,2,4.7193,0\C,35,1.54261,4,119.73,2,-173.469,0\C,37,1.37873,35,120.738,4,174.14,0\H,38,1.08113,37,117.361,35,2.44569,0\C,38,1.40591,37,122.956,35,-176.39,0\C,40,1.40778,38,118.358,37,-1.031,0\C,41,1.40887,40,118.338,38,-0.157025,0\H,42,1.08131,41,119.611,40,179.922,0\C,42,1.3811,41,122.968,40,1.19341,0\C,40,1.45534,38,121.251,37,177.92,0\C,45,1.40495,40,119.703,38,-177.64,0\C,46,1.40506,45,118.139,40,179.086,0\H,47,1.08018,46,120.459,45,-179.948,0\C,47,1.37142,46,121.792,45,0.066264,0\H,49,1.0837,47,119.519,46,-179.879,0\C,49,1.39983,47,120.738,46,0.100326,0\C,51,1.37666,49,117.863,47,-0.10173,0\H,52,1.08094,51,117.297,49,-179.984,0\C,46,1.45422,45,120.018,40,-0.975034,0\C,54,1.4043,46,121.532,45,179.591,0\H,55,1.08027,54,120.332,46,-0.484243,0\C,55,1.3716,54,121.79,46,179.662,0\H,57,1.0836,55,119.478,54,179.877,0\C,57,1.39966,55,120.712,54,-0.147113,0\C,59,1.3768,57,117.913,55,0.335396,0\H,60,1.0809,59,117.504,57,179.925,0\C,60,1.40514,59,122.681,57,0.00362054,0\C,59,1.49875,57,120.432,55,-179.739,0\H,63,1.08903,59,111.69,57,-179.386,0\H,63,1.09125,59,111.195,57,-59.0056,0\H,63,1.09126,59,111.171,57,60.2591,0\C,51,1.49953,49,120.387,47,179.843,0\H,67,1.08908,51,111.78,49,177.377,0\H,67,1.09122,51,111.194,49,56.9429,0\H,67,1.09143,51,111.179,49,-62.2554,0\B,44,1.54691,42,121.718,41,176.863,0\H,71,1.19766,44,120.086,42,4.18846,0\\\@

 Total job time:  15376.62s(wall), 56574.58s(cpu) 
 Mon Dec 10 15:08:02 2018

        *************************************************************
        *                                                           *
        *  Thank you very much for using Q-Chem.  Have a nice day.  *
        *                                                           *
        *************************************************************


0 sent ACK to 0 
now end server 0 ... 
